<event>
12    1  0.8493057E-002  0.2245727E+03  0.7818608E-02  0.1131001E+00
         21   -1    0    0  503  502  0.00000000000E+00  0.00000000000E+00  0.26514954375E+03  0.26514954375E+03  0.00000000000E+00 0.  1.
         21   -1    0    0  501  503 -0.00000000000E+00 -0.00000000000E+00 -0.21814407194E+03  0.21814407194E+03  0.00000000000E+00 0.  1.
          6    2    1    2  501    0 -0.79715827878E+02  0.11496287270E+03 -0.66235893990E+02  0.23413694170E+03  0.17567537820E+03 0.  0.
         24    2    3    3    0    0  0.28097572153E+02  0.56253839731E+02 -0.38010644808E+02  0.10808443491E+03  0.79268328514E+02 0.  0.
         -6    2    1    2    0  502  0.79715827878E+02 -0.11496287270E+03  0.11324136580E+03  0.24915667398E+03  0.17229151443E+03 0.  0.
        -24    2    5    5    0    0 -0.68270624227E+01 -0.10576584811E+03  0.83055688849E+02  0.15692044348E+03  0.80577631662E+02 0.  0.
          5    1    3    3  501    0 -0.10781340003E+03  0.58709032969E+02 -0.28225249182E+02  0.12605250680E+03  0.47000000000E+01 0. -1.
        -11    1    4    4    0    0 -0.24044665294E+02  0.60489746038E+01 -0.23701969976E+02  0.34300428621E+02  0.00000000000E+00 0.  1.
         12    1    4    4    0    0  0.52142237447E+02  0.50204865127E+02 -0.14308674832E+02  0.73784006287E+02  0.00000000000E+00 0. -1.
         -5    1    5    5    0  502  0.86542890300E+02 -0.91970245867E+01  0.30185676953E+02  0.92236230495E+02  0.47000000000E+01 0.  1.
         13    1    6    6    0    0 -0.41727552293E+02 -0.41198309834E+02  0.46980680591E+02  0.75137698277E+02  0.00000000000E+00 0. -1.
        -14    1    6    6    0    0  0.34900489870E+02 -0.64567538279E+02  0.36075008257E+02  0.81782745205E+02  0.00000000000E+00 0.  1.
</event>
<event>
12    1  0.8493057E-002  0.2340169E+03  0.7818608E-02  0.1124488E+00
         21   -1    0    0  501  502  0.00000000000E+00  0.00000000000E+00  0.40961993352E+03  0.40961993352E+03  0.00000000000E+00 0.  1.
         21   -1    0    0  502  503 -0.00000000000E+00 -0.00000000000E+00 -0.20350175276E+03  0.20350175276E+03  0.00000000000E+00 0.  1.
         -6    2    1    2    0  503 -0.35126493772E+02  0.14753357566E+03 -0.79714794119E+02  0.24371083115E+03  0.17332193834E+03 0.  0.
        -24    2    3    3    0    0  0.36145823016E+01  0.14634167220E+03 -0.10480445810E+03  0.19730099547E+03  0.80714051759E+02 0.  0.
          6    2    1    2  501    0  0.35126493772E+02 -0.14753357566E+03  0.28583297487E+03  0.36941085512E+03  0.17822419546E+03 0.  0.
         24    2    5    5    0    0  0.56732493501E+02 -0.15328257534E+02  0.10386713286E+03  0.14340483082E+03  0.79517500685E+02 0.  0.
          5    1    5    5  501    0 -0.21605999729E+02 -0.13220531812E+03  0.18196584201E+03  0.22600602431E+03  0.47000000000E+01 0. -1.
        -11    1    6    6    0    0  0.22600373651E+01 -0.38144780204E+02  0.53747151949E+02  0.65946101994E+02  0.00000000000E+00 0.  1.
         12    1    6    6    0    0  0.54472456136E+02  0.22816522669E+02  0.50119980910E+02  0.77458728821E+02  0.00000000000E+00 0. -1.
         -5    1    3    3    0  503 -0.38741076073E+02  0.11919034606E+01  0.25089663981E+02  0.46409835680E+02  0.47000000000E+01 0.  1.
         11    1    4    4    0    0 -0.12701536757E+02  0.50879661903E+02 -0.82762388817E+02  0.97977967085E+02  0.00000000000E+00 0. -1.
        -12    1    4    4    0    0  0.16316119059E+02  0.95462010292E+02 -0.22042069283E+02  0.99323028389E+02  0.00000000000E+00 0.  1.
</event>
<event>
12    1  0.8493057E-002  0.1861809E+03  0.7818608E-02  0.1162005E+00
         21   -1    0    0  501  502  0.00000000000E+00  0.00000000000E+00  0.11177955062E+03  0.11177955062E+03  0.00000000000E+00 0.  1.
         21   -1    0    0  502  503 -0.00000000000E+00 -0.00000000000E+00 -0.32178742695E+03  0.32178742695E+03  0.00000000000E+00 0.  1.
         -6    2    1    2    0  503  0.61882083980E+02 -0.34898852409E+02 -0.62967209195E+02  0.19632390893E+03  0.17184552821E+03 0.  0.
        -24    2    3    3    0    0  0.87266789889E+02 -0.55698025638E+02 -0.85846436863E+02  0.15604316961E+03  0.79133415090E+02 0.  0.
          6    2    1    2  501    0 -0.61882083980E+02  0.34898852409E+02 -0.14704066713E+03  0.23724306863E+03  0.17209297953E+03 0.  0.
         24    2    5    5    0    0 -0.62520131260E+02 -0.29189201048E+02 -0.13544511773E+03  0.17194197778E+03  0.80360982677E+02 0.  0.
          5    1    5    5  501    0  0.63804728017E+00  0.64088053457E+02 -0.11595549409E+02  0.65301090851E+02  0.47000000000E+01 0. -1.
        -11    1    6    6    0    0 -0.53915739136E+02 -0.53042854060E+00 -0.28697309734E+02  0.61079651824E+02  0.00000000000E+00 0.  1.
         12    1    6    6    0    0 -0.86043921245E+01 -0.28658772507E+02 -0.10674780799E+03  0.11086232596E+03  0.00000000000E+00 0. -1.
         -5    1    3    3    0  503 -0.25384705909E+02  0.20799173229E+02  0.22879227669E+02  0.40280739315E+02  0.47000000000E+01 0.  1.
         13    1    4    4    0    0  0.80269629017E+02 -0.11990979701E+02 -0.74913833388E+02  0.11044944259E+03  0.00000000000E+00 0. -1.
        -14    1    4    4    0    0  0.69971608726E+01 -0.43707045937E+02 -0.10932603475E+02  0.45593727020E+02  0.00000000000E+00 0.  1.
</event>
<event>
12    1  0.8493057E-002  0.1861720E+03  0.7818608E-02  0.1164941E+00
         21   -1    0    0  503  502  0.00000000000E+00  0.00000000000E+00  0.19330808614E+04  0.19330808614E+04  0.00000000000E+00 0. -1.
         21   -1    0    0  501  503 -0.00000000000E+00 -0.00000000000E+00 -0.44799655106E+02  0.44799655106E+02  0.00000000000E+00 0.  1.
          6    2    1    2  501    0 -0.51234067498E+02 -0.12840222032E+01  0.17403250233E+03  0.25484763823E+03  0.17897884920E+03 0.  0.
         24    2    3    3    0    0 -0.12483246217E+01 -0.42127237764E+02  0.16609111490E+03  0.18964105588E+03  0.81247825512E+02 0.  0.
         -6    2    1    2    0  502  0.51234067498E+02  0.12840222032E+01  0.17142487040E+04  0.17230328783E+04  0.16603343695E+03 0.  0.
        -24    2    5    5    0    0  0.45669494866E+02 -0.61451638485E+02  0.10125048146E+04  0.10184526459E+04  0.78852937298E+02 0.  0.
          5    1    3    3  501    0 -0.49985742876E+02  0.40843215561E+02  0.79413874341E+01  0.65206582356E+02  0.47000000000E+01 0. -1.
        -13    1    4    4    0    0  0.12223372529E+02  0.18969331197E+02  0.17964925171E+02  0.28844148426E+02  0.00000000000E+00 0.  1.
         14    1    4    4    0    0 -0.13471697151E+02 -0.61096568961E+02  0.14812618973E+03  0.16079690745E+03  0.00000000000E+00 0. -1.
         -5    1    5    5    0  502  0.55645726317E+01  0.62735660688E+02  0.70174388941E+03  0.70458023242E+03  0.47000000000E+01 0.  1.
         13    1    6    6    0    0  0.26411997386E+01  0.55195970608E+01  0.47925792643E+03  0.47929698719E+03  0.00000000000E+00 0. -1.
        -14    1    6    6    0    0  0.43028295127E+02 -0.66971235545E+02  0.53324688816E+03  0.53915565870E+03  0.00000000000E+00 0.  1.
</event>
<event>
12    1  0.8493057E-002  0.1811876E+03  0.7818608E-02  0.1167038E+00
         21   -1    0    0  503  502  0.00000000000E+00  0.00000000000E+00  0.22821368010E+03  0.22821368010E+03  0.00000000000E+00 0. -1.
         21   -1    0    0  501  503 -0.00000000000E+00 -0.00000000000E+00 -0.42185888148E+03  0.42185888148E+03  0.00000000000E+00 0. -1.
          6    2    1    2  501    0  0.12384672489E+02  0.52757920802E+02 -0.36113141889E+03  0.40333268189E+03  0.17124418894E+03 0.  0.
         24    2    3    3    0    0 -0.76455991903E+01 -0.29592291969E+02 -0.24561041174E+03  0.25998010109E+03  0.79567704991E+02 0.  0.
         -6    2    1    2    0  502 -0.12384672489E+02 -0.52757920802E+02  0.16748621752E+03  0.24673987969E+03  0.17289348413E+03 0.  0.
        -24    2    5    5    0    0  0.42240405294E+01 -0.64473252598E+02  0.18980078867E+03  0.21619272872E+03  0.80872206295E+02 0.  0.
          5    1    3    3  501    0  0.20030271679E+02  0.82350212771E+02 -0.11552100715E+03  0.14335258079E+03  0.47000000000E+01 0. -1.
        -13    1    4    4    0    0 -0.95126352861E+01 -0.33515028811E+02 -0.35202695577E+02  0.49527539432E+02  0.00000000000E+00 0.  1.
         14    1    4    4    0    0  0.18670360959E+01  0.39227368420E+01 -0.21040771617E+03  0.21045256166E+03  0.00000000000E+00 0. -1.
         -5    1    5    5    0  502 -0.16608713018E+02  0.11715331797E+02 -0.22314571151E+02  0.30547150978E+02  0.47000000000E+01 0.  1.
         11    1    6    6    0    0 -0.30526540078E+02 -0.20291977311E+02  0.12570799365E+03  0.13094324595E+03  0.00000000000E+00 0. -1.
        -12    1    6    6    0    0  0.34750580607E+02 -0.44181275288E+02  0.64092795022E+02  0.85249482769E+02  0.00000000000E+00 0.  1.
</event>
<event>
12    1  0.8493057E-002  0.2090208E+03  0.7818608E-02  0.1144062E+00
         21   -1    0    0  501  502  0.00000000000E+00  0.00000000000E+00  0.18914994918E+03  0.18914994918E+03  0.00000000000E+00 0.  1.
         21   -1    0    0  502  503 -0.00000000000E+00 -0.00000000000E+00 -0.22366320732E+03  0.22366320732E+03  0.00000000000E+00 0.  1.
         -6    2    1    2    0  503  0.10132332709E+03  0.23571794681E+02  0.22003063186E+01  0.20059256957E+03  0.17149487311E+03 0.  0.
        -24    2    3    3    0    0  0.13075473983E+03  0.11756681233E+02 -0.29472543264E+02  0.15552523814E+03  0.78002867569E+02 0.  0.
          6    2    1    2  501    0 -0.10132332709E+03 -0.23571794681E+02 -0.36713564460E+02  0.21222058692E+03  0.18129436169E+03 0.  0.
         24    2    5    5    0    0 -0.11390551390E+02  0.51704108774E+02  0.79236535127E+01  0.86646158736E+02  0.68130118257E+02 0.  0.
          5    1    5    5  501    0 -0.89932775700E+02 -0.75275903455E+02 -0.44637217973E+02  0.12557442819E+03  0.47000000000E+01 0. -1.
        -11    1    6    6    0    0 -0.35438874060E+02  0.30724572097E+02 -0.12770278609E+02  0.48610627860E+02  0.00000000000E+00 0.  1.
         12    1    6    6    0    0  0.24048322670E+02  0.20979536677E+02  0.20693932121E+02  0.38035530877E+02  0.00000000000E+00 0. -1.
         -5    1    3    3    0  503 -0.29431412742E+02  0.11815113448E+02  0.31672849583E+02  0.45067331433E+02  0.47000000000E+01 0.  1.
         13    1    4    4    0    0  0.34296371226E+02  0.33433495823E+02 -0.30266952230E+02  0.56657992547E+02  0.00000000000E+00 0. -1.
        -14    1    4    4    0    0  0.96458368606E+02 -0.21676814590E+02  0.79440896598E+00  0.98867245590E+02  0.00000000000E+00 0.  1.
</event>
<event>
12    1  0.8493057E-002  0.2012706E+03  0.7818608E-02  0.1148792E+00
         21   -1    0    0  503  502  0.00000000000E+00  0.00000000000E+00  0.19376569115E+03  0.19376569115E+03  0.00000000000E+00 0. -1.
         21   -1    0    0  501  503 -0.00000000000E+00 -0.00000000000E+00 -0.23740922581E+03  0.23740922581E+03  0.00000000000E+00 0. -1.
          6    2    1    2  501    0 -0.10231379024E+03 -0.24083028169E+02 -0.97118984342E+02  0.22347691983E+03  0.17164420369E+03 0.  0.
         24    2    3    3    0    0 -0.66969214427E+02  0.24552725293E+02  0.32626176137E+00  0.10888049082E+03  0.82262645437E+02 0.  0.
         -6    2    1    2    0  502  0.10231379024E+03  0.24083028169E+02  0.53475449679E+02  0.20769799713E+03  0.17096996922E+03 0.  0.
        -24    2    5    5    0    0  0.10373890227E+02  0.43082173980E+02  0.62833796608E+02  0.11323328725E+03  0.83126409961E+02 0.  0.
          5    1    3    3  501    0 -0.35344575808E+02 -0.48635753462E+02 -0.97445246103E+02  0.11459642901E+03  0.47000000000E+01 0. -1.
        -11    1    4    4    0    0  0.14379741462E+02 -0.17428536011E+01  0.16408923486E+02  0.21887605469E+02  0.00000000000E+00 0.  1.
         12    1    4    4    0    0 -0.81348955889E+02  0.26295578894E+02 -0.16082661725E+02  0.86992885351E+02  0.00000000000E+00 0. -1.
         -5    1    5    5    0  502  0.91939900008E+02 -0.18999145811E+02 -0.93583469295E+01  0.94464709878E+02  0.47000000000E+01 0.  1.
         11    1    6    6    0    0  0.22804001711E+02  0.46005923645E+02  0.78014573026E+02  0.93396151467E+02  0.00000000000E+00 0. -1.
        -12    1    6    6    0    0 -0.12430111484E+02 -0.29237496645E+01 -0.15180776418E+02  0.19837135788E+02  0.00000000000E+00 0.  1.
</event>
<event>
12    1  0.8493057E-002  0.1720889E+03  0.7818608E-02  0.1175718E+00
         21   -1    0    0  501  502  0.00000000000E+00  0.00000000000E+00  0.77160148738E+02  0.77160148738E+02  0.00000000000E+00 0. -1.
         21   -1    0    0  502  503 -0.00000000000E+00 -0.00000000000E+00 -0.41402386620E+03  0.41402386620E+03  0.00000000000E+00 0. -1.
         -6    2    1    2    0  503  0.28224501420E+01  0.20986832696E+02 -0.10184394292E+03  0.19996696286E+03  0.17078110011E+03 0.  0.
        -24    2    3    3    0    0  0.48506840656E+02 -0.33158399931E+02 -0.49863493092E+02  0.11197362835E+03  0.81236275316E+02 0.  0.
          6    2    1    2  501    0 -0.28224501420E+01 -0.20986832696E+02 -0.23501977455E+03  0.29121705209E+03  0.17065949614E+03 0.  0.
         24    2    5    5    0    0 -0.23691451917E+02 -0.64560924800E+01 -0.60756306937E+02  0.11504525017E+03  0.94557467867E+02 0.  0.
          5    1    5    5  501    0  0.20869001775E+02 -0.14530740216E+02 -0.17426346761E+03  0.17617180192E+03  0.47000000000E+01 0. -1.
        -13    1    6    6    0    0 -0.60404891094E+02 -0.59674441275E+01 -0.33609150503E+02  0.69382535663E+02  0.00000000000E+00 0.  1.
         14    1    6    6    0    0  0.36713439177E+02 -0.48864835251E+00 -0.27147156435E+02  0.45662714505E+02  0.00000000000E+00 0. -1.
         -5    1    3    3    0  503 -0.45684390514E+02  0.54145232627E+02 -0.51980449823E+02  0.87993334502E+02  0.47000000000E+01 0.  1.
         11    1    4    4    0    0  0.15490087987E+02 -0.55190292908E+02 -0.43077970185E+02  0.71705109807E+02  0.00000000000E+00 0. -1.
        -12    1    4    4    0    0  0.33016752669E+02  0.22031892977E+02 -0.67855229070E+01  0.40268518548E+02  0.00000000000E+00 0.  1.
</event>
<event>
12    1  0.8493057E-002  0.2002929E+03  0.7818608E-02  0.1150225E+00
         21   -1    0    0  503  502  0.00000000000E+00  0.00000000000E+00  0.37927680565E+03  0.37927680565E+03  0.00000000000E+00 0. -1.
         21   -1    0    0  501  503 -0.00000000000E+00 -0.00000000000E+00 -0.11488102136E+03  0.11488102136E+03  0.00000000000E+00 0. -1.
          6    2    1    2  501    0  0.64054235070E+02 -0.72616047429E+02  0.20734197621E+03  0.28589743169E+03  0.17137856042E+03 0.  0.
         24    2    3    3    0    0  0.18634928570E+02  0.25198967454E+02  0.66883452802E+02  0.10874953489E+03  0.79817395081E+02 0.  0.
         -6    2    1    2    0  502 -0.64054235070E+02  0.72616047429E+02  0.57053808077E+02  0.20826039532E+03  0.17533174233E+03 0.  0.
        -24    2    5    5    0    0  0.95854823539E+01  0.93622738996E+02  0.38660801178E+02  0.12936501032E+03  0.79897118955E+02 0.  0.
          5    1    3    3  501    0  0.45419306500E+02 -0.97815014883E+02  0.14045852341E+03  0.17714789679E+03  0.47000000000E+01 0. -1.
        -13    1    4    4    0    0  0.55885168017E+01 -0.99294041871E+01  0.70210769354E+02  0.71129295798E+02  0.00000000000E+00 0.  1.
         14    1    4    4    0    0  0.13046411768E+02  0.35128371641E+02 -0.33273165516E+01  0.37620239096E+02  0.00000000000E+00 0. -1.
         -5    1    5    5    0  502 -0.73639717424E+02 -0.21006691567E+02  0.18393006899E+02  0.78895385009E+02  0.47000000000E+01 0.  1.
         11    1    6    6    0    0 -0.32030174109E+02  0.24538858234E+02  0.25273520725E+02  0.47611327085E+02  0.00000000000E+00 0. -1.
        -12    1    6    6    0    0  0.41615656463E+02  0.69083880762E+02  0.13387280452E+02  0.81753683231E+02  0.00000000000E+00 0.  1.
</event>
<event>
12    1  0.8493057E-002  0.2088004E+03  0.7818608E-02  0.1143227E+00
         21   -1    0    0  503  502  0.00000000000E+00  0.00000000000E+00  0.70989286791E+02  0.70989286791E+02  0.00000000000E+00 0. -1.
         21   -1    0    0  501  503 -0.00000000000E+00 -0.00000000000E+00 -0.61944556887E+03  0.61944556887E+03  0.00000000000E+00 0. -1.
          6    2    1    2  501    0  0.78181307227E+02  0.80090180071E+02 -0.21717838558E+03  0.29884493907E+03  0.17209036202E+03 0.  0.
         24    2    3    3    0    0  0.10470855513E+03  0.93423315282E+02 -0.13442113279E+03  0.21079767753E+03  0.81699587245E+02 0.  0.
         -6    2    1    2    0  502 -0.78181307227E+02 -0.80090180071E+02 -0.33127789650E+03  0.39158991659E+03  0.17626929490E+03 0.  0.
        -24    2    5    5    0    0 -0.60153929805E+02 -0.63763384713E+02 -0.87261302402E+02  0.14631917072E+03  0.78169689288E+02 0.  0.
          5    1    3    3  501    0 -0.26527247900E+02 -0.13333135211E+02 -0.82757252790E+02  0.88047261542E+02  0.47000000000E+01 0. -1.
        -13    1    4    4    0    0  0.13119002269E+02  0.56561677832E+02 -0.24423767563E+02  0.62990888560E+02  0.00000000000E+00 0.  1.
         14    1    4    4    0    0  0.91589552858E+02  0.36861637450E+02 -0.10999736523E+03  0.14780678897E+03  0.00000000000E+00 0. -1.
         -5    1    5    5    0  502 -0.18027377423E+02 -0.16326795359E+02 -0.24401659410E+03  0.24527074587E+03  0.47000000000E+01 0.  1.
         11    1    6    6    0    0 -0.74099613944E+02 -0.51414152285E+02 -0.90091289453E+02  0.12747787368E+03  0.00000000000E+00 0. -1.
        -12    1    6    6    0    0  0.13945684140E+02 -0.12349232427E+02  0.28299870515E+01  0.18841297046E+02  0.00000000000E+00 0.  1.
</event>
<event>
12    1  0.8493057E-002  0.1785876E+03  0.7818608E-02  0.1169560E+00
         21   -1    0    0  501  502  0.00000000000E+00  0.00000000000E+00  0.34642611639E+02  0.34642611639E+02  0.00000000000E+00 0. -1.
         21   -1    0    0  502  503 -0.00000000000E+00 -0.00000000000E+00 -0.11771178604E+04  0.11771178604E+04  0.00000000000E+00 0. -1.
         -6    2    1    2    0  503 -0.18228512831E+02  0.34000905062E+02 -0.86037113810E+03  0.87871043450E+03  0.17437084675E+03 0.  0.
        -24    2    3    3    0    0 -0.41400306248E+02 -0.10745403960E+02 -0.24424376193E+03  0.26050804219E+03  0.79874750351E+02 0.  0.
          6    2    1    2  501    0  0.18228512831E+02 -0.34000905062E+02 -0.28210411063E+03  0.33305003751E+03  0.17277516611E+03 0.  0.
         24    2    5    5    0    0 -0.23953146911E+01 -0.87833470550E+02 -0.18759130448E+03  0.22224368437E+03  0.80506531701E+02 0.  0.
          5    1    5    5  501    0  0.20623827522E+02  0.53832565488E+02 -0.94512806159E+02  0.11080635314E+03  0.47000000000E+01 0. -1.
        -13    1    6    6    0    0 -0.17085003195E+02  0.79782580111E+00 -0.81258191815E+02  0.83038711438E+02  0.00000000000E+00 0.  1.
         14    1    6    6    0    0  0.14689688504E+02 -0.88631296351E+02 -0.10633311266E+03  0.13920497293E+03  0.00000000000E+00 0. -1.
         -5    1    3    3    0  503  0.23171793417E+02  0.44746309023E+02 -0.61612737617E+03  0.61820239230E+03  0.47000000000E+01 0.  1.
         13    1    4    4    0    0 -0.29953942398E+02  0.29757677846E+02 -0.74590431110E+02  0.85711670554E+02  0.00000000000E+00 0. -1.
        -14    1    4    4    0    0 -0.11446363851E+02 -0.40503081806E+02 -0.16965333082E+03  0.17479637164E+03  0.00000000000E+00 0.  1.
</event>
<event>
12    1  0.8493057E-002  0.1770053E+03  0.7818608E-02  0.1170816E+00
         21   -1    0    0  501  502  0.00000000000E+00  0.00000000000E+00  0.61450276435E+03  0.61450276435E+03  0.00000000000E+00 0. -1.
         21   -1    0    0  502  503 -0.00000000000E+00 -0.00000000000E+00 -0.82567478205E+02  0.82567478205E+02  0.00000000000E+00 0.  1.
         -6    2    1    2    0  503 -0.39915351664E+02 -0.11056843987E+02  0.50239068299E+02  0.18399685397E+03  0.17209122345E+03 0.  0.
        -24    2    3    3    0    0 -0.89554719140E+02 -0.76501484658E+01  0.13318835273E+02  0.12186098684E+03  0.81204287128E+02 0.  0.
          6    2    1    2  501    0  0.39915351664E+02  0.11056843987E+02  0.48169621784E+03  0.51307338858E+03  0.17174855659E+03 0.  0.
         24    2    5    5    0    0  0.54999205850E+02  0.64826996654E+02  0.37382609355E+03  0.39151350338E+03  0.79431876301E+02 0.  0.
          5    1    5    5  501    0 -0.15083854186E+02 -0.53770152667E+02  0.10787012430E+03  0.12155988520E+03  0.47000000000E+01 0. -1.
        -13    1    6    6    0    0  0.12478391534E+02  0.59307632229E+02  0.12381566604E+03  0.13785290948E+03  0.00000000000E+00 0.  1.
         14    1    6    6    0    0  0.42520814316E+02  0.55193644243E+01  0.25001042751E+03  0.25366059390E+03  0.00000000000E+00 0. -1.
         -5    1    3    3    0  503  0.49639367475E+02 -0.34066955208E+01  0.36920233026E+02  0.62135867133E+02  0.47000000000E+01 0.  1.
         11    1    4    4    0    0 -0.78579218806E+02 -0.14274506106E+02  0.42151962229E+02  0.90306384450E+02  0.00000000000E+00 0. -1.
        -12    1    4    4    0    0 -0.10975500333E+02  0.66243576403E+01 -0.28833126956E+02  0.31554602386E+02  0.00000000000E+00 0.  1.
</event>
<event>
12    1  0.8493057E-002  0.1747950E+03  0.7818608E-02  0.1173446E+00
         21   -1    0    0  501  502  0.00000000000E+00  0.00000000000E+00  0.35553989383E+02  0.35553989383E+02  0.00000000000E+00 0.  1.
         21   -1    0    0  502  503 -0.00000000000E+00 -0.00000000000E+00 -0.98274638139E+03  0.98274638139E+03  0.00000000000E+00 0.  1.
         -6    2    1    2    0  503  0.35333679772E+02 -0.23017884845E+01 -0.66344583400E+03  0.68608576020E+03  0.17117105052E+03 0.  0.
        -24    2    3    3    0    0  0.39368812195E+02 -0.63004718251E+02 -0.49593536102E+03  0.50780795301E+03  0.79984604384E+02 0.  0.
          6    2    1    2  501    0 -0.35333679772E+02  0.23017884845E+01 -0.28374655800E+03  0.33221461057E+03  0.16911732952E+03 0.  0.
         24    2    5    5    0    0  0.27406858376E+02  0.31532123081E+02 -0.95632554231E+02  0.13171584249E+03  0.80362099660E+02 0.  0.
          5    1    5    5  501    0 -0.62740538148E+02 -0.29230334597E+02 -0.18811400377E+03  0.20049876808E+03  0.47000000000E+01 0. -1.
        -13    1    6    6    0    0  0.11964115457E+02 -0.16170874626E+02 -0.74735188529E+02  0.77394997573E+02  0.00000000000E+00 0.  1.
         14    1    6    6    0    0  0.15442742919E+02  0.47702997707E+02 -0.20897365702E+02  0.54320844916E+02  0.00000000000E+00 0. -1.
         -5    1    3    3    0  503 -0.40351324231E+01  0.60702929767E+02 -0.16751047299E+03  0.17827780719E+03  0.47000000000E+01 0.  1.
         11    1    4    4    0    0  0.34563072217E+02 -0.17080593217E+02 -0.74821418345E+02  0.84170049714E+02  0.00000000000E+00 0. -1.
        -12    1    4    4    0    0  0.48057399778E+01 -0.45924125034E+02 -0.42111394267E+03  0.42363790330E+03  0.00000000000E+00 0.  1.
</event>
<event>
12    1  0.8493057E-002  0.2513084E+03  0.7818608E-02  0.1112546E+00
         21   -1    0    0  501  502  0.00000000000E+00  0.00000000000E+00  0.82741488373E+03  0.82741488373E+03  0.00000000000E+00 0.  1.
         21   -1    0    0  502  503 -0.00000000000E+00 -0.00000000000E+00 -0.84652279117E+02  0.84652279117E+02  0.00000000000E+00 0.  1.
         -6    2    1    2    0  503 -0.16603620733E+03  0.75582975933E+02  0.22702759027E+03  0.33836121022E+03  0.17223813004E+03 0.  0.
        -24    2    3    3    0    0 -0.12353479961E+03  0.10027347516E+03  0.22790745616E+03  0.28897644967E+03  0.79056709729E+02 0.  0.
          6    2    1    2  501    0  0.16603620733E+03 -0.75582975933E+02  0.51573501435E+03  0.57370595263E+03  0.17284416874E+03 0.  0.
         24    2    5    5    0    0  0.43696993058E+02 -0.29880796271E+02  0.35063220496E+03  0.36314337228E+03  0.78280754286E+02 0.  0.
          5    1    5    5  501    0  0.12233921427E+03 -0.45702179661E+02  0.16510280939E+03  0.21056258035E+03  0.47000000000E+01 0. -1.
        -13    1    6    6    0    0  0.58051199826E+02 -0.31870632202E+02  0.17827369216E+03  0.19017672916E+03  0.00000000000E+00 0.  1.
         14    1    6    6    0    0 -0.14354206768E+02  0.19898359304E+01  0.17235851280E+03  0.17296664312E+03  0.00000000000E+00 0. -1.
         -5    1    3    3    0  503 -0.42501407726E+02 -0.24690499228E+02 -0.87986589064E+00  0.49384760552E+02  0.47000000000E+01 0.  1.
         11    1    4    4    0    0 -0.31801759592E+02 -0.95710700573E+01  0.30054714038E+02  0.44791105491E+02  0.00000000000E+00 0. -1.
        -12    1    4    4    0    0 -0.91733040016E+02  0.10984454522E+03  0.19785274212E+03  0.24418534418E+03  0.00000000000E+00 0.  1.
</event>
<event>
12    1  0.8493057E-002  0.1870668E+03  0.7818608E-02  0.1161502E+00
         21   -1    0    0  503  502  0.00000000000E+00  0.00000000000E+00  0.18890717167E+04  0.18890717167E+04  0.00000000000E+00 0.  1.
         21   -1    0    0  501  503 -0.00000000000E+00 -0.00000000000E+00 -0.25280940655E+02  0.25280940655E+02  0.00000000000E+00 0.  1.
          6    2    1    2  501    0 -0.49173237630E+02 -0.51657503606E+02  0.42844499599E+03  0.46686811916E+03  0.17121396299E+03 0.  0.
         24    2    3    3    0    0 -0.73495377395E+02 -0.68477896516E+02  0.20868665245E+03  0.24507922932E+03  0.80143102793E+02 0.  0.
         -6    2    1    2    0  502  0.49173237630E+02  0.51657503606E+02  0.14353457800E+04  0.14474845382E+04  0.17293777785E+03 0.  0.
        -24    2    5    5    0    0  0.57022964220E+02  0.95959506502E+02  0.12086738853E+04  0.12163427558E+04  0.78340879432E+02 0.  0.
          5    1    3    3  501    0  0.24322139765E+02  0.16820392910E+02  0.21975834354E+03  0.22178888984E+03  0.47000000000E+01 0. -1.
        -11    1    4    4    0    0 -0.57891193160E+02 -0.87945573377E+00  0.11197064626E+03  0.12605391430E+03  0.00000000000E+00 0.  1.
         12    1    4    4    0    0 -0.15604184235E+02 -0.67598440782E+02  0.96716006195E+02  0.11902531502E+03  0.00000000000E+00 0. -1.
         -5    1    5    5    0  502 -0.78497265902E+01 -0.44302002896E+02  0.22667189476E+03  0.23114178234E+03  0.47000000000E+01 0.  1.
         13    1    6    6    0    0  0.17514574170E+02  0.45357739887E+02  0.20782112722E+03  0.21343314128E+03  0.00000000000E+00 0. -1.
        -14    1    6    6    0    0  0.39508390050E+02  0.50601766616E+02  0.10008527580E+04  0.10029096145E+04  0.00000000000E+00 0.  1.
</event>
<event>
12    1  0.8493057E-002  0.2256431E+03  0.7818608E-02  0.1129914E+00
         21   -1    0    0  503  502  0.00000000000E+00  0.00000000000E+00  0.26163411308E+03  0.26163411308E+03  0.00000000000E+00 0. -1.
         21   -1    0    0  501  503 -0.00000000000E+00 -0.00000000000E+00 -0.49721936233E+03  0.49721936233E+03  0.00000000000E+00 0.  1.
          6    2    1    2  501    0  0.85222487658E+02  0.11777541737E+03 -0.41428853008E+03  0.47175182019E+03  0.17257135439E+03 0.  0.
         24    2    3    3    0    0  0.26404458556E+02  0.79914371449E+02 -0.11200668891E+03  0.16144645310E+03  0.80224414370E+02 0.  0.
         -6    2    1    2    0  502 -0.85222487658E+02 -0.11777541737E+03  0.17870328083E+03  0.28710165522E+03  0.17134344608E+03 0.  0.
        -24    2    5    5    0    0 -0.93017569407E+02 -0.20765602449E+02  0.69329311971E+02  0.14062154547E+03  0.76709758749E+02 0.  0.
          5    1    3    3  501    0  0.58818029101E+02  0.37861045925E+02 -0.30228184116E+03  0.31030536709E+03  0.47000000000E+01 0. -1.
        -13    1    4    4    0    0  0.28670364748E+02  0.93892529236E+02 -0.80691496536E+02  0.12707837926E+03  0.00000000000E+00 0.  1.
         14    1    4    4    0    0 -0.22659061917E+01 -0.13978157787E+02 -0.31315192378E+02  0.34368073843E+02  0.00000000000E+00 0. -1.
         -5    1    5    5    0  502  0.77950817492E+01 -0.97009814925E+02  0.10937396885E+03  0.14648010976E+03  0.47000000000E+01 0.  1.
         11    1    6    6    0    0 -0.15471752360E+01 -0.30140234736E+02  0.13607223960E+02  0.33105649745E+02  0.00000000000E+00 0. -1.
        -12    1    6    6    0    0 -0.91470394171E+02  0.93746322872E+01  0.55722088011E+02  0.10751589572E+03  0.00000000000E+00 0.  1.
</event>
<event>
12    1  0.8493057E-002  0.1982110E+03  0.7818608E-02  0.1151783E+00
         21   -1    0    0  501  502  0.00000000000E+00  0.00000000000E+00  0.92766750457E+02  0.92766750457E+02  0.00000000000E+00 0.  1.
         21   -1    0    0  502  503 -0.00000000000E+00 -0.00000000000E+00 -0.83672718510E+03  0.83672718510E+03  0.00000000000E+00 0.  1.
         -6    2    1    2    0  503  0.92791392136E+02 -0.12296445438E+02 -0.70178475839E+03  0.72923894137E+03  0.17471731879E+03 0.  0.
        -24    2    3    3    0    0 -0.37011691256E+01 -0.31437776724E+02 -0.46435682779E+03  0.47219552643E+03  0.79619841736E+02 0.  0.
          6    2    1    2  501    0 -0.92791392136E+02  0.12296445438E+02 -0.42175676258E+02  0.20025499419E+03  0.17193554026E+03 0.  0.
         24    2    5    5    0    0 -0.13055038111E+03  0.13264743862E+02 -0.16520281165E+02  0.15435327148E+03  0.79577995017E+02 0.  0.
          5    1    5    5  501    0  0.37758988970E+02 -0.96829842397E+00 -0.25655395093E+02  0.45901722704E+02  0.47000000000E+01 0. -1.
        -13    1    6    6    0    0 -0.56062072740E+02 -0.27658321548E+02 -0.28173148380E+02  0.68568688484E+02  0.00000000000E+00 0.  1.
         14    1    6    6    0    0 -0.74488308366E+02  0.40923065411E+02  0.11652867215E+02  0.85784582998E+02  0.00000000000E+00 0. -1.
         -5    1    3    3    0  503  0.96492561262E+02  0.19141331285E+02 -0.23742793059E+03  0.25704341495E+03  0.47000000000E+01 0.  1.
         11    1    4    4    0    0 -0.89023470492E+00  0.11232556915E+02 -0.79506926859E+01  0.13790444767E+02  0.00000000000E+00 0. -1.
        -12    1    4    4    0    0 -0.28109344207E+01 -0.42670333639E+02 -0.45640613511E+03  0.45840508166E+03  0.00000000000E+00 0.  1.
</event>
<event>
12    1  0.8493057E-002  0.1817273E+03  0.7818608E-02  0.1166389E+00
         21   -1    0    0  501  502  0.00000000000E+00  0.00000000000E+00  0.68381929090E+02  0.68381929090E+02  0.00000000000E+00 0.  1.
         21   -1    0    0  502  503 -0.00000000000E+00 -0.00000000000E+00 -0.14286381600E+04  0.14286381600E+04  0.00000000000E+00 0.  1.
         -6    2    1    2    0  503 -0.45339564640E+01 -0.54838157244E+02 -0.12906504127E+04  0.13033814862E+04  0.17319650842E+03 0.  0.
        -24    2    3    3    0    0  0.35600677756E+02 -0.75682971058E+02 -0.74532222657E+03  0.75616104094E+03  0.96327452232E+02 0.  0.
          6    2    1    2  501    0  0.45339564640E+01  0.54838157244E+02 -0.69605818159E+02  0.19363860283E+03  0.17211379473E+03 0.  0.
         24    2    5    5    0    0  0.53421685186E+02  0.56817613339E+02 -0.30735464236E+01  0.11091882619E+03  0.78812573119E+02 0.  0.
          5    1    5    5  501    0 -0.48887728722E+02 -0.19794560948E+01 -0.66532271736E+02  0.82719776646E+02  0.47000000000E+01 0. -1.
        -13    1    6    6    0    0 -0.11882308088E+01  0.55977661468E+02 -0.54205389482E+01  0.56252046348E+02  0.00000000000E+00 0.  1.
         14    1    6    6    0    0  0.54609915995E+02  0.83995187106E+00  0.23469925246E+01  0.54666779840E+02  0.00000000000E+00 0. -1.
         -5    1    3    3    0  503 -0.40134634220E+02  0.20844813813E+02 -0.54532818616E+03  0.54722044529E+03  0.47000000000E+01 0.  1.
         13    1    4    4    0    0  0.21685130017E+02  0.14401822519E+02 -0.69427108329E+02  0.74147021024E+02  0.00000000000E+00 0. -1.
        -14    1    4    4    0    0  0.13915547739E+02 -0.90084793576E+02 -0.67589511824E+03  0.68201401992E+03  0.00000000000E+00 0.  1.
</event>
<event>
12    1  0.8493057E-002  0.1738029E+03  0.7818608E-02  0.1174416E+00
         21   -1    0    0  501  502  0.00000000000E+00  0.00000000000E+00  0.74115735433E+03  0.74115735433E+03  0.00000000000E+00 0. -1.
         21   -1    0    0  502  503 -0.00000000000E+00 -0.00000000000E+00 -0.59276504101E+02  0.59276504101E+02  0.00000000000E+00 0. -1.
         -6    2    1    2    0  503  0.21205188974E+02 -0.44901243557E-02  0.11335952740E+03  0.20593915358E+03  0.17061914449E+03 0.  0.
        -24    2    3    3    0    0  0.75645014591E+02 -0.19196070278E+01  0.47697121385E+02  0.12049324174E+03  0.80732600563E+02 0.  0.
          6    2    1    2  501    0 -0.21205188974E+02  0.44901243557E-02  0.56852132283E+03  0.59449470485E+03  0.17250449132E+03 0.  0.
         24    2    5    5    0    0 -0.61900492153E+02  0.39153984583E+02  0.29106225419E+03  0.31130851983E+03  0.82650186132E+02 0.  0.
          5    1    5    5  501    0  0.40695303179E+02 -0.39149494459E+02  0.27745906864E+03  0.28318618502E+03  0.47000000000E+01 0. -1.
        -13    1    6    6    0    0 -0.26607890252E+02 -0.49080886150E+01  0.18060316033E+02  0.32530665113E+02  0.00000000000E+00 0.  1.
         14    1    6    6    0    0 -0.35292601902E+02  0.44062073198E+02  0.27300193815E+03  0.27877785472E+03  0.00000000000E+00 0. -1.
         -5    1    3    3    0  503 -0.54439825617E+02  0.19151169035E+01  0.65662406020E+02  0.85445911840E+02  0.47000000000E+01 0.  1.
         13    1    4    4    0    0  0.47343543227E+02 -0.11814705000E+02 -0.14955994382E+02  0.51036066732E+02  0.00000000000E+00 0. -1.
        -14    1    4    4    0    0  0.28301471364E+02  0.98950979723E+01  0.62653115767E+02  0.69457175011E+02  0.00000000000E+00 0.  1.
</event>
<event>
12    1  0.8493057E-002  0.2185589E+03  0.7818608E-02  0.1135226E+00
         21   -1    0    0  501  502  0.00000000000E+00  0.00000000000E+00  0.23050933002E+04  0.23050933002E+04  0.00000000000E+00 0. -1.
         21   -1    0    0  502  503 -0.00000000000E+00 -0.00000000000E+00 -0.26201645059E+02  0.26201645059E+02  0.00000000000E+00 0. -1.
         -6    2    1    2    0  503 -0.10194244032E+03 -0.83531577525E+02  0.16759933749E+04  0.16900037964E+04  0.17259563551E+03 0.  0.
        -24    2    3    3    0    0 -0.12620273044E+03 -0.99670361621E+02  0.12340143730E+04  0.12470404230E+04  0.80355669514E+02 0.  0.
          6    2    1    2  501    0  0.10194244032E+03  0.83531577525E+02  0.60289828021E+03  0.64129114887E+03  0.17435084101E+03 0.  0.
         24    2    5    5    0    0  0.84546833872E+02 -0.13473887889E+02  0.26749948601E+03  0.29168121109E+03  0.78690794357E+02 0.  0.
          5    1    5    5  501    0  0.17395606449E+02  0.97005465414E+02  0.33539879420E+03  0.34960993778E+03  0.47000000000E+01 0. -1.
        -11    1    6    6    0    0 -0.88788799359E+01  0.15237252810E+02  0.29132673579E+02  0.34054677387E+02  0.00000000000E+00 0.  1.
         12    1    6    6    0    0  0.93425713808E+02 -0.28711140698E+02  0.23836681243E+03  0.25762653370E+03  0.00000000000E+00 0. -1.
         -5    1    3    3    0  503  0.24260290119E+02  0.16138784095E+02  0.44197900188E+03  0.44296337336E+03  0.47000000000E+01 0.  1.
         11    1    4    4    0    0 -0.80634489878E+02 -0.10425983856E+03  0.99346214712E+03  0.10021671880E+04  0.00000000000E+00 0. -1.
        -12    1    4    4    0    0 -0.45568240563E+02  0.45894769396E+01  0.24055222591E+03  0.24487323504E+03  0.00000000000E+00 0.  1.
</event>
<event>
12    1  0.8493057E-002  0.1917813E+03  0.7818608E-02  0.1157012E+00
         21   -1    0    0  503  502  0.00000000000E+00  0.00000000000E+00  0.22135812756E+03  0.22135812756E+03  0.00000000000E+00 0. -1.
         21   -1    0    0  501  503 -0.00000000000E+00 -0.00000000000E+00 -0.23400261760E+03  0.23400261760E+03  0.00000000000E+00 0.  1.
          6    2    1    2  501    0 -0.45674670543E+02  0.70840911595E+02 -0.12942627528E+03  0.23082112893E+03  0.17153023798E+03 0.  0.
         24    2    3    3    0    0 -0.30760546897E+02  0.65447254510E+02 -0.16075889339E+03  0.19539027263E+03  0.84287498855E+02 0.  0.
         -6    2    1    2    0  502  0.45674670543E+02 -0.70840911595E+02  0.11678178525E+03  0.22453961624E+03  0.17226561935E+03 0.  0.
        -24    2    5    5    0    0  0.53364566458E+02 -0.26159547296E+01  0.12227936922E+03  0.15550272271E+03  0.79838790451E+02 0.  0.
          5    1    3    3  501    0 -0.14914123646E+02  0.53936570843E+01  0.31332618111E+02  0.35430856305E+02  0.47000000000E+01 0. -1.
        -13    1    4    4    0    0 -0.15618074956E+02  0.81724482503E+02 -0.96620413646E+02  0.12750811597E+03  0.00000000000E+00 0.  1.
         14    1    4    4    0    0 -0.15142471941E+02 -0.16277227992E+02 -0.64138479748E+02  0.67882156653E+02  0.00000000000E+00 0. -1.
         -5    1    5    5    0  502 -0.76898959152E+01 -0.68224956865E+02 -0.54975839720E+01  0.69036893528E+02  0.47000000000E+01 0.  1.
         11    1    6    6    0    0 -0.65924362537E+01 -0.29341108662E+02  0.44750377495E+02  0.53916204978E+02  0.00000000000E+00 0. -1.
        -12    1    6    6    0    0  0.59957002711E+02  0.26725153932E+02  0.77528991723E+02  0.10158651773E+03  0.00000000000E+00 0.  1.
</event>
<event>
12    1  0.8493057E-002  0.2457163E+03  0.7818608E-02  0.1116156E+00
         21   -1    0    0  503  502  0.00000000000E+00  0.00000000000E+00  0.41878076242E+03  0.41878076242E+03  0.00000000000E+00 0. -1.
         21   -1    0    0  501  503 -0.00000000000E+00 -0.00000000000E+00 -0.20767221544E+03  0.20767221544E+03  0.00000000000E+00 0. -1.
          6    2    1    2  501    0 -0.16345422984E+03 -0.63182273281E+02 -0.68106344913E+02  0.25498035886E+03  0.17224176113E+03 0.  0.
         24    2    3    3    0    0 -0.17622717790E+03 -0.80339933438E+02 -0.86628137647E+02  0.22629795466E+03  0.78713448127E+02 0.  0.
         -6    2    1    2    0  502  0.16345422984E+03  0.63182273281E+02  0.27921489190E+03  0.37147261900E+03  0.17123570276E+03 0.  0.
        -24    2    5    5    0    0  0.11599423588E+03  0.90289547258E+02  0.25854199658E+03  0.31284912602E+03  0.97075983389E+02 0.  0.
          5    1    3    3  501    0  0.12772948065E+02  0.17157660157E+02  0.18521792735E+02  0.28682404196E+02  0.47000000000E+01 0. -1.
        -11    1    4    4    0    0 -0.87379718766E+02  0.27270699254E+01 -0.37187770042E+02  0.95003065228E+02  0.00000000000E+00 0.  1.
         12    1    4    4    0    0 -0.88847459137E+02 -0.83067003364E+02 -0.49440367606E+02  0.13129488944E+03  0.00000000000E+00 0. -1.
         -5    1    5    5    0  502  0.47459993956E+02 -0.27107273977E+02  0.20672895316E+02  0.58623492983E+02  0.47000000000E+01 0.  1.
         11    1    6    6    0    0  0.12158621591E+03  0.56851352077E+02  0.23791554754E+03  0.27316495363E+03  0.00000000000E+00 0. -1.
        -12    1    6    6    0    0 -0.55919800322E+01  0.33438195181E+02  0.20626449047E+02  0.39684172386E+02  0.00000000000E+00 0.  1.
</event>
<event>
12    1  0.8493057E-002  0.3382815E+03  0.7818608E-02  0.1067630E+00
         21   -1    0    0  503  502  0.00000000000E+00  0.00000000000E+00  0.27056269964E+04  0.27056269964E+04  0.00000000000E+00 0. -1.
         21   -1    0    0  501  503 -0.00000000000E+00 -0.00000000000E+00 -0.48862876465E+02  0.48862876465E+02  0.00000000000E+00 0.  1.
          6    2    1    2  501    0 -0.84909909092E+02 -0.27832406157E+03  0.82057267223E+03  0.88756628734E+03  0.17251211001E+03 0.  0.
         24    2    3    3    0    0 -0.52509301360E+02 -0.52199488753E+02  0.22348148745E+03  0.24825251871E+03  0.78761186245E+02 0.  0.
         -6    2    1    2    0  502  0.84909909092E+02  0.27832406157E+03  0.18361914477E+04  0.18669235855E+04  0.17067708004E+03 0.  0.
        -24    2    5    5    0    0  0.32843546673E+02  0.45000089255E+02  0.61265517212E+03  0.62024235528E+03  0.79060184521E+02 0.  0.
          5    1    3    3  501    0 -0.32400607732E+02 -0.22612457282E+03  0.59709118478E+03  0.63931376863E+03  0.47000000000E+01 0. -1.
        -13    1    4    4    0    0 -0.44568542987E+02 -0.72738025480E+02  0.18869867572E+03  0.20708540652E+03  0.00000000000E+00 0.  1.
         14    1    4    4    0    0 -0.79407583725E+01  0.20538536727E+02  0.34782811723E+02  0.41167112187E+02  0.00000000000E+00 0. -1.
         -5    1    5    5    0  502  0.52066362418E+02  0.23332397232E+03  0.12235362756E+04  0.12466812303E+04  0.47000000000E+01 0.  1.
         11    1    6    6    0    0  0.28659057689E+02  0.59423573101E+02  0.29740217427E+03  0.30463183663E+03  0.00000000000E+00 0. -1.
        -12    1    6    6    0    0  0.41844889842E+01 -0.14423483846E+02  0.31525299785E+03  0.31561051866E+03  0.00000000000E+00 0.  1.
</event>
<event>
12    1  0.8493057E-002  0.2768250E+03  0.7818608E-02  0.1097557E+00
         21   -1    0    0  503  502  0.00000000000E+00  0.00000000000E+00  0.16724182061E+04  0.16724182061E+04  0.00000000000E+00 0.  1.
         21   -1    0    0  501  503 -0.00000000000E+00 -0.00000000000E+00 -0.14757613597E+03  0.14757613597E+03  0.00000000000E+00 0. -1.
          6    2    1    2  501    0 -0.39264891265E+02 -0.21195330737E+03  0.58809287484E+01  0.27601408536E+03  0.17228828690E+03 0.  0.
         24    2    3    3    0    0 -0.73326970221E+02 -0.15783227684E+03  0.39479965528E+02  0.20362419352E+03  0.98062593958E+02 0.  0.
         -6    2    1    2    0  502  0.39264891265E+02  0.21195330737E+03  0.15189611414E+04  0.15439802567E+04  0.17368404614E+03 0.  0.
        -24    2    5    5    0    0 -0.32593882149E+02  0.83435209047E+02  0.47906435966E+03  0.49370029806E+03  0.78825936980E+02 0.  0.
          5    1    3    3  501    0  0.34062078956E+02 -0.54121030532E+02 -0.33599036779E+02  0.72389891844E+02  0.47000000000E+01 0. -1.
        -13    1    4    4    0    0 -0.17257781435E+02 -0.66605570923E+01  0.38133909470E+02  0.42383830552E+02  0.00000000000E+00 0.  1.
         14    1    4    4    0    0 -0.56069188786E+02 -0.15117171975E+03  0.13460560580E+01  0.16124036297E+03  0.00000000000E+00 0. -1.
         -5    1    5    5    0  502  0.71858773413E+02  0.12851809833E+03  0.10398967817E+04  0.10502799586E+04  0.47000000000E+01 0.  1.
         13    1    6    6    0    0 -0.21314846122E+01  0.23905426994E+02  0.24694227385E+02  0.34435701424E+02  0.00000000000E+00 0. -1.
        -14    1    6    6    0    0 -0.30462397537E+02  0.59529782053E+02  0.45437013228E+03  0.45926459663E+03  0.00000000000E+00 0.  1.
</event>
<event>
12    1  0.8493057E-002  0.1776948E+03  0.7818608E-02  0.1171068E+00
         21   -1    0    0  501  502  0.00000000000E+00  0.00000000000E+00  0.17847337863E+03  0.17847337863E+03  0.00000000000E+00 0.  1.
         21   -1    0    0  502  503 -0.00000000000E+00 -0.00000000000E+00 -0.23189067592E+03  0.23189067592E+03  0.00000000000E+00 0. -1.
         -6    2    1    2    0  503 -0.67094500967E+01  0.28599951043E+02 -0.12997250715E+03  0.21687986239E+03  0.17111705985E+03 0.  0.
        -24    2    3    3    0    0  0.45254061460E+02 -0.26744041349E+02 -0.87285048996E+02  0.12965903282E+03  0.80184856341E+02 0.  0.
          6    2    1    2  501    0  0.67094500967E+01 -0.28599951043E+02  0.76555209855E+02  0.19348419216E+03  0.17524970340E+03 0.  0.
         24    2    5    5    0    0 -0.61131372490E+02 -0.38176739425E+02  0.55963218261E+02  0.12178891894E+03  0.80660714367E+02 0.  0.
          5    1    5    5  501    0  0.67840822586E+02  0.95767883822E+01  0.20591991594E+02  0.71695273225E+02  0.47000000000E+01 0. -1.
        -13    1    6    6    0    0 -0.62178098669E+01 -0.47342355889E+02  0.43816081252E+02  0.64805931804E+02  0.00000000000E+00 0.  1.
         14    1    6    6    0    0 -0.54913562623E+02  0.91656164640E+01  0.12147137009E+02  0.56982987133E+02  0.00000000000E+00 0. -1.
         -5    1    3    3    0  503 -0.51963511556E+02  0.55343992392E+02 -0.42687458158E+02  0.87220829572E+02  0.47000000000E+01 0.  1.
         13    1    4    4    0    0 -0.42559371605E+01 -0.41564253107E+02 -0.24863163026E+02  0.48619718357E+02  0.00000000000E+00 0. -1.
        -14    1    4    4    0    0  0.49509998620E+02  0.14820211759E+02 -0.62421885970E+02  0.81039314459E+02  0.00000000000E+00 0.  1.
</event>
<event>
12    1  0.8493057E-002  0.2057708E+03  0.7818608E-02  0.1145880E+00
         21   -1    0    0  503  502  0.00000000000E+00  0.00000000000E+00  0.32606645169E+03  0.32606645169E+03  0.00000000000E+00 0.  1.
         21   -1    0    0  501  503 -0.00000000000E+00 -0.00000000000E+00 -0.12704852830E+03  0.12704852830E+03  0.00000000000E+00 0.  1.
          6    2    1    2  501    0 -0.14968169096E+02 -0.10470782082E+03  0.98083427484E+02  0.22392205204E+03  0.17126865684E+03 0.  0.
         24    2    3    3    0    0  0.79343624091E+01 -0.13891098893E+03  0.78468597409E+02  0.17808304882E+03  0.78721245828E+02 0.  0.
         -6    2    1    2    0  502  0.14968169096E+02  0.10470782082E+03  0.10093449591E+03  0.22919292795E+03  0.17650453799E+03 0.  0.
        -24    2    5    5    0    0 -0.47143301008E+02  0.80718830622E+02  0.10673875688E+03  0.16219228754E+03  0.78582157464E+02 0.  0.
          5    1    3    3  501    0 -0.22902531505E+02  0.34203168103E+02  0.19614830074E+02  0.45839003223E+02  0.47000000000E+01 0. -1.
        -13    1    4    4    0    0 -0.18106261736E+00 -0.49016827678E+00 -0.12329678900E+02  0.12340746752E+02  0.00000000000E+00 0.  1.
         14    1    4    4    0    0  0.81154250264E+01 -0.13842082065E+03  0.90798276309E+02  0.16574230206E+03  0.00000000000E+00 0. -1.
         -5    1    5    5    0  502  0.62111470104E+02  0.23988990202E+02 -0.58042609722E+01  0.67000640406E+02  0.47000000000E+01 0.  1.
         11    1    6    6    0    0 -0.94156849230E+01  0.82810782992E+02  0.63559101367E+02  0.10481431328E+03  0.00000000000E+00 0. -1.
        -12    1    6    6    0    0 -0.37727616085E+02 -0.20919523701E+01  0.43179655513E+02  0.57377974262E+02  0.00000000000E+00 0.  1.
</event>
<event>
12    1  0.8493057E-002  0.1796267E+03  0.7818608E-02  0.1168397E+00
         21   -1    0    0  501  502  0.00000000000E+00  0.00000000000E+00  0.11444910460E+03  0.11444910460E+03  0.00000000000E+00 0.  1.
         21   -1    0    0  502  503 -0.00000000000E+00 -0.00000000000E+00 -0.28042361647E+03  0.28042361647E+03  0.00000000000E+00 0.  1.
         -6    2    1    2    0  503 -0.89750611267E+01 -0.50487722719E+02 -0.83114235458E+02  0.19792351996E+03  0.17215162430E+03 0.  0.
        -24    2    3    3    0    0 -0.10340058616E+02 -0.37919324073E+02 -0.12381360886E+03  0.15504745603E+03  0.84646984190E+02 0.  0.
          6    2    1    2  501    0  0.89750611267E+01  0.50487722719E+02 -0.82860276415E+02  0.19694920111E+03  0.17115373365E+03 0.  0.
         24    2    5    5    0    0 -0.22837438162E+01  0.54635856048E+02 -0.12173449766E+03  0.15599480238E+03  0.80776222969E+02 0.  0.
          5    1    5    5  501    0  0.11258804943E+02 -0.41481333287E+01  0.38874221241E+02  0.40954398737E+02  0.47000000000E+01 0. -1.
        -11    1    6    6    0    0  0.35798887336E+02  0.45012471380E+02 -0.81659638808E+02  0.99879825413E+02  0.00000000000E+00 0.  1.
         12    1    6    6    0    0 -0.38082631153E+02  0.96233846681E+01 -0.40074858847E+02  0.56114976963E+02  0.00000000000E+00 0. -1.
         -5    1    3    3    0  503  0.13649974893E+01 -0.12568398647E+02  0.40699373402E+02  0.42876063929E+02  0.47000000000E+01 0.  1.
         13    1    4    4    0    0  0.26700242225E+02  0.97056574359E+01 -0.64320498369E+02  0.70315213372E+02  0.00000000000E+00 0. -1.
        -14    1    4    4    0    0 -0.37040300841E+02 -0.47624981508E+02 -0.59493110491E+02  0.84732242659E+02  0.00000000000E+00 0.  1.
</event>
<event>
12    1  0.8493057E-002  0.2007694E+03  0.7818608E-02  0.1149175E+00
         21   -1    0    0  503  502  0.00000000000E+00  0.00000000000E+00  0.57988153040E+03  0.57988153040E+03  0.00000000000E+00 0. -1.
         21   -1    0    0  501  503 -0.00000000000E+00 -0.00000000000E+00 -0.84818050745E+02  0.84818050745E+02  0.00000000000E+00 0.  1.
          6    2    1    2  501    0 -0.95533082573E+02  0.35728184078E+02  0.10591214235E+03  0.22699282829E+03  0.17293145809E+03 0.  0.
         24    2    3    3    0    0  0.19396462026E+02  0.21846441302E+02  0.34159471435E+02  0.90713560657E+02  0.78794611882E+02 0.  0.
         -6    2    1    2    0  502  0.95533082573E+02 -0.35728184078E+02  0.38915133730E+03  0.43770675285E+03  0.17246844686E+03 0.  0.
        -24    2    5    5    0    0  0.68942155020E+02 -0.21167093595E+02  0.39215679124E+03  0.40688102435E+03  0.81019457357E+02 0.  0.
          5    1    3    3  501    0 -0.11492954460E+03  0.13881742776E+02  0.71752670917E+02  0.13627926764E+03  0.47000000000E+01 0. -1.
        -13    1    4    4    0    0  0.13852225434E+02  0.49461655164E+02  0.74598307184E+01  0.51903646841E+02  0.00000000000E+00 0.  1.
         14    1    4    4    0    0  0.55442365924E+01 -0.27615213862E+02  0.26699640717E+02  0.38809913816E+02  0.00000000000E+00 0. -1.
         -5    1    5    5    0  502  0.26590927553E+02 -0.14561090483E+02 -0.30054539365E+01  0.30825728500E+02  0.47000000000E+01 0.  1.
         11    1    6    6    0    0  0.82185553072E+02  0.19702478209E+00  0.27303422970E+03  0.28513539685E+03  0.00000000000E+00 0. -1.
        -12    1    6    6    0    0 -0.13243398052E+02 -0.21364118377E+02  0.11912256154E+03  0.12174562750E+03  0.00000000000E+00 0.  1.
</event>
<event>
12    1  0.8493057E-002  0.2411799E+03  0.7818608E-02  0.1119567E+00
         21   -1    0    0  501  502  0.00000000000E+00  0.00000000000E+00  0.28601014429E+03  0.28601014429E+03  0.00000000000E+00 0.  1.
         21   -1    0    0  502  503 -0.00000000000E+00 -0.00000000000E+00 -0.26182314972E+03  0.26182314972E+03  0.00000000000E+00 0.  1.
         -6    2    1    2    0  503  0.41743255123E+01  0.17014427392E+03 -0.12046290010E+03  0.26660150048E+03  0.16612811567E+03 0.  0.
        -24    2    3    3    0    0 -0.20121426376E+02  0.22762708004E+02 -0.62902568694E+02  0.10645503226E+03  0.80330119324E+02 0.  0.
          6    2    1    2  501    0 -0.41743255123E+01 -0.17014427392E+03  0.14464989467E+03  0.28123179354E+03  0.17088367601E+03 0.  0.
         24    2    5    5    0    0 -0.22625733730E+02 -0.17557374769E+03  0.16384173766E+03  0.25365734000E+03  0.78484816569E+02 0.  0.
          5    1    5    5  501    0  0.18451408218E+02  0.54294737753E+01 -0.19191842985E+02  0.27574453537E+02  0.47000000000E+01 0. -1.
        -11    1    6    6    0    0 -0.11035526437E+02 -0.10931311919E+03  0.14839350496E+03  0.18463957643E+03  0.00000000000E+00 0.  1.
         12    1    6    6    0    0 -0.11590207293E+02 -0.66260628501E+02  0.15448232699E+02  0.69017763568E+02  0.00000000000E+00 0. -1.
         -5    1    3    3    0  503  0.24295751889E+02  0.14738156591E+03 -0.57560331405E+02  0.16014646822E+03  0.47000000000E+01 0.  1.
         13    1    4    4    0    0 -0.37064606836E+02  0.18238174835E+02 -0.16144134713E+00  0.41309105105E+02  0.00000000000E+00 0. -1.
        -14    1    4    4    0    0  0.16943180460E+02  0.45245331689E+01 -0.62741127347E+02  0.65145927158E+02  0.00000000000E+00 0.  1.
</event>
<event>
12    1  0.8493057E-002  0.2672923E+03  0.7818608E-02  0.1103010E+00
         21   -1    0    0  503  502  0.00000000000E+00  0.00000000000E+00  0.11542240126E+03  0.11542240126E+03  0.00000000000E+00 0.  1.
         21   -1    0    0  501  503 -0.00000000000E+00 -0.00000000000E+00 -0.77869646656E+03  0.77869646656E+03  0.00000000000E+00 0. -1.
          6    2    1    2  501    0  0.12746088737E+03 -0.15841830530E+03 -0.12804151720E+03  0.29637782627E+03  0.17350086027E+03 0.  0.
         24    2    3    3    0    0  0.65128048439E+02 -0.17338661837E+03 -0.83776763350E+02  0.21833366161E+03  0.79664669655E+02 0.  0.
         -6    2    1    2    0  502 -0.12746088737E+03  0.15841830530E+03 -0.53523254810E+03  0.59774104154E+03  0.17169110326E+03 0.  0.
        -24    2    5    5    0    0 -0.77965943265E+02  0.16447539716E+03 -0.31354230680E+03  0.37046347789E+03  0.76181137542E+02 0.  0.
          5    1    3    3  501    0  0.62332838926E+02  0.14968313063E+02 -0.44264753851E+02  0.78044164664E+02  0.47000000000E+01 0. -1.
        -13    1    4    4    0    0  0.35305750150E+02 -0.83598844739E+02  0.17935378595E+01  0.90766070827E+02  0.00000000000E+00 0.  1.
         14    1    4    4    0    0  0.29822298289E+02 -0.89787773626E+02 -0.85570301209E+02  0.12756759078E+03  0.00000000000E+00 0. -1.
         -5    1    5    5    0  502 -0.49494944100E+02 -0.60570918561E+01 -0.22169024130E+03  0.22727756366E+03  0.47000000000E+01 0.  1.
         13    1    6    6    0    0 -0.89350503692E+02  0.16164502904E+03 -0.30203447573E+03  0.35403029878E+03  0.00000000000E+00 0. -1.
        -14    1    6    6    0    0  0.11384560427E+02  0.28303681214E+01 -0.11507831066E+02  0.16433179110E+02  0.00000000000E+00 0.  1.
</event>
<event>
12    1  0.8493057E-002  0.1807482E+03  0.7818608E-02  0.1167667E+00
         21   -1    0    0  501  502  0.00000000000E+00  0.00000000000E+00  0.17490497025E+03  0.17490497025E+03  0.00000000000E+00 0.  1.
         21   -1    0    0  502  503 -0.00000000000E+00 -0.00000000000E+00 -0.21040445214E+03  0.21040445214E+03  0.00000000000E+00 0. -1.
         -6    2    1    2    0  503  0.36137392104E+02  0.30088521988E+02 -0.85719964564E+02  0.20004451708E+03  0.17452411359E+03 0.  0.
        -24    2    3    3    0    0  0.10562843471E+02 -0.47004369874E+02 -0.21042555421E+02  0.96108821735E+02  0.80455776842E+02 0.  0.
          6    2    1    2  501    0 -0.36137392104E+02 -0.30088521988E+02  0.50220482672E+02  0.18526490530E+03  0.17201673754E+03 0.  0.
         24    2    5    5    0    0  0.34690979623E+02 -0.85043813867E+01 -0.12814429989E+02  0.87909763778E+02  0.79297719901E+02 0.  0.
          5    1    5    5  501    0 -0.70828371727E+02 -0.21584140601E+02  0.63034912661E+02  0.97355141524E+02  0.47000000000E+01 0. -1.
        -11    1    6    6    0    0  0.17593118803E+02  0.76586586524E+01  0.31990004962E+02  0.37303261239E+02  0.00000000000E+00 0.  1.
         12    1    6    6    0    0  0.17097860820E+02 -0.16163040039E+02 -0.44804434951E+02  0.50606502539E+02  0.00000000000E+00 0. -1.
         -5    1    3    3    0  503  0.25574548632E+02  0.77092891862E+02 -0.64677409143E+02  0.10393569535E+03  0.47000000000E+01 0.  1.
         11    1    4    4    0    0  0.56371022913E+01  0.44419374526E+01 -0.40316438807E+02  0.40950249922E+02  0.00000000000E+00 0. -1.
        -12    1    4    4    0    0  0.49257411801E+01 -0.51446307326E+02  0.19273883386E+02  0.55158571813E+02  0.00000000000E+00 0.  1.
</event>
<event>
12    1  0.8493057E-002  0.2165711E+03  0.7818608E-02  0.1136841E+00
         21   -1    0    0  503  502  0.00000000000E+00  0.00000000000E+00  0.98784624268E+03  0.98784624268E+03  0.00000000000E+00 0. -1.
         21   -1    0    0  501  503 -0.00000000000E+00 -0.00000000000E+00 -0.69672151922E+02  0.69672151922E+02  0.00000000000E+00 0. -1.
          6    2    1    2  501    0  0.11583138363E+03 -0.60510363097E+02  0.75896752121E+03  0.78872519719E+03  0.17022727441E+03 0.  0.
         24    2    3    3    0    0  0.13231790363E+03 -0.28039140813E+01  0.56170025269E+03  0.58247703398E+03  0.79097608557E+02 0.  0.
         -6    2    1    2    0  502 -0.11583138363E+03  0.60510363097E+02  0.15920656955E+03  0.26879319742E+03  0.17269811149E+03 0.  0.
        -24    2    5    5    0    0 -0.17814767858E+02  0.18009284857E+02  0.71739175189E+01  0.82917927671E+02  0.78627077663E+02 0.  0.
          5    1    3    3  501    0 -0.16486520001E+02 -0.57706449015E+02  0.19726726852E+03  0.20624816321E+03  0.47000000000E+01 0. -1.
        -13    1    4    4    0    0  0.62672235077E+01  0.18599361668E+02  0.31789107352E+02  0.37359894154E+02  0.00000000000E+00 0.  1.
         14    1    4    4    0    0  0.12605068012E+03 -0.21403275749E+02  0.52991114534E+03  0.54511713982E+03  0.00000000000E+00 0. -1.
         -5    1    5    5    0  502 -0.98016615772E+02  0.42501078240E+02  0.15203265203E+03  0.18587526974E+03  0.47000000000E+01 0.  1.
         11    1    6    6    0    0 -0.40035800030E+01  0.16279111430E+02  0.42102916034E+02  0.45317696989E+02  0.00000000000E+00 0. -1.
        -12    1    6    6    0    0 -0.13811187855E+02  0.17301734265E+01 -0.34928998516E+02  0.37600230682E+02  0.00000000000E+00 0.  1.
</event>
<event>
12    1  0.8493057E-002  0.1953535E+03  0.7818608E-02  0.1153903E+00
         21   -1    0    0  503  502  0.00000000000E+00  0.00000000000E+00  0.10772608150E+03  0.10772608150E+03  0.00000000000E+00 0. -1.
         21   -1    0    0  501  503 -0.00000000000E+00 -0.00000000000E+00 -0.37299286563E+03  0.37299286563E+03  0.00000000000E+00 0. -1.
          6    2    1    2  501    0 -0.69120120771E+02 -0.62178036559E+02 -0.18837990448E+03  0.27077948730E+03  0.17085327918E+03 0.  0.
         24    2    3    3    0    0  0.13850970755E+02  0.11742758587E+02 -0.60122746360E+02  0.10101354669E+03  0.79115423366E+02 0.  0.
         -6    2    1    2    0  502  0.69120120771E+02  0.62178036559E+02 -0.76886879662E+02  0.20993945983E+03  0.17181177260E+03 0.  0.
        -24    2    5    5    0    0  0.10462694059E+03  0.57916774706E+02 -0.91616019275E+02  0.17097883663E+03  0.80864813735E+02 0.  0.
          5    1    3    3  501    0 -0.82971091526E+02 -0.73920795146E+02 -0.12825715812E+03  0.16976594061E+03  0.47000000000E+01 0. -1.
        -13    1    4    4    0    0 -0.78879459507E+01  0.37535449430E+02 -0.84016014587E+01  0.39264698679E+02  0.00000000000E+00 0.  1.
         14    1    4    4    0    0  0.21738916705E+02 -0.25792690843E+02 -0.51721144902E+02  0.61748848009E+02  0.00000000000E+00 0. -1.
         -5    1    5    5    0  502 -0.35506819815E+02  0.42612618534E+01  0.14729139612E+02  0.38960623194E+02  0.47000000000E+01 0.  1.
         13    1    6    6    0    0  0.99277393586E+02  0.17539763578E+02 -0.49221078398E+02  0.11218894216E+03  0.00000000000E+00 0. -1.
        -14    1    6    6    0    0  0.53495470002E+01  0.40377011128E+02 -0.42394940877E+02  0.58789894478E+02  0.00000000000E+00 0.  1.
</event>
<event>
12    1  0.8493057E-002  0.2092670E+03  0.7818608E-02  0.1142678E+00
         21   -1    0    0  501  502  0.00000000000E+00  0.00000000000E+00  0.31898743170E+03  0.31898743170E+03  0.00000000000E+00 0. -1.
         21   -1    0    0  502  503 -0.00000000000E+00 -0.00000000000E+00 -0.55765771949E+03  0.55765771949E+03  0.00000000000E+00 0. -1.
         -6    2    1    2    0  503  0.69210427728E+02 -0.89577018633E+02 -0.50049409745E+03  0.54146702205E+03  0.17285273738E+03 0.  0.
        -24    2    3    3    0    0  0.87107826617E+02 -0.11491714729E+03 -0.46942745055E+03  0.49731200471E+03  0.78507162062E+02 0.  0.
          6    2    1    2  501    0 -0.69210427728E+02  0.89577018633E+02  0.26182380965E+03  0.33517812914E+03  0.17600723104E+03 0.  0.
         24    2    5    5    0    0  0.17386968372E+02 -0.80982265454E+01  0.13607814317E+03  0.15386727681E+03  0.69209752803E+02 0.  0.
          5    1    5    5  501    0 -0.86597396100E+02  0.97675245178E+02  0.12574566648E+03  0.18131085232E+03  0.47000000000E+01 0. -1.
        -11    1    6    6    0    0 -0.19876426072E+02 -0.85642033501E+01  0.12946169891E+02  0.25219460884E+02  0.00000000000E+00 0.  1.
         12    1    6    6    0    0  0.37263394444E+02  0.46597680468E+00  0.12313197328E+03  0.12864781593E+03  0.00000000000E+00 0. -1.
         -5    1    3    3    0  503 -0.17897398889E+02  0.25340128660E+02 -0.31066646893E+02  0.44155017344E+02  0.47000000000E+01 0.  1.
         11    1    4    4    0    0  0.93366166040E+01 -0.77149480718E+02 -0.22579858426E+03  0.23879743600E+03  0.00000000000E+00 0. -1.
        -12    1    4    4    0    0  0.77771210013E+02 -0.37767666575E+02 -0.24362886629E+03  0.25851456871E+03  0.00000000000E+00 0.  1.
</event>
<event>
12    1  0.8493057E-002  0.1995905E+03  0.7818608E-02  0.1150279E+00
         21   -1    0    0  501  502  0.00000000000E+00  0.00000000000E+00  0.13974702787E+03  0.13974702787E+03  0.00000000000E+00 0.  1.
         21   -1    0    0  502  503 -0.00000000000E+00 -0.00000000000E+00 -0.30985419774E+03  0.30985419774E+03  0.00000000000E+00 0. -1.
         -6    2    1    2    0  503  0.10070689171E+03 -0.15524192462E+02 -0.15011763494E+03  0.24901222774E+03  0.17055470281E+03 0.  0.
        -24    2    3    3    0    0  0.10505981847E+03  0.19799309240E+02 -0.16366654423E+03  0.21064087531E+03  0.78442734192E+02 0.  0.
          6    2    1    2  501    0 -0.10070689171E+03  0.15524192462E+02 -0.19989534922E+02  0.20058899787E+03  0.17162017938E+03 0.  0.
         24    2    5    5    0    0 -0.19040783113E+02  0.64890273693E+02 -0.19199029004E+02  0.10504278827E+03  0.78051813631E+02 0.  0.
          5    1    5    5  501    0 -0.81666108597E+02 -0.49366081232E+02 -0.79050591827E+00  0.95546209601E+02  0.47000000000E+01 0. -1.
        -13    1    6    6    0    0 -0.27779285617E+02  0.79295887175E+02 -0.24254700882E+02  0.87451797850E+02  0.00000000000E+00 0.  1.
         14    1    6    6    0    0  0.87385025043E+01 -0.14405613481E+02  0.50556718785E+01  0.17590990419E+02  0.00000000000E+00 0. -1.
         -5    1    3    3    0  503 -0.43529267589E+01 -0.35323501702E+02  0.13548909290E+02  0.38371352424E+02  0.47000000000E+01 0.  1.
         11    1    4    4    0    0  0.27147827725E+02 -0.77334893109E+01 -0.10645694940E+03  0.11013579564E+03  0.00000000000E+00 0. -1.
        -12    1    4    4    0    0  0.77911990744E+02  0.27532798551E+02 -0.57209594838E+02  0.10050507967E+03  0.00000000000E+00 0.  1.
</event>
<event>
12    1  0.8493057E-002  0.1753871E+03  0.7818608E-02  0.1172636E+00
         21   -1    0    0  503  502  0.00000000000E+00  0.00000000000E+00  0.27371534119E+03  0.27371534119E+03  0.00000000000E+00 0.  1.
         21   -1    0    0  501  503 -0.00000000000E+00 -0.00000000000E+00 -0.17916392716E+03  0.17916392716E+03  0.00000000000E+00 0.  1.
          6    2    1    2  501    0 -0.34152311090E+02  0.14608121747E+02 -0.91836629119E+02  0.19694733989E+03  0.17021900795E+03 0.  0.
         24    2    3    3    0    0 -0.13836196817E+00 -0.31088611163E+02 -0.10789176301E+03  0.13757565086E+03  0.79497838319E+02 0.  0.
         -6    2    1    2    0  502  0.34152311090E+02 -0.14608121747E+02  0.18638804315E+03  0.25593192846E+03  0.17140849396E+03 0.  0.
        -24    2    5    5    0    0  0.41955737993E+02 -0.68470690525E+02  0.88964979187E+02  0.14423853932E+03  0.80258764574E+02 0.  0.
          5    1    3    3  501    0 -0.34013949122E+02  0.45696732910E+02  0.16055133888E+02  0.59371689025E+02  0.47000000000E+01 0. -1.
        -11    1    4    4    0    0  0.30290066267E+02 -0.43042908336E+02 -0.64609452598E+02  0.83334035288E+02  0.00000000000E+00 0.  1.
         12    1    4    4    0    0 -0.30428428235E+02  0.11954297173E+02 -0.43282310409E+02  0.54241615574E+02  0.00000000000E+00 0. -1.
         -5    1    5    5    0  502 -0.78034269023E+01  0.53862568778E+02  0.97423063964E+02  0.11169338915E+03  0.47000000000E+01 0.  1.
         13    1    6    6    0    0 -0.24174508870E+02 -0.21492055015E+02  0.23117753642E+02  0.39758594559E+02  0.00000000000E+00 0. -1.
        -14    1    6    6    0    0  0.66130246863E+02 -0.46978635510E+02  0.65847225545E+02  0.10447994476E+03  0.00000000000E+00 0.  1.
</event>
<event>
12    1  0.8493057E-002  0.1789622E+03  0.7818608E-02  0.1168981E+00
         21   -1    0    0  503  502  0.00000000000E+00  0.00000000000E+00  0.51622222778E+03  0.51622222778E+03  0.00000000000E+00 0.  1.
         21   -1    0    0  501  503 -0.00000000000E+00 -0.00000000000E+00 -0.11982864165E+03  0.11982864165E+03  0.00000000000E+00 0.  1.
          6    2    1    2  501    0 -0.22776788372E+02  0.41165610345E+02 -0.23310306038E+02  0.17978467907E+03  0.17194700026E+03 0.  0.
         24    2    3    3    0    0 -0.39787100961E+02  0.86114624223E+02 -0.36914201706E+02  0.12961575881E+03  0.80242412328E+02 0.  0.
         -6    2    1    2    0  502  0.22776788372E+02 -0.41165610345E+02  0.41970389217E+03  0.45626619036E+03  0.17266757019E+03 0.  0.
        -24    2    5    5    0    0  0.52461177188E+02 -0.83677255216E+02  0.30359607728E+03  0.32902029625E+03  0.79559531481E+02 0.  0.
          5    1    3    3  501    0  0.17010312589E+02 -0.44949013878E+02  0.13603895668E+02  0.50168920263E+02  0.47000000000E+01 0. -1.
        -13    1    4    4    0    0  0.15412637180E+02  0.56188272794E+02 -0.32392807259E+02  0.66663073336E+02  0.00000000000E+00 0.  1.
         14    1    4    4    0    0 -0.55199738141E+02  0.29926351429E+02 -0.45213944466E+01  0.62952685474E+02  0.00000000000E+00 0. -1.
         -5    1    5    5    0  502 -0.29684388817E+02  0.42511644872E+02  0.11610781489E+03  0.12724589411E+03  0.47000000000E+01 0.  1.
         11    1    6    6    0    0  0.72600388659E+02 -0.74957968316E+02  0.26137533282E+03  0.28143663239E+03  0.00000000000E+00 0. -1.
        -12    1    6    6    0    0 -0.20139211470E+02 -0.87192869002E+01  0.42220744467E+02  0.47583663857E+02  0.00000000000E+00 0.  1.
</event>
<event>
12    1  0.8493057E-002  0.2927283E+03  0.7818608E-02  0.1089108E+00
         21   -1    0    0  503  502  0.00000000000E+00  0.00000000000E+00  0.34816777535E+03  0.34816777535E+03  0.00000000000E+00 0. -1.
         21   -1    0    0  501  503 -0.00000000000E+00 -0.00000000000E+00 -0.26366861848E+03  0.26366861848E+03  0.00000000000E+00 0.  1.
          6    2    1    2  501    0 -0.55956111350E+02  0.22913422293E+03 -0.39280659914E+02  0.29401360820E+03  0.17107733061E+03 0.  0.
         24    2    3    3    0    0 -0.75996135201E+02  0.86967982097E+02 -0.52963856542E+02  0.14971474314E+03  0.79186436578E+02 0.  0.
         -6    2    1    2    0  502  0.55956111350E+02 -0.22913422293E+03  0.12377981679E+03  0.31782278564E+03  0.17336753304E+03 0.  0.
        -24    2    5    5    0    0  0.37186816151E+02 -0.79605826088E+02  0.11661760976E+03  0.16687771247E+03  0.80799487436E+02 0.  0.
          5    1    3    3  501    0  0.20040023852E+02  0.14216624083E+03  0.13683196628E+02  0.14429886506E+03  0.47000000000E+01 0. -1.
        -13    1    4    4    0    0  0.16317845870E+02  0.79160767676E+01 -0.10597735871E+02  0.21005912758E+02  0.00000000000E+00 0.  1.
         14    1    4    4    0    0 -0.92313981071E+02  0.79051905329E+02 -0.42366120670E+02  0.12870883038E+03  0.00000000000E+00 0. -1.
         -5    1    5    5    0  502  0.18769295199E+02 -0.14952839684E+03  0.71622070264E+01  0.15094507317E+03  0.47000000000E+01 0.  1.
         13    1    6    6    0    0  0.10125800778E+02 -0.83828616999E+02  0.58779119776E+02  0.10288223263E+03  0.00000000000E+00 0. -1.
        -14    1    6    6    0    0  0.27061015373E+02  0.42227909111E+01  0.57838489983E+02  0.63995479838E+02  0.00000000000E+00 0.  1.
</event>
<event>
12    1  0.8493057E-002  0.2050671E+03  0.7818608E-02  0.1145638E+00
         21   -1    0    0  503  502  0.00000000000E+00  0.00000000000E+00  0.30230887039E+02  0.30230887039E+02  0.00000000000E+00 0.  1.
         21   -1    0    0  501  503 -0.00000000000E+00 -0.00000000000E+00 -0.14179090745E+04  0.14179090745E+04  0.00000000000E+00 0. -1.
          6    2    1    2  501    0 -0.60302447866E+02  0.93813464921E+02 -0.80064261402E+03  0.82648721648E+03  0.17209059300E+03 0.  0.
         24    2    3    3    0    0  0.27468889067E+02  0.68365394779E+02 -0.33941568891E+03  0.35627048102E+03  0.79355394883E+02 0.  0.
         -6    2    1    2    0  502  0.60302447866E+02 -0.93813464921E+02 -0.58703557343E+03  0.62165274505E+03  0.17147600280E+03 0.  0.
        -24    2    5    5    0    0  0.94205232107E+02 -0.10611269470E+03 -0.41094987359E+03  0.44185026031E+03  0.78850010746E+02 0.  0.
          5    1    3    3  501    0 -0.87771336933E+02  0.25448070142E+02 -0.46122692511E+03  0.47021673546E+03  0.47000000000E+01 0. -1.
        -11    1    4    4    0    0 -0.15906028439E+02 -0.94899050859E+01 -0.74384461427E+02  0.76655776958E+02  0.00000000000E+00 0.  1.
         12    1    4    4    0    0  0.43374917506E+02  0.77855299865E+02 -0.26503122748E+03  0.27961470406E+03  0.00000000000E+00 0. -1.
         -5    1    5    5    0  502 -0.33902784241E+02  0.12299229776E+02 -0.17608569983E+03  0.17980248474E+03  0.47000000000E+01 0.  1.
         11    1    6    6    0    0  0.29214114394E+01 -0.23703280660E+02 -0.16654569860E+03  0.16824936815E+03  0.00000000000E+00 0. -1.
        -12    1    6    6    0    0  0.91283820668E+02 -0.82409414036E+02 -0.24440417499E+03  0.27360089216E+03  0.00000000000E+00 0.  1.
</event>
<event>
12    1  0.8493057E-002  0.2008901E+03  0.7818608E-02  0.1149709E+00
         21   -1    0    0  501  502  0.00000000000E+00  0.00000000000E+00  0.39802195999E+03  0.39802195999E+03  0.00000000000E+00 0. -1.
         21   -1    0    0  502  503 -0.00000000000E+00 -0.00000000000E+00 -0.15561003880E+03  0.15561003880E+03  0.00000000000E+00 0. -1.
         -6    2    1    2    0  503  0.42296071833E+02 -0.93626051210E+02 -0.45399318955E+02  0.20264461506E+03  0.16866815555E+03 0.  0.
        -24    2    3    3    0    0  0.68105388014E+02 -0.78285004154E+02 -0.82309516881E+02  0.15483330639E+03  0.80197321934E+02 0.  0.
          6    2    1    2  501    0 -0.42296071833E+02  0.93626051210E+02  0.28781124015E+03  0.35098738372E+03  0.17263266904E+03 0.  0.
         24    2    5    5    0    0 -0.76651809594E+01 -0.17524975775E+02  0.11109655003E+03  0.13931778008E+03  0.81860372854E+02 0.  0.
          5    1    5    5  501    0 -0.34630890874E+02  0.11115102698E+03  0.17671469012E+03  0.21166960364E+03  0.47000000000E+01 0. -1.
        -13    1    6    6    0    0 -0.28546364132E+02 -0.26366258432E+02  0.10994767761E+03  0.11661289080E+03  0.00000000000E+00 0.  1.
         14    1    6    6    0    0  0.20881183172E+02  0.88412826577E+01  0.11488724237E+01  0.22704889288E+02  0.00000000000E+00 0. -1.
         -5    1    3    3    0  503 -0.25809316181E+02 -0.15341047057E+02  0.36910197926E+02  0.47811308678E+02  0.47000000000E+01 0.  1.
         11    1    4    4    0    0 -0.11403062790E+02  0.53253475846E+01 -0.20199086286E+02  0.23798996926E+02  0.00000000000E+00 0. -1.
        -12    1    4    4    0    0  0.79508450804E+02 -0.83610351738E+02 -0.62110430595E+02  0.13103430946E+03  0.00000000000E+00 0.  1.
</event>
<event>
12    1  0.8493057E-002  0.3115173E+03  0.7818608E-02  0.1079635E+00
         21   -1    0    0  503  502  0.00000000000E+00  0.00000000000E+00  0.76515588330E+02  0.76515588330E+02  0.00000000000E+00 0. -1.
         21   -1    0    0  501  503 -0.00000000000E+00 -0.00000000000E+00 -0.13150585999E+04  0.13150585999E+04  0.00000000000E+00 0. -1.
          6    2    1    2  501    0  0.17502262762E+03 -0.19201142463E+03 -0.48727485255E+03  0.57828036421E+03  0.17166854789E+03 0.  0.
         24    2    3    3    0    0  0.42698370004E+02 -0.56551715750E+02 -0.25773891617E+03  0.28067680581E+03  0.85608837485E+02 0.  0.
         -6    2    1    2    0  502 -0.17502262762E+03  0.19201142463E+03 -0.75126815903E+03  0.81329382403E+03  0.17187696201E+03 0.  0.
        -24    2    5    5    0    0 -0.16248773861E+03  0.80633454160E+02 -0.51025749151E+03  0.54745476067E+03  0.80249537168E+02 0.  0.
          5    1    3    3  501    0  0.13232425761E+03 -0.13545970887E+03 -0.22953593638E+03  0.29760355840E+03  0.47000000000E+01 0. -1.
        -13    1    4    4    0    0  0.22392235018E+02 -0.66645179119E+02 -0.10564024681E+03  0.12689702059E+03  0.00000000000E+00 0.  1.
         14    1    4    4    0    0  0.20306134986E+02  0.10093463368E+02 -0.15209866936E+03  0.15377978522E+03  0.00000000000E+00 0. -1.
         -5    1    5    5    0  502 -0.12534889008E+02  0.11137797047E+03 -0.24101066752E+03  0.26583906336E+03  0.47000000000E+01 0.  1.
         11    1    6    6    0    0 -0.27736729859E+02  0.22289926661E+02 -0.21250188658E+03  0.21546048087E+03  0.00000000000E+00 0. -1.
        -12    1    6    6    0    0 -0.13475100875E+03  0.58343527499E+02 -0.29775560492E+03  0.33199427981E+03  0.00000000000E+00 0.  1.
</event>
<event>
12    1  0.8493057E-002  0.1959716E+03  0.7818608E-02  0.1153357E+00
         21   -1    0    0  501  502  0.00000000000E+00  0.00000000000E+00  0.10241779421E+03  0.10241779421E+03  0.00000000000E+00 0. -1.
         21   -1    0    0  502  503 -0.00000000000E+00 -0.00000000000E+00 -0.53510143714E+03  0.53510143714E+03  0.00000000000E+00 0. -1.
         -6    2    1    2    0  503  0.71011922712E+02  0.59582578765E+02 -0.39184849898E+03  0.43812109679E+03  0.17266172837E+03 0.  0.
        -24    2    3    3    0    0  0.40890443639E+02  0.87571696299E+02 -0.16313721497E+03  0.20569554820E+03  0.79725010318E+02 0.  0.
          6    2    1    2  501    0 -0.71011922712E+02 -0.59582578765E+02 -0.40835143951E+02  0.19939813457E+03  0.17175369058E+03 0.  0.
         24    2    5    5    0    0 -0.63361790112E+01 -0.70008423611E+02 -0.70353131023E+02  0.12739083199E+03  0.79608633253E+02 0.  0.
          5    1    5    5  501    0 -0.64675743701E+02  0.10425844846E+02  0.29517987072E+02  0.72007302580E+02  0.47000000000E+01 0. -1.
        -13    1    6    6    0    0  0.12827037181E+02 -0.85331666203E+01  0.14306935995E+02  0.21024657738E+02  0.00000000000E+00 0.  1.
         14    1    6    6    0    0 -0.19163216193E+02 -0.61475256990E+02 -0.84660067017E+02  0.10636617425E+03  0.00000000000E+00 0. -1.
         -5    1    3    3    0  503  0.30121479074E+02 -0.27989117534E+02 -0.22871128401E+03  0.23242554859E+03  0.47000000000E+01 0.  1.
         11    1    4    4    0    0  0.55956352016E+02  0.40064539653E+02 -0.12590003235E+03  0.14348205050E+03  0.00000000000E+00 0. -1.
        -12    1    4    4    0    0 -0.15065908377E+02  0.47507156646E+02 -0.37237182613E+02  0.62213497706E+02  0.00000000000E+00 0.  1.
</event>
<event>
12    1  0.8493057E-002  0.2074162E+03  0.7818608E-02  0.1145203E+00
         21   -1    0    0  503  502  0.00000000000E+00  0.00000000000E+00  0.44556876816E+03  0.44556876816E+03  0.00000000000E+00 0. -1.
         21   -1    0    0  501  503 -0.00000000000E+00 -0.00000000000E+00 -0.33644706475E+03  0.33644706475E+03  0.00000000000E+00 0.  1.
          6    2    1    2  501    0 -0.67837972105E+02  0.90038960952E+02  0.38742217464E+03  0.43945126026E+03  0.17410474949E+03 0.  0.
         24    2    3    3    0    0 -0.99565702647E+02  0.10725690237E+03  0.34828070807E+03  0.38599800221E+03  0.79231520501E+02 0.  0.
         -6    2    1    2    0  502  0.67837972105E+02 -0.90038960952E+02 -0.27830047123E+03  0.34256457264E+03  0.16489490349E+03 0.  0.
        -24    2    5    5    0    0  0.37506945525E+02 -0.91146046430E+02 -0.99677006576E+02  0.16131990669E+03  0.79838799548E+02 0.  0.
          5    1    3    3  501    0  0.31727730541E+02 -0.17217941415E+02  0.39141466562E+02  0.53453258053E+02  0.47000000000E+01 0. -1.
        -13    1    4    4    0    0 -0.96315727626E+02  0.71223466295E+02  0.19793783625E+03  0.23136310976E+03  0.00000000000E+00 0.  1.
         14    1    4    4    0    0 -0.32499750203E+01  0.36033436072E+02  0.15034287182E+03  0.15463489244E+03  0.00000000000E+00 0. -1.
         -5    1    5    5    0  502  0.30331026581E+02  0.11070854782E+01 -0.17862346465E+03  0.18124466595E+03  0.47000000000E+01 0.  1.
         13    1    6    6    0    0  0.56254367254E+02 -0.67531596611E+02 -0.44672824000E+02  0.98593770494E+02  0.00000000000E+00 0. -1.
        -14    1    6    6    0    0 -0.18747421729E+02 -0.23614449818E+02 -0.55004182576E+02  0.62726136200E+02  0.00000000000E+00 0.  1.
</event>
<event>
12    1  0.8493057E-002  0.4081574E+03  0.7818608E-02  0.1041034E+00
         21   -1    0    0  501  502  0.00000000000E+00  0.00000000000E+00  0.22236545576E+03  0.22236545576E+03  0.00000000000E+00 0.  1.
         21   -1    0    0  502  503 -0.00000000000E+00 -0.00000000000E+00 -0.78178432374E+03  0.78178432374E+03  0.00000000000E+00 0. -1.
         -6    2    1    2    0  503 -0.32009636852E+03 -0.18657348447E+03 -0.17557182377E+03  0.44385432709E+03  0.17002896263E+03 0.  0.
        -24    2    3    3    0    0 -0.26133192310E+03 -0.16989641852E+03 -0.19664042131E+03  0.37906728845E+03  0.88687016091E+02 0.  0.
          6    2    1    2  501    0  0.32009636852E+03  0.18657348447E+03 -0.38384704421E+03  0.56029545240E+03  0.17123402227E+03 0.  0.
         24    2    5    5    0    0  0.87343950501E+02  0.80171006825E+02 -0.88956155584E+02  0.16981126381E+03  0.82863210631E+02 0.  0.
          5    1    5    5  501    0  0.23275241802E+03  0.10640247764E+03 -0.29489088863E+03  0.39048418859E+03  0.47000000000E+01 0. -1.
        -13    1    6    6    0    0  0.26247184312E+02 -0.14491615961E+02 -0.78655413283E+01  0.30996586229E+02  0.00000000000E+00 0.  1.
         14    1    6    6    0    0  0.61096766188E+02  0.94662622786E+02 -0.81090614256E+02  0.13881467758E+03  0.00000000000E+00 0. -1.
         -5    1    3    3    0  503 -0.58764445422E+02 -0.16677065948E+02  0.21068597537E+02  0.64787038646E+02  0.47000000000E+01 0.  1.
         11    1    4    4    0    0 -0.43957406704E+02 -0.25972909623E+02 -0.76599213037E+02  0.92055880183E+02  0.00000000000E+00 0. -1.
        -12    1    4    4    0    0 -0.21737451640E+03 -0.14392350890E+03 -0.12004120827E+03  0.28701140826E+03  0.00000000000E+00 0.  1.
</event>
<event>
12    1  0.8493057E-002  0.2078950E+03  0.7818608E-02  0.1144105E+00
         21   -1    0    0  501  502  0.00000000000E+00  0.00000000000E+00  0.11284472624E+03  0.11284472624E+03  0.00000000000E+00 0. -1.
         21   -1    0    0  502  503 -0.00000000000E+00 -0.00000000000E+00 -0.73388398602E+03  0.73388398602E+03  0.00000000000E+00 0. -1.
         -6    2    1    2    0  503 -0.66430413336E+02 -0.86800307451E+02 -0.60483916531E+03  0.63820350714E+03  0.17183133430E+03 0.  0.
        -24    2    3    3    0    0 -0.91781850822E+02 -0.10113054618E+03 -0.57485161000E+03  0.59613933476E+03  0.79223969974E+02 0.  0.
          6    2    1    2  501    0  0.66430413336E+02  0.86800307451E+02 -0.16200094470E+02  0.20852520512E+03  0.17684180762E+03 0.  0.
         24    2    5    5    0    0  0.15973264720E+02  0.98957208500E+02  0.38238612366E+02  0.13316356441E+03  0.78883896392E+02 0.  0.
          5    1    5    5  501    0  0.50457148616E+02 -0.12156901049E+02 -0.54438706836E+02  0.75361640717E+02  0.47000000000E+01 0. -1.
        -11    1    6    6    0    0 -0.61102417316E+01  0.24094123605E+02 -0.23069145981E+02  0.33912347937E+02  0.00000000000E+00 0.  1.
         12    1    6    6    0    0  0.22083506452E+02  0.74863084895E+02  0.61307758347E+02  0.99251216470E+02  0.00000000000E+00 0. -1.
         -5    1    3    3    0  503  0.25351437486E+02  0.14330238730E+02 -0.29987555307E+02  0.42064172379E+02  0.47000000000E+01 0.  1.
         13    1    4    4    0    0  0.10237489910E+02 -0.15056461073E+01 -0.94638495272E+02  0.95202510246E+02  0.00000000000E+00 0. -1.
        -14    1    4    4    0    0 -0.10201934073E+03 -0.99624900074E+02 -0.48021311473E+03  0.50093682452E+03  0.00000000000E+00 0.  1.
</event>
<event>
12    1  0.8493057E-002  0.1784275E+03  0.7818608E-02  0.1169528E+00
         21   -1    0    0  501  502  0.00000000000E+00  0.00000000000E+00  0.63494731596E+03  0.63494731596E+03  0.00000000000E+00 0. -1.
         21   -1    0    0  502  503 -0.00000000000E+00 -0.00000000000E+00 -0.43425843344E+03  0.43425843344E+03  0.00000000000E+00 0. -1.
         -6    2    1    2    0  503 -0.41747983444E+02  0.22716419765E+02 -0.40262018495E+03  0.44006490287E+03  0.17115833476E+03 0.  0.
        -24    2    3    3    0    0  0.20533608888E+02  0.40306820059E+02 -0.13048167798E+03  0.16029736382E+03  0.81384935480E+02 0.  0.
          6    2    1    2  501    0  0.41747983444E+02 -0.22716419765E+02  0.60330906747E+03  0.62914084653E+03  0.17198094088E+03 0.  0.
         24    2    5    5    0    0 -0.35946675448E+02 -0.33890342385E+02  0.24140487426E+03  0.25879229229E+03  0.79097524902E+02 0.  0.
          5    1    5    5  501    0  0.77694658891E+02  0.11173922619E+02  0.36190419321E+03  0.37034855424E+03  0.47000000000E+01 0. -1.
        -11    1    6    6    0    0 -0.14977555368E+02  0.48622489998E+01  0.19179416691E+03  0.19243952580E+03  0.00000000000E+00 0.  1.
         12    1    6    6    0    0 -0.20969120080E+02 -0.38752591385E+02  0.49610707354E+02  0.66352766484E+02  0.00000000000E+00 0. -1.
         -5    1    3    3    0  503 -0.62281592331E+02 -0.17590400294E+02 -0.27213850697E+03  0.27976753905E+03  0.47000000000E+01 0.  1.
         11    1    4    4    0    0  0.12764607207E+02 -0.44940115071E+01 -0.10930299806E+03  0.11013753548E+03  0.00000000000E+00 0. -1.
        -12    1    4    4    0    0  0.77690016812E+01  0.44800831566E+02 -0.21178679915E+02  0.50159828340E+02  0.00000000000E+00 0.  1.
</event>
<event>
12    1  0.8493057E-002  0.2579880E+03  0.7818608E-02  0.1108467E+00
         21   -1    0    0  501  502  0.00000000000E+00  0.00000000000E+00  0.16985148052E+04  0.16985148052E+04  0.00000000000E+00 0. -1.
         21   -1    0    0  502  503 -0.00000000000E+00 -0.00000000000E+00 -0.85138194786E+02  0.85138194786E+02  0.00000000000E+00 0.  1.
         -6    2    1    2    0  503 -0.12083104987E+03 -0.14938817607E+03  0.15020635770E+03  0.29791244492E+03  0.17109326457E+03 0.  0.
        -24    2    3    3    0    0 -0.12356510341E+03 -0.13616691470E+03  0.64192959958E+02  0.21071914591E+03  0.80449107530E+02 0.  0.
          6    2    1    2  501    0  0.12083104987E+03  0.14938817607E+03  0.14631702527E+04  0.14857405550E+04  0.17216514975E+03 0.  0.
         24    2    5    5    0    0  0.23000260337E+02  0.86660264861E+02  0.43501178019E+03  0.45102436749E+03  0.78413759512E+02 0.  0.
          5    1    5    5  501    0  0.97830789529E+02  0.62727911212E+02  0.10281584725E+04  0.10347161875E+04  0.47000000000E+01 0. -1.
        -11    1    6    6    0    0 -0.96170328322E+01 -0.11814337545E+02  0.48704585974E+02  0.51031388253E+02  0.00000000000E+00 0.  1.
         12    1    6    6    0    0  0.32617293169E+02  0.98474602406E+02  0.38630719422E+03  0.39999297924E+03  0.00000000000E+00 0. -1.
         -5    1    3    3    0  503  0.27340535440E+01 -0.13221261368E+02  0.86013397745E+02  0.87193299012E+02  0.47000000000E+01 0.  1.
         13    1    4    4    0    0 -0.18084261029E+02 -0.33363364240E+02  0.49964003252E+02  0.62741981092E+02  0.00000000000E+00 0. -1.
        -14    1    4    4    0    0 -0.10548084238E+03 -0.10280355046E+03  0.14228956706E+02  0.14797716481E+03  0.00000000000E+00 0.  1.
</event>
<event>
12    1  0.8493057E-002  0.2147119E+03  0.7818608E-02  0.1138401E+00
         21   -1    0    0  501  502  0.00000000000E+00  0.00000000000E+00  0.33724954443E+02  0.33724954443E+02  0.00000000000E+00 0. -1.
         21   -1    0    0  502  503 -0.00000000000E+00 -0.00000000000E+00 -0.15274662807E+04  0.15274662807E+04  0.00000000000E+00 0. -1.
         -6    2    1    2    0  503  0.10513660868E+03 -0.73482205417E+02 -0.10169145534E+04  0.10393346025E+04  0.17218555736E+03 0.  0.
        -24    2    3    3    0    0  0.50314074029E+02 -0.38169374754E+02 -0.25542428857E+03  0.27504276056E+03  0.80115826969E+02 0.  0.
          6    2    1    2  501    0 -0.10513660868E+03  0.73482205417E+02 -0.47682677292E+03  0.52185663265E+03  0.16887046120E+03 0.  0.
         24    2    5    5    0    0 -0.10167570989E+03 -0.63689519503E+01 -0.33009521873E+03  0.35470273904E+03  0.80452881379E+02 0.  0.
          5    1    5    5  501    0 -0.34608987944E+01  0.79851157367E+02 -0.14673155419E+03  0.16715389361E+03  0.47000000000E+01 0. -1.
        -11    1    6    6    0    0  0.10216361819E+02  0.12174580104E+02 -0.51798972505E+02  0.54182358772E+02  0.00000000000E+00 0.  1.
         12    1    6    6    0    0 -0.11189207171E+03 -0.18543532054E+02 -0.27829624622E+03  0.30052038026E+03  0.00000000000E+00 0. -1.
         -5    1    3    3    0  503  0.54822534654E+02 -0.35312830663E+02 -0.76149026480E+03  0.76429184197E+03  0.47000000000E+01 0.  1.
         13    1    4    4    0    0  0.63678615530E+02 -0.52241581991E+02 -0.19890477041E+03  0.21528413006E+03  0.00000000000E+00 0. -1.
        -14    1    4    4    0    0 -0.13364541501E+02  0.14072207237E+02 -0.56519518162E+02  0.59758630501E+02  0.00000000000E+00 0.  1.
</event>
<event>
12    1  0.8493057E-002  0.2595188E+03  0.7818608E-02  0.1107581E+00
         21   -1    0    0  503  502  0.00000000000E+00  0.00000000000E+00  0.53652536461E+03  0.53652536461E+03  0.00000000000E+00 0. -1.
         21   -1    0    0  501  503 -0.00000000000E+00 -0.00000000000E+00 -0.15169341240E+03  0.15169341240E+03  0.00000000000E+00 0. -1.
          6    2    1    2  501    0 -0.11025797259E+03  0.15967492330E+03  0.47910363571E+02  0.26293513611E+03  0.17084080664E+03 0.  0.
         24    2    3    3    0    0 -0.10519949032E+02  0.16689200416E+02 -0.28445607785E+01  0.81301596701E+02  0.78820424776E+02 0.  0.
         -6    2    1    2    0  502  0.11025797259E+03 -0.15967492330E+03  0.33692158863E+03  0.42528364090E+03  0.17232851383E+03 0.  0.
        -24    2    5    5    0    0  0.73306155761E+02 -0.17079478309E+03  0.32824123563E+03  0.38545241475E+03  0.79288113002E+02 0.  0.
          5    1    3    3  501    0 -0.99738023557E+02  0.14298572288E+03  0.50754924349E+02  0.18163353941E+03  0.47000000000E+01 0. -1.
        -13    1    4    4    0    0  0.78667574202E+01 -0.23705163574E+02  0.19429439174E+02  0.31643700147E+02  0.00000000000E+00 0.  1.
         14    1    4    4    0    0 -0.18386706452E+02  0.40394363990E+02 -0.22273999952E+02  0.49657896554E+02  0.00000000000E+00 0. -1.
         -5    1    5    5    0  502  0.36951816829E+02  0.11119859787E+02  0.86803530002E+01  0.39831226152E+02  0.47000000000E+01 0.  1.
         13    1    6    6    0    0  0.55205757314E+02 -0.84625443614E+02  0.24180692762E+03  0.26206818119E+03  0.00000000000E+00 0. -1.
        -14    1    6    6    0    0  0.18100398446E+02 -0.86169339473E+02  0.86434308017E+02  0.12338423356E+03  0.00000000000E+00 0.  1.
</event>
<event>
12    1  0.8493057E-002  0.2438890E+03  0.7818608E-02  0.1118144E+00
         21   -1    0    0  503  502  0.00000000000E+00  0.00000000000E+00  0.85402861260E+02  0.85402861260E+02  0.00000000000E+00 0. -1.
         21   -1    0    0  501  503 -0.00000000000E+00 -0.00000000000E+00 -0.68135351139E+03  0.68135351139E+03  0.00000000000E+00 0.  1.
          6    2    1    2  501    0 -0.16555804784E+03  0.10120826992E+02 -0.30594600363E+03  0.38783088798E+03  0.17116641666E+03 0.  0.
         24    2    3    3    0    0 -0.97581029777E+02  0.19690984940E+02 -0.28996835326E+03  0.31719210105E+03  0.81359638738E+02 0.  0.
         -6    2    1    2    0  502  0.16555804784E+03 -0.10120826992E+02 -0.29000464651E+03  0.37892548467E+03  0.17880136911E+03 0.  0.
        -24    2    5    5    0    0  0.58412381981E+02  0.27091972591E+02 -0.46302814412E+02  0.11008043798E+03  0.76339837937E+02 0.  0.
          5    1    3    3  501    0 -0.67977018061E+02 -0.95701579474E+01 -0.15977650367E+02  0.70638786929E+02  0.47000000000E+01 0. -1.
        -13    1    4    4    0    0 -0.67103103354E+02 -0.26270145047E+02 -0.14108716044E+03  0.15842516795E+03  0.00000000000E+00 0.  1.
         14    1    4    4    0    0 -0.30477926423E+02  0.45961129986E+02 -0.14888119283E+03  0.15876693310E+03  0.00000000000E+00 0. -1.
         -5    1    5    5    0  502  0.10714566586E+03 -0.37212799583E+02 -0.24370183209E+03  0.26884504669E+03  0.47000000000E+01 0.  1.
         11    1    6    6    0    0  0.10186281843E+01  0.31675539893E+02 -0.41621807660E+02  0.52313978092E+02  0.00000000000E+00 0. -1.
        -12    1    6    6    0    0  0.57393753796E+02 -0.45835673021E+01 -0.46810067524E+01  0.57766459890E+02  0.00000000000E+00 0.  1.
</event>
<event>
12    1  0.8493057E-002  0.2098642E+03  0.7818608E-02  0.1145092E+00
         21   -1    0    0  503  502  0.00000000000E+00  0.00000000000E+00  0.11663246770E+03  0.11663246770E+03  0.00000000000E+00 0.  1.
         21   -1    0    0  501  503 -0.00000000000E+00 -0.00000000000E+00 -0.38817152797E+03  0.38817152797E+03  0.00000000000E+00 0.  1.
          6    2    1    2  501    0  0.11756089450E+03 -0.14365206176E+02 -0.21141646291E+03  0.28649749566E+03  0.15282987654E+03 0.  0.
         24    2    3    3    0    0  0.11899854926E+03 -0.49407160386E+02 -0.19710172939E+03  0.24832673458E+03  0.78837511073E+02 0.  0.
         -6    2    1    2    0  502 -0.11756089450E+03  0.14365206176E+02 -0.60122597347E+02  0.21830650001E+03  0.17325148822E+03 0.  0.
        -24    2    5    5    0    0 -0.93620057746E+01 -0.25132995148E+02 -0.59430717237E+02  0.10302564241E+03  0.79768153080E+02 0.  0.
          5    1    3    3  501    0 -0.14376547577E+01  0.35041954210E+02 -0.14314733523E+02  0.38170761087E+02  0.47000000000E+01 0. -1.
        -11    1    4    4    0    0  0.11820598543E+02 -0.18151471736E+02  0.16208364757E+00  0.21661688466E+02  0.00000000000E+00 0.  1.
         12    1    4    4    0    0  0.10717795072E+03 -0.31255688650E+02 -0.19726381304E+03  0.22666504611E+03  0.00000000000E+00 0. -1.
         -5    1    5    5    0  502 -0.10819888873E+03  0.39498201324E+02 -0.69188011043E+00  0.11528085760E+03  0.47000000000E+01 0.  1.
         11    1    6    6    0    0  0.80901823458E+01  0.19865733382E+02 -0.49222842543E+02  0.53693450636E+02  0.00000000000E+00 0. -1.
        -12    1    6    6    0    0 -0.17452188120E+02 -0.44998728531E+02 -0.10207874693E+02  0.49332191775E+02  0.00000000000E+00 0.  1.
</event>
<event>
12    1  0.8493057E-002  0.2074875E+03  0.7818608E-02  0.1143920E+00
         21   -1    0    0  503  502  0.00000000000E+00  0.00000000000E+00  0.75977084919E+02  0.75977084919E+02  0.00000000000E+00 0.  1.
         21   -1    0    0  501  503 -0.00000000000E+00 -0.00000000000E+00 -0.64375988683E+03  0.64375988683E+03  0.00000000000E+00 0.  1.
          6    2    1    2  501    0  0.83725839586E+02  0.81584236852E+02 -0.41322555703E+03  0.46239206158E+03  0.17142069219E+03 0.  0.
         24    2    3    3    0    0  0.30754900566E+02 -0.11099178979E+02 -0.26984971183E+03  0.28357690859E+03  0.80795670851E+02 0.  0.
         -6    2    1    2    0  502 -0.83725839586E+02 -0.81584236852E+02 -0.15455724488E+03  0.25734491017E+03  0.16932943314E+03 0.  0.
        -24    2    5    5    0    0 -0.60841810505E+02  0.12871793346E+01 -0.13700507909E+03  0.16947273635E+03  0.79039445433E+02 0.  0.
          5    1    3    3  501    0  0.52970939020E+02  0.92683415831E+02 -0.14337584520E+03  0.17881515298E+03  0.47000000000E+01 0. -1.
        -11    1    4    4    0    0  0.46915830457E+02  0.19661547340E+02 -0.18554982202E+03  0.19239648657E+03  0.00000000000E+00 0.  1.
         12    1    4    4    0    0 -0.16160929891E+02 -0.30760726319E+02 -0.84299889809E+02  0.91180422024E+02  0.00000000000E+00 0. -1.
         -5    1    5    5    0  502 -0.22884029081E+02 -0.82871416186E+02 -0.17552165792E+02  0.87872173819E+02  0.47000000000E+01 0.  1.
         11    1    6    6    0    0 -0.11741816280E+02 -0.14951284392E+02  0.38738756514E+01  0.19401496517E+02  0.00000000000E+00 0. -1.
        -12    1    6    6    0    0 -0.49099994225E+02  0.16238463727E+02 -0.14087895474E+03  0.15007123983E+03  0.00000000000E+00 0.  1.
</event>
<event>
12    1  0.8493057E-002  0.2073843E+03  0.7818608E-02  0.1144075E+00
         21   -1    0    0  503  502  0.00000000000E+00  0.00000000000E+00  0.47851166557E+03  0.47851166557E+03  0.00000000000E+00 0.  1.
         21   -1    0    0  501  503 -0.00000000000E+00 -0.00000000000E+00 -0.24975631416E+03  0.24975631416E+03  0.00000000000E+00 0.  1.
          6    2    1    2  501    0  0.33522432203E+02 -0.10680802282E+03 -0.17798273083E+03  0.27171117077E+03  0.17209706752E+03 0.  0.
         24    2    3    3    0    0 -0.55848858830E+01 -0.66080220750E+02 -0.18836924911E+03  0.21410816780E+03  0.77211054796E+02 0.  0.
         -6    2    1    2    0  502 -0.33522432203E+02  0.10680802282E+03  0.40673808225E+03  0.45655680896E+03  0.17457532776E+03 0.  0.
        -24    2    5    5    0    0 -0.22219829233E+02  0.12443646810E+03  0.19914318671E+03  0.24785548752E+03  0.76132637415E+02 0.  0.
          5    1    3    3  501    0  0.39107318086E+02 -0.40727802072E+02  0.10386518280E+02  0.57603002973E+02  0.47000000000E+01 0. -1.
        -11    1    4    4    0    0  0.16822757143E+02 -0.73952718068E+02 -0.12238268446E+03  0.14397753687E+03  0.00000000000E+00 0.  1.
         12    1    4    4    0    0 -0.22407643026E+02  0.78724973182E+01 -0.65986564650E+02  0.70130630928E+02  0.00000000000E+00 0. -1.
         -5    1    5    5    0  502 -0.11302602969E+02 -0.17628445276E+02  0.20759489554E+03  0.20870132144E+03  0.47000000000E+01 0.  1.
         11    1    6    6    0    0 -0.47374270106E+02  0.80225826870E+02  0.15323521645E+03  0.17933637759E+03  0.00000000000E+00 0. -1.
        -12    1    6    6    0    0  0.25154440873E+02  0.44210641228E+02  0.45907970253E+02  0.68519109934E+02  0.00000000000E+00 0.  1.
</event>
<event>
12    1  0.8493057E-002  0.2026710E+03  0.7818608E-02  0.1147630E+00
         21   -1    0    0  503  502  0.00000000000E+00  0.00000000000E+00  0.64523058405E+03  0.64523058405E+03  0.00000000000E+00 0.  1.
         21   -1    0    0  501  503 -0.00000000000E+00 -0.00000000000E+00 -0.14614928389E+03  0.14614928389E+03  0.00000000000E+00 0. -1.
          6    2    1    2  501    0  0.64752105530E+02  0.83815654710E+02 -0.47910633351E+02  0.20825693951E+03  0.17279359051E+03 0.  0.
         24    2    3    3    0    0 -0.22315387868E+02  0.77929442275E+02 -0.12566989956E+02  0.11398786169E+03  0.79147513340E+02 0.  0.
         -6    2    1    2    0  502 -0.64752105530E+02 -0.83815654710E+02  0.54699193351E+03  0.58312292843E+03  0.17208798678E+03 0.  0.
        -24    2    5    5    0    0 -0.43620216870E+02 -0.13039903632E+02  0.11572086115E+03  0.14554711613E+03  0.75629907454E+02 0.  0.
          5    1    3    3  501    0  0.87067493398E+02  0.58862124345E+01 -0.35343643396E+02  0.94269077814E+02  0.47000000000E+01 0. -1.
        -13    1    4    4    0    0 -0.23905724199E+02  0.45071720179E+02  0.30769986509E+02  0.59579658266E+02  0.00000000000E+00 0.  1.
         14    1    4    4    0    0  0.15903363304E+01  0.32857722097E+02 -0.43336976465E+02  0.54408203427E+02  0.00000000000E+00 0. -1.
         -5    1    5    5    0  502 -0.21131888660E+02 -0.70775751078E+02  0.43127107236E+03  0.43757581231E+03  0.47000000000E+01 0.  1.
         13    1    6    6    0    0 -0.12967533782E+02 -0.39492459885E+02  0.31685222389E+02  0.52266285864E+02  0.00000000000E+00 0. -1.
        -14    1    6    6    0    0 -0.30652683088E+02  0.26452556253E+02  0.84035638760E+02  0.93280830264E+02  0.00000000000E+00 0.  1.
</event>
<event>
12    1  0.8493057E-002  0.1826960E+03  0.7818608E-02  0.1165245E+00
         21   -1    0    0  501  502  0.00000000000E+00  0.00000000000E+00  0.14549275591E+03  0.14549275591E+03  0.00000000000E+00 0.  1.
         21   -1    0    0  502  503 -0.00000000000E+00 -0.00000000000E+00 -0.24751878893E+03  0.24751878893E+03  0.00000000000E+00 0.  1.
         -6    2    1    2    0  503  0.43669050994E+02 -0.40665297344E+02 -0.10434973344E+03  0.21030080017E+03  0.17255986573E+03 0.  0.
        -24    2    3    3    0    0 -0.46804886444E+02 -0.13796927404E+02 -0.42613702045E+02  0.97425336803E+02  0.72764799514E+02 0.  0.
          6    2    1    2  501    0 -0.43669050994E+02  0.40665297344E+02  0.23237004282E+01  0.18271074467E+03  0.17267647266E+03 0.  0.
         24    2    5    5    0    0  0.26652156638E+02  0.57979944805E+02  0.30570255348E+02  0.10483374469E+03  0.77353487714E+02 0.  0.
          5    1    5    5  501    0 -0.70321207633E+02 -0.17314647462E+02 -0.28246554920E+02  0.77876999971E+02  0.47000000000E+01 0. -1.
        -13    1    6    6    0    0  0.34762477506E+02  0.72340281611E+02  0.14030251411E+02  0.81476340987E+02  0.00000000000E+00 0.  1.
         14    1    6    6    0    0 -0.81103208679E+01 -0.14360336806E+02  0.16540003936E+02  0.23357403708E+02  0.00000000000E+00 0. -1.
         -5    1    3    3    0  503  0.90473937439E+02 -0.26868369940E+02 -0.61736031395E+02  0.11287546337E+03  0.47000000000E+01 0.  1.
         13    1    4    4    0    0 -0.10252062413E+02  0.12985271169E+02 -0.48949753426E+02  0.51670111395E+02  0.00000000000E+00 0. -1.
        -14    1    4    4    0    0 -0.36552824031E+02 -0.26782198572E+02  0.63360513810E+01  0.45755225408E+02  0.00000000000E+00 0.  1.
</event>
<event>
12    1  0.8493057E-002  0.1949412E+03  0.7818608E-02  0.1157788E+00
         21   -1    0    0  501  502  0.00000000000E+00  0.00000000000E+00  0.86983508764E+02  0.86983508764E+02  0.00000000000E+00 0. -1.
         21   -1    0    0  502  503 -0.00000000000E+00 -0.00000000000E+00 -0.42672581554E+03  0.42672581554E+03  0.00000000000E+00 0. -1.
         -6    2    1    2    0  503  0.49466526759E+02  0.34452190115E+02 -0.11411915877E+03  0.22588774067E+03  0.18538661849E+03 0.  0.
        -24    2    3    3    0    0  0.80783310278E+02 -0.28946979803E+02 -0.45704172894E+02  0.12738446170E+03  0.82304670601E+02 0.  0.
          6    2    1    2  501    0 -0.49466526759E+02 -0.34452190115E+02 -0.22562314801E+03  0.28782158364E+03  0.16823069998E+03 0.  0.
         24    2    5    5    0    0 -0.11695305413E+02 -0.54776190241E+02 -0.22527740354E+03  0.24467138454E+03  0.77310844527E+02 0.  0.
          5    1    5    5  501    0 -0.37771221346E+02  0.20324000126E+02 -0.34574447321E+00  0.43150199100E+02  0.47000000000E+01 0. -1.
        -11    1    6    6    0    0  0.27232638650E+02 -0.48198521968E+01 -0.38169035886E+02  0.47135155495E+02  0.00000000000E+00 0.  1.
         12    1    6    6    0    0 -0.38927944063E+02 -0.49956338044E+02 -0.18710836765E+03  0.19753622904E+03  0.00000000000E+00 0. -1.
         -5    1    3    3    0  503 -0.31316783518E+02  0.63399169918E+02 -0.68414985874E+02  0.98503278973E+02  0.47000000000E+01 0.  1.
         13    1    4    4    0    0  0.15432262469E+02 -0.45615411579E+02 -0.45340182476E+01  0.48368148817E+02  0.00000000000E+00 0. -1.
        -14    1    4    4    0    0  0.65351047808E+02  0.16668431777E+02 -0.41170154646E+02  0.79016312880E+02  0.00000000000E+00 0.  1.
</event>
<event>
12    1  0.8493057E-002  0.2512496E+03  0.7818608E-02  0.1112603E+00
         21   -1    0    0  503  502  0.00000000000E+00  0.00000000000E+00  0.15854711729E+04  0.15854711729E+04  0.00000000000E+00 0.  1.
         21   -1    0    0  501  503 -0.00000000000E+00 -0.00000000000E+00 -0.41229339079E+02  0.41229339079E+02  0.00000000000E+00 0.  1.
          6    2    1    2  501    0 -0.12524305557E+03 -0.13292594379E+03  0.61780097382E+03  0.66693656840E+03  0.17254336707E+03 0.  0.
         24    2    3    3    0    0 -0.12450159933E+03 -0.70013659966E+02  0.55275763056E+03  0.57632072147E+03  0.78752873183E+02 0.  0.
         -6    2    1    2    0  502  0.12524305557E+03  0.13292594379E+03  0.92644085997E+03  0.95976394354E+03  0.17175281892E+03 0.  0.
        -24    2    5    5    0    0  0.10331702628E+03  0.54705537151E+02  0.77430238783E+03  0.78723166401E+03  0.80761385042E+02 0.  0.
          5    1    3    3  501    0 -0.74145624228E+00 -0.62912283822E+02  0.65043343261E+02  0.90615846935E+02  0.47000000000E+01 0. -1.
        -11    1    4    4    0    0 -0.46075253346E+02 -0.27003343799E+02  0.87245306089E+02  0.10229297621E+03  0.00000000000E+00 0.  1.
         12    1    4    4    0    0 -0.78426345982E+02 -0.43010316166E+02  0.46551232447E+03  0.47402774526E+03  0.00000000000E+00 0. -1.
         -5    1    5    5    0  502  0.21926029291E+02  0.78220406637E+02  0.15213847214E+03  0.17253227953E+03  0.47000000000E+01 0.  1.
         13    1    6    6    0    0  0.13738389115E+02 -0.13739016979E+02  0.25969154263E+03  0.26041735970E+03  0.00000000000E+00 0. -1.
        -14    1    6    6    0    0  0.89578637164E+02  0.68444554130E+02  0.51461084520E+03  0.52681430431E+03  0.00000000000E+00 0.  1.
</event>
<event>
12    1  0.8493057E-002  0.2411966E+03  0.7818608E-02  0.1119056E+00
         21   -1    0    0  501  502  0.00000000000E+00  0.00000000000E+00  0.42648964904E+03  0.42648964904E+03  0.00000000000E+00 0.  1.
         21   -1    0    0  502  503 -0.00000000000E+00 -0.00000000000E+00 -0.14157354133E+03  0.14157354133E+03  0.00000000000E+00 0.  1.
         -6    2    1    2    0  503 -0.17256618384E+02 -0.16874772668E+03  0.19784112821E+03  0.31195661621E+03  0.17147079124E+03 0.  0.
        -24    2    3    3    0    0  0.48544933022E+02 -0.48769130282E+02  0.78059632131E+02  0.13003794052E+03  0.77984108745E+02 0.  0.
          6    2    1    2  501    0  0.17256618384E+02  0.16874772668E+03  0.87074979502E+02  0.25610657417E+03  0.17098227727E+03 0.  0.
         24    2    5    5    0    0  0.38198811604E+02  0.18455217094E+03  0.50052686899E+02  0.21048754234E+03  0.79253271289E+02 0.  0.
          5    1    5    5  501    0 -0.20942193220E+02 -0.15804444257E+02  0.37022292603E+02  0.45619031826E+02  0.47000000000E+01 0. -1.
        -11    1    6    6    0    0  0.55169320567E+02  0.14458478772E+03  0.59939162863E+02  0.16595516870E+03  0.00000000000E+00 0.  1.
         12    1    6    6    0    0 -0.16970508962E+02  0.39967383214E+02 -0.98864759646E+01  0.44532373645E+02  0.00000000000E+00 0. -1.
         -5    1    3    3    0  503 -0.65801551406E+02 -0.11997859640E+03  0.11978149607E+03  0.18191867568E+03  0.47000000000E+01 0.  1.
         13    1    4    4    0    0  0.58180723220E+02 -0.89367537737E+01  0.27541712236E+02  0.64987752964E+02  0.00000000000E+00 0. -1.
        -14    1    4    4    0    0 -0.96357901985E+01 -0.39832376508E+02  0.50517919896E+02  0.65050187560E+02  0.00000000000E+00 0.  1.
</event>
<event>
12    1  0.8493057E-002  0.2530611E+03  0.7818608E-02  0.1111696E+00
         21   -1    0    0  501  502  0.00000000000E+00  0.00000000000E+00  0.10179745538E+03  0.10179745538E+03  0.00000000000E+00 0.  1.
         21   -1    0    0  502  503 -0.00000000000E+00 -0.00000000000E+00 -0.62782291707E+03  0.62782291707E+03  0.00000000000E+00 0. -1.
         -6    2    1    2    0  503 -0.14392851346E+03  0.11430777078E+03 -0.28983475485E+03  0.38346145650E+03  0.17104625122E+03 0.  0.
        -24    2    3    3    0    0 -0.16524146106E+01  0.39682881848E+02 -0.11377450977E+03  0.14506963145E+03  0.80765693903E+02 0.  0.
          6    2    1    2  501    0  0.14392851346E+03 -0.11430777078E+03 -0.23619070684E+03  0.34615891595E+03  0.17394902024E+03 0.  0.
         24    2    5    5    0    0  0.32757736376E+02 -0.21462580996E+02 -0.27256488735E+02  0.91885896458E+02  0.78526365727E+02 0.  0.
          5    1    5    5  501    0  0.11117077708E+03 -0.92845189781E+02 -0.20893421811E+03  0.25427301949E+03  0.47000000000E+01 0. -1.
        -13    1    6    6    0    0  0.50268792800E+01 -0.30366776232E+02 -0.47369006522E+02  0.56491002761E+02  0.00000000000E+00 0.  1.
         14    1    6    6    0    0  0.27730857096E+02  0.89041952363E+01  0.20112517787E+02  0.35394893697E+02  0.00000000000E+00 0. -1.
         -5    1    3    3    0  503 -0.14227609885E+03  0.74624888929E+02 -0.17606024508E+03  0.23839182505E+03  0.47000000000E+01 0.  1.
         13    1    4    4    0    0 -0.30901798650E+02  0.30206004304E+02 -0.10429879126E+03  0.11289624314E+03  0.00000000000E+00 0. -1.
        -14    1    4    4    0    0  0.29249384039E+02  0.94768775442E+01 -0.94757185066E+01  0.32173388318E+02  0.00000000000E+00 0.  1.
</event>
<event>
12    1  0.8493057E-002  0.1933298E+03  0.7818608E-02  0.1155713E+00
         21   -1    0    0  501  502  0.00000000000E+00  0.00000000000E+00  0.52127825079E+03  0.52127825079E+03  0.00000000000E+00 0. -1.
         21   -1    0    0  502  503 -0.00000000000E+00 -0.00000000000E+00 -0.74056001118E+02  0.74056001118E+02  0.00000000000E+00 0.  1.
         -6    2    1    2    0  503  0.25948724056E+02  0.81464935857E+02  0.16594388907E+03  0.25402221108E+03  0.17227895213E+03 0.  0.
        -24    2    3    3    0    0  0.71413065611E+01  0.10471239430E+02  0.16207948791E+03  0.18032792717E+03  0.78024071938E+02 0.  0.
          6    2    1    2  501    0 -0.25948724056E+02 -0.81464935857E+02  0.28127836060E+03  0.34131204082E+03  0.17339700406E+03 0.  0.
         24    2    5    5    0    0  0.28900691386E+02 -0.10062913680E+03  0.15929997637E+03  0.20612128230E+03  0.78409357925E+02 0.  0.
          5    1    5    5  501    0 -0.54849415441E+02  0.19164200940E+02  0.12197838422E+03  0.13519075852E+03  0.47000000000E+01 0. -1.
        -13    1    6    6    0    0 -0.14540968813E+02 -0.18978867519E+02  0.24504718521E+01  0.24034183960E+02  0.00000000000E+00 0.  1.
         14    1    6    6    0    0  0.43441660199E+02 -0.81650269277E+02  0.15684950452E+03  0.18208709834E+03  0.00000000000E+00 0. -1.
         -5    1    3    3    0  503  0.18807417494E+02  0.70993696427E+02  0.38644011639E+01  0.73694283913E+02  0.47000000000E+01 0.  1.
         11    1    4    4    0    0 -0.24350573104E+02  0.19122268473E+00  0.13601078024E+03  0.13817351164E+03  0.00000000000E+00 0. -1.
        -12    1    4    4    0    0  0.31491879666E+02  0.10280016745E+02  0.26068707662E+02  0.42154415526E+02  0.00000000000E+00 0.  1.
</event>
<event>
12    1  0.8493057E-002  0.1865338E+03  0.7818608E-02  0.1162777E+00
         21   -1    0    0  501  502  0.00000000000E+00  0.00000000000E+00  0.22084297020E+02  0.22084297020E+02  0.00000000000E+00 0.  1.
         21   -1    0    0  502  503 -0.00000000000E+00 -0.00000000000E+00 -0.22818083405E+04  0.22818083405E+04  0.00000000000E+00 0.  1.
         -6    2    1    2    0  503  0.13267196848E+02 -0.60178801741E+02 -0.17790060995E+04  0.17882526619E+04  0.17084312710E+03 0.  0.
        -24    2    3    3    0    0 -0.28118167438E+01  0.28203113913E+02 -0.10867517199E+04  0.10901780858E+04  0.81582082416E+02 0.  0.
          6    2    1    2  501    0 -0.13267196848E+02  0.60178801741E+02 -0.48071794405E+03  0.51563997568E+03  0.17606060347E+03 0.  0.
         24    2    5    5    0    0  0.30502136345E+02 -0.45886689873E+00 -0.38277506653E+03  0.39232096399E+03  0.80426341150E+02 0.  0.
          5    1    5    5  501    0 -0.43769333193E+02  0.60637668640E+02 -0.97942877515E+02  0.12331901168E+03  0.47000000000E+01 0. -1.
        -11    1    6    6    0    0  0.33246664170E+01  0.12331779503E+02 -0.55900263646E+01  0.13941828691E+02  0.00000000000E+00 0.  1.
         12    1    6    6    0    0  0.27177469928E+02 -0.12790646402E+02 -0.37718504017E+03  0.37837913530E+03  0.00000000000E+00 0. -1.
         -5    1    3    3    0  503  0.16079013592E+02 -0.88381915654E+02 -0.69225437961E+03  0.69807457609E+03  0.47000000000E+01 0.  1.
         13    1    4    4    0    0 -0.87543436426E+01  0.44654789571E+02 -0.10246492239E+04  0.10256591641E+04  0.00000000000E+00 0. -1.
        -14    1    4    4    0    0  0.59425268988E+01 -0.16451675658E+02 -0.62102495966E+02  0.64518921744E+02  0.00000000000E+00 0.  1.
</event>
<event>
12    1  0.8493057E-002  0.1992207E+03  0.7818608E-02  0.1150509E+00
         21   -1    0    0  503  502  0.00000000000E+00  0.00000000000E+00  0.33123102824E+03  0.33123102824E+03  0.00000000000E+00 0.  1.
         21   -1    0    0  501  503 -0.00000000000E+00 -0.00000000000E+00 -0.44316020965E+03  0.44316020965E+03  0.00000000000E+00 0.  1.
          6    2    1    2  501    0 -0.21556838647E+02 -0.98964023793E+02 -0.38683834449E+03  0.43488581680E+03  0.17094792653E+03 0.  0.
         24    2    3    3    0    0 -0.31399545343E+02 -0.46329183101E+02 -0.86159269900E+02  0.12943974754E+03  0.78733117546E+02 0.  0.
         -6    2    1    2    0  502  0.21556838647E+02  0.98964023793E+02  0.27490916309E+03  0.33950542109E+03  0.17155263829E+03 0.  0.
        -24    2    5    5    0    0 -0.36561461397E+02  0.17160669817E+02  0.17531635564E+03  0.19804750220E+03  0.82799514041E+02 0.  0.
          5    1    3    3  501    0  0.98427066963E+01 -0.52634840693E+02 -0.30067907459E+03  0.30544606926E+03  0.47000000000E+01 0. -1.
        -13    1    4    4    0    0 -0.16615416664E+02 -0.34948082691E+02 -0.99330224144E+02  0.10660175413E+03  0.00000000000E+00 0.  1.
         14    1    4    4    0    0 -0.14784128679E+02 -0.11381100410E+02  0.13170954244E+02  0.22837993411E+02  0.00000000000E+00 0. -1.
         -5    1    5    5    0  502  0.58118300044E+02  0.81803353977E+02  0.99592807445E+02  0.14145791889E+03  0.47000000000E+01 0.  1.
         13    1    6    6    0    0 -0.34025274143E+02  0.36824880231E+02  0.48727647680E+02  0.69915482784E+02  0.00000000000E+00 0. -1.
        -14    1    6    6    0    0 -0.25361872548E+01 -0.19664210415E+02  0.12658870796E+03  0.12813201942E+03  0.00000000000E+00 0.  1.
</event>
<event>
12    1  0.8493057E-002  0.2622240E+03  0.7818608E-02  0.1106126E+00
         21   -1    0    0  503  502  0.00000000000E+00  0.00000000000E+00  0.24631227131E+02  0.24631227131E+02  0.00000000000E+00 0. -1.
         21   -1    0    0  501  503 -0.00000000000E+00 -0.00000000000E+00 -0.36611335312E+04  0.36611335312E+04  0.00000000000E+00 0.  1.
          6    2    1    2  501    0  0.18800291748E+03 -0.52142143962E+02 -0.91426903807E+03  0.95113054909E+03  0.17520715536E+03 0.  0.
         24    2    3    3    0    0  0.12442571264E+03 -0.18121165886E+02 -0.81655063252E+03  0.82959674841E+03  0.75270810315E+02 0.  0.
         -6    2    1    2    0  502 -0.18800291748E+03  0.52142143962E+02 -0.27222332660E+04  0.27346342093E+04  0.17206511457E+03 0.  0.
        -24    2    5    5    0    0 -0.36008414096E+02 -0.18429125402E+01 -0.13626925272E+04  0.13655506377E+04  0.80607805041E+02 0.  0.
          5    1    3    3  501    0  0.63577204848E+02 -0.34020978076E+02 -0.97718405544E+02  0.12153380068E+03  0.47000000000E+01 0. -1.
        -11    1    4    4    0    0  0.56272267862E+02 -0.38144701861E+02 -0.26898466657E+03  0.27744249361E+03  0.00000000000E+00 0.  1.
         12    1    4    4    0    0  0.68153444774E+02  0.20023535975E+02 -0.54756596595E+03  0.55215425481E+03  0.00000000000E+00 0. -1.
         -5    1    5    5    0  502 -0.15199450339E+03  0.53985056503E+02 -0.13595407388E+04  0.13690835716E+04  0.47000000000E+01 0.  1.
         11    1    6    6    0    0 -0.15178623119E+02  0.33347553045E+02 -0.32611278432E+03  0.32816458979E+03  0.00000000000E+00 0. -1.
        -12    1    6    6    0    0 -0.20829790977E+02 -0.35190465586E+02 -0.10365797429E+04  0.10373860479E+04  0.00000000000E+00 0.  1.
</event>
<event>
12    1  0.8493057E-002  0.1944963E+03  0.7818608E-02  0.1154580E+00
         21   -1    0    0  501  502  0.00000000000E+00  0.00000000000E+00  0.44451543707E+03  0.44451543707E+03  0.00000000000E+00 0. -1.
         21   -1    0    0  502  503 -0.00000000000E+00 -0.00000000000E+00 -0.15783147975E+03  0.15783147975E+03  0.00000000000E+00 0. -1.
         -6    2    1    2    0  503 -0.74643668279E+02 -0.50014245747E+02 -0.61316829988E+02  0.20393269796E+03  0.17249837584E+03 0.  0.
        -24    2    3    3    0    0 -0.10284385938E+03 -0.58731310318E+02 -0.84693328755E+02  0.16598815043E+03  0.79704955454E+02 0.  0.
          6    2    1    2  501    0  0.74643668279E+02  0.50014245747E+02  0.34800078730E+03  0.39841421886E+03  0.17191928290E+03 0.  0.
         24    2    5    5    0    0 -0.25728369159E+02  0.36483977079E+02  0.17759749942E+03  0.20012910950E+03  0.80732639668E+02 0.  0.
          5    1    5    5  501    0  0.10037203744E+03  0.13530268668E+02  0.17040328789E+03  0.19828510935E+03  0.47000000000E+01 0. -1.
        -11    1    6    6    0    0 -0.10092648285E+02  0.48293557500E+02  0.47236928261E+02  0.68304148021E+02  0.00000000000E+00 0.  1.
         12    1    6    6    0    0 -0.15635720874E+02 -0.11809580422E+02  0.13036057116E+03  0.13182496148E+03  0.00000000000E+00 0. -1.
         -5    1    3    3    0  503  0.28200191101E+02  0.87170645707E+01  0.23376498767E+02  0.37944547532E+02  0.47000000000E+01 0.  1.
         13    1    4    4    0    0 -0.18989383082E+02 -0.52868696235E+02 -0.49449660216E+02  0.74839592509E+02  0.00000000000E+00 0. -1.
        -14    1    4    4    0    0 -0.83854476297E+02 -0.58626140827E+01 -0.35243668540E+02  0.91148557921E+02  0.00000000000E+00 0.  1.
</event>
<event>
12    1  0.8493057E-002  0.1823275E+03  0.7818608E-02  0.1165843E+00
         21   -1    0    0  501  502  0.00000000000E+00  0.00000000000E+00  0.12526624731E+04  0.12526624731E+04  0.00000000000E+00 0. -1.
         21   -1    0    0  502  503 -0.00000000000E+00 -0.00000000000E+00 -0.46965642292E+02  0.46965642292E+02  0.00000000000E+00 0.  1.
         -6    2    1    2    0  503 -0.54463695885E+02  0.21576709320E+02  0.17361680041E+03  0.25176600869E+03  0.17266001619E+03 0.  0.
        -24    2    3    3    0    0 -0.10553670243E+02  0.72824946220E+02  0.74002323449E+02  0.13135169825E+03  0.79762597809E+02 0.  0.
          6    2    1    2  501    0  0.54463695885E+02 -0.21576709320E+02  0.10320800304E+04  0.10478621067E+04  0.17144665927E+03 0.  0.
         24    2    5    5    0    0  0.50643279707E+02  0.33099835738E+02  0.36696550802E+03  0.38047650750E+03  0.80239315642E+02 0.  0.
          5    1    5    5  501    0  0.38204161775E+01 -0.54676545058E+02  0.66511452237E+03  0.66738559920E+03  0.47000000000E+01 0. -1.
        -11    1    6    6    0    0 -0.10009802303E+02 -0.18303306378E+02  0.68827352808E+02  0.71919480401E+02  0.00000000000E+00 0.  1.
         12    1    6    6    0    0  0.60653082011E+02  0.51403142116E+02  0.29813815521E+03  0.30855702710E+03  0.00000000000E+00 0. -1.
         -5    1    3    3    0  503 -0.43910025641E+02 -0.51248236900E+02  0.99614476966E+02  0.12041431044E+03  0.47000000000E+01 0.  1.
         13    1    4    4    0    0 -0.20730555715E+02  0.23844672458E+02  0.74927274523E+02  0.81316792929E+02  0.00000000000E+00 0. -1.
        -14    1    4    4    0    0  0.10176885472E+02  0.48980273763E+02 -0.92495107436E+00  0.50034905319E+02  0.00000000000E+00 0.  1.
</event>
<event>
12    1  0.8493057E-002  0.2166997E+03  0.7818608E-02  0.1136514E+00
         21   -1    0    0  503  502  0.00000000000E+00  0.00000000000E+00  0.15360705056E+04  0.15360705056E+04  0.00000000000E+00 0.  1.
         21   -1    0    0  501  503 -0.00000000000E+00 -0.00000000000E+00 -0.34447560980E+02  0.34447560980E+02  0.00000000000E+00 0. -1.
          6    2    1    2  501    0  0.13134545312E+03 -0.88256072311E+00  0.10167168084E+04  0.10393940500E+04  0.17138995249E+03 0.  0.
         24    2    3    3    0    0  0.92050587728E+02  0.35215486126E+02  0.37659594885E+03  0.39703592542E+03  0.78099783765E+02 0.  0.
         -6    2    1    2    0  502 -0.13134545312E+03  0.88256072311E+00  0.48490613624E+03  0.53112401655E+03  0.17235531042E+03 0.  0.
        -24    2    5    5    0    0 -0.47404100632E+02 -0.31165714527E+01  0.10138865698E+03  0.13847927813E+03  0.81486127242E+02 0.  0.
          5    1    3    3  501    0  0.39294865390E+02 -0.36098046850E+02  0.64012085952E+03  0.64235812459E+03  0.47000000000E+01 0. -1.
        -13    1    4    4    0    0  0.69078953703E+02  0.59459225147E+02  0.29831176841E+03  0.31192501098E+03  0.00000000000E+00 0.  1.
         14    1    4    4    0    0  0.22971634025E+02 -0.24243739020E+02  0.78284180433E+02  0.85110914444E+02  0.00000000000E+00 0. -1.
         -5    1    5    5    0  502 -0.83941352487E+02  0.39991321758E+01  0.38351747926E+03  0.39264473842E+03  0.47000000000E+01 0. -1.
         11    1    6    6    0    0  0.99885611317E+01  0.27474232075E+02  0.33614815615E+02  0.44548407496E+02  0.00000000000E+00 0. -1.
        -12    1    6    6    0    0 -0.57392661764E+02 -0.30590803528E+02  0.67773841367E+02  0.93930870636E+02  0.00000000000E+00 0.  1.
</event>
<event>
12    1  0.8493057E-002  0.2922071E+03  0.7818608E-02  0.1089459E+00
         21   -1    0    0  501  502  0.00000000000E+00  0.00000000000E+00  0.24292076342E+03  0.24292076342E+03  0.00000000000E+00 0. -1.
         21   -1    0    0  502  503 -0.00000000000E+00 -0.00000000000E+00 -0.54544225907E+03  0.54544225907E+03  0.00000000000E+00 0.  1.
         -6    2    1    2    0  503  0.11157651758E+03  0.20651319834E+03 -0.38741974773E+03  0.48407252709E+03  0.17069015844E+03 0.  0.
        -24    2    3    3    0    0  0.12559141624E+03  0.14697868987E+03 -0.36089432876E+03  0.41724092577E+03  0.80432173271E+02 0.  0.
          6    2    1    2  501    0 -0.11157651758E+03 -0.20651319834E+03  0.84898252084E+02  0.30429049540E+03  0.17403439896E+03 0.  0.
         24    2    5    5    0    0 -0.11321638346E+03 -0.20389793107E+03  0.11597253149E+03  0.27271155267E+03  0.80806231954E+02 0.  0.
          5    1    5    5  501    0  0.16398658822E+01 -0.26152672746E+01 -0.31074279411E+02  0.31578942730E+02  0.47000000000E+01 0. -1.
        -13    1    6    6    0    0  0.12339531783E+02 -0.10664477126E+02  0.93387528287E+01  0.18793813380E+02  0.00000000000E+00 0.  1.
         14    1    6    6    0    0 -0.12555591524E+03 -0.19323345394E+03  0.10663377867E+03  0.25391773929E+03  0.00000000000E+00 0. -1.
         -5    1    3    3    0  503 -0.14014898660E+02  0.59534508476E+02 -0.26525418973E+02  0.66831601324E+02  0.47000000000E+01 0.  1.
         11    1    4    4    0    0  0.69957721460E+02  0.11476655099E+03 -0.17575732136E+03  0.22126020887E+03  0.00000000000E+00 0. -1.
        -12    1    4    4    0    0  0.55633694778E+02  0.32212138873E+02 -0.18513700740E+03  0.19598071690E+03  0.00000000000E+00 0.  1.
</event>
<event>
12    1  0.8493057E-002  0.1768076E+03  0.7818608E-02  0.1171233E+00
         21   -1    0    0  503  502  0.00000000000E+00  0.00000000000E+00  0.25428482484E+02  0.25428482484E+02  0.00000000000E+00 0. -1.
         21   -1    0    0  501  503 -0.00000000000E+00 -0.00000000000E+00 -0.12267344414E+04  0.12267344414E+04  0.00000000000E+00 0. -1.
          6    2    1    2  501    0  0.71285902578E+01  0.40109269209E+02 -0.64599672596E+03  0.66975570426E+03  0.17205046688E+03 0.  0.
         24    2    3    3    0    0 -0.37491676619E+02 -0.28522291596E+02 -0.29012276515E+03  0.30455764109E+03  0.79780893420E+02 0.  0.
         -6    2    1    2    0  502 -0.71285902578E+01 -0.40109269209E+02 -0.55530923299E+03  0.58240721966E+03  0.17079301800E+03 0.  0.
        -24    2    5    5    0    0 -0.39581103926E+02 -0.46204150386E+02 -0.18697625030E+03  0.21256726866E+03  0.80766566287E+02 0.  0.
          5    1    3    3  501    0  0.44620266877E+02  0.68631560806E+02 -0.35587396081E+03  0.36519806317E+03  0.47000000000E+01 0. -1.
        -13    1    4    4    0    0 -0.42914128997E+02  0.14710011562E+02 -0.19043477442E+03  0.19576365907E+03  0.00000000000E+00 0.  1.
         14    1    4    4    0    0  0.54224523778E+01 -0.43232303159E+02 -0.99687990736E+02  0.10879398202E+03  0.00000000000E+00 0. -1.
         -5    1    5    5    0  502  0.32452513668E+02  0.60948811769E+01 -0.36833298269E+03  0.36983995100E+03  0.47000000000E+01 0.  1.
         13    1    6    6    0    0 -0.35697571697E+02 -0.24565945136E+02 -0.18554360530E+03  0.19053669398E+03  0.00000000000E+00 0. -1.
        -14    1    6    6    0    0 -0.38835322292E+01 -0.21638205250E+02 -0.14326449971E+01  0.22030574679E+02  0.00000000000E+00 0.  1.
</event>
<event>
12    1  0.8493057E-002  0.2141090E+03  0.7818608E-02  0.1138480E+00
         21   -1    0    0  503  502  0.00000000000E+00  0.00000000000E+00  0.23835482510E+03  0.23835482510E+03  0.00000000000E+00 0. -1.
         21   -1    0    0  501  503 -0.00000000000E+00 -0.00000000000E+00 -0.75048122468E+03  0.75048122468E+03  0.00000000000E+00 0. -1.
          6    2    1    2  501    0  0.12106431490E+03 -0.39398010717E+02 -0.68257142645E+03  0.71516802858E+03  0.17132654583E+03 0.  0.
         24    2    3    3    0    0  0.10408617863E+02  0.16001520905E+02 -0.36092538546E+03  0.37050579236E+03  0.81504725668E+02 0.  0.
         -6    2    1    2    0  502 -0.12106431490E+03  0.39398010717E+02  0.17044502688E+03  0.27366802120E+03  0.17214501750E+03 0.  0.
        -24    2    5    5    0    0 -0.12951804041E+03  0.56637177844E+02  0.78714216615E+02  0.17983153624E+03  0.78490514225E+02 0.  0.
          5    1    3    3  501    0  0.11065569704E+03 -0.55399531623E+02 -0.32164604099E+03  0.34466223622E+03  0.47000000000E+01 0. -1.
        -11    1    4    4    0    0 -0.28824733898E+02  0.17720530027E+02 -0.80180234917E+02  0.87027309162E+02  0.00000000000E+00 0.  1.
         12    1    4    4    0    0  0.39233351762E+02 -0.17190091216E+01 -0.28074515054E+03  0.28347848320E+03  0.00000000000E+00 0. -1.
         -5    1    5    5    0  502  0.84537255098E+01 -0.17239167127E+02  0.91730810262E+02  0.93836484959E+02  0.47000000000E+01 0.  1.
         11    1    6    6    0    0 -0.46589020714E+02 -0.16318656378E+02  0.12026549033E+02  0.50808200900E+02  0.00000000000E+00 0. -1.
        -12    1    6    6    0    0 -0.82929019699E+02  0.72955834222E+02  0.66687667582E+02  0.12902333534E+03  0.00000000000E+00 0.  1.
</event>
<event>
12    1  0.8493057E-002  0.1732975E+03  0.7818608E-02  0.1174527E+00
         21   -1    0    0  501  502  0.00000000000E+00  0.00000000000E+00  0.72090985661E+03  0.72090985661E+03  0.00000000000E+00 0. -1.
         21   -1    0    0  502  503 -0.00000000000E+00 -0.00000000000E+00 -0.51721898172E+02  0.51721898172E+02  0.00000000000E+00 0. -1.
         -6    2    1    2    0  503  0.16912866620E+02  0.12475506956E+02  0.50582545083E+03  0.53468814034E+03  0.17201842162E+03 0.  0.
        -24    2    3    3    0    0 -0.59332676914E+02 -0.27284885650E+00  0.28929171636E+03  0.30472107389E+03  0.75131848923E+02 0.  0.
          6    2    1    2  501    0 -0.16912866620E+02 -0.12475506956E+02  0.16336250761E+03  0.23794361445E+03  0.17172120264E+03 0.  0.
         24    2    5    5    0    0  0.31455398571E+02 -0.61953127659E+02  0.92452840467E+02  0.13875795560E+03  0.76672096652E+02 0.  0.
          5    1    5    5  501    0 -0.48368265191E+02  0.49477620703E+02  0.70909667143E+02  0.99185658854E+02  0.47000000000E+01 0. -1.
        -13    1    6    6    0    0  0.27407344133E+02 -0.34568057078E+02  0.10064489736E+03  0.10988861837E+03  0.00000000000E+00 0.  1.
         14    1    6    6    0    0  0.40480544379E+01 -0.27385070581E+02 -0.81920568978E+01  0.28869337223E+02  0.00000000000E+00 0. -1.
         -5    1    3    3    0  503  0.76245543534E+02  0.12748355812E+02  0.21653373448E+03  0.22996706645E+03  0.47000000000E+01 0.  1.
         13    1    4    4    0    0 -0.24787042343E+02  0.15649130663E+02  0.24319989947E+03  0.24496016791E+03  0.00000000000E+00 0. -1.
        -14    1    4    4    0    0 -0.34545634571E+02 -0.15921979519E+02  0.46091816884E+02  0.59760905979E+02  0.00000000000E+00 0.  1.
</event>
<event>
12    1  0.8493057E-002  0.2018651E+03  0.7818608E-02  0.1149000E+00
         21   -1    0    0  503  502  0.00000000000E+00  0.00000000000E+00  0.94517209170E+02  0.94517209170E+02  0.00000000000E+00 0. -1.
         21   -1    0    0  501  503 -0.00000000000E+00 -0.00000000000E+00 -0.44455555022E+03  0.44455555022E+03  0.00000000000E+00 0. -1.
          6    2    1    2  501    0  0.98882981237E+02 -0.35701870117E+02 -0.23300071688E+03  0.30573326241E+03  0.16772306391E+03 0.  0.
         24    2    3    3    0    0  0.68668941901E+01  0.11064676598E+02 -0.53266076585E+02  0.98415387905E+02  0.81723511658E+02 0.  0.
         -6    2    1    2    0  502 -0.98882981237E+02  0.35701870117E+02 -0.11703762417E+03  0.23333949698E+03  0.17232831419E+03 0.  0.
        -24    2    5    5    0    0 -0.10130833370E+03  0.67506501401E+02 -0.43413058624E+02  0.15296485199E+03  0.81811038837E+02 0.  0.
          5    1    3    3  501    0  0.92016087046E+02 -0.46766546715E+02 -0.17973464029E+03  0.20731787450E+03  0.47000000000E+01 0. -1.
        -13    1    4    4    0    0  0.73726674221E+01 -0.58738841500E+01  0.20587284739E+02  0.22642769991E+02  0.00000000000E+00 0.  1.
         14    1    4    4    0    0 -0.50577323199E+00  0.16938560748E+02 -0.73853361324E+02  0.75772617914E+02  0.00000000000E+00 0. -1.
         -5    1    5    5    0  502  0.24253524661E+01 -0.31804631284E+02 -0.73624565551E+02  0.80374644996E+02  0.47000000000E+01 0.  1.
         13    1    6    6    0    0 -0.93804177357E+02  0.72314785688E+02 -0.61015357804E+02  0.13323485207E+03  0.00000000000E+00 0. -1.
        -14    1    6    6    0    0 -0.75041563451E+01 -0.48082842876E+01  0.17602299180E+02  0.19729999915E+02  0.00000000000E+00 0.  1.
</event>
<event>
12    1  0.8493057E-002  0.1810713E+03  0.7818608E-02  0.1167201E+00
         21   -1    0    0  503  502  0.00000000000E+00  0.00000000000E+00  0.45765871366E+02  0.45765871366E+02  0.00000000000E+00 0.  1.
         21   -1    0    0  501  503 -0.00000000000E+00 -0.00000000000E+00 -0.14070324146E+04  0.14070324146E+04  0.00000000000E+00 0.  1.
          6    2    1    2  501    0 -0.23493029451E+02 -0.47722482188E+02 -0.11904338557E+04  0.12038593004E+04  0.17121650780E+03 0.  0.
         24    2    3    3    0    0 -0.50644127549E+02 -0.46155874341E+02 -0.42233092699E+03  0.43526068244E+03  0.79957847602E+02 0.  0.
         -6    2    1    2    0  502  0.23493029451E+02  0.47722482188E+02 -0.17083268748E+03  0.24893898555E+03  0.17308221652E+03 0.  0.
        -24    2    5    5    0    0 -0.38785642674E+02  0.24085136326E+02 -0.14468053272E+03  0.17722160746E+03  0.91600336974E+02 0.  0.
          5    1    3    3  501    0  0.27151098098E+02 -0.15666078467E+01 -0.76810292872E+03  0.76859861794E+03  0.47000000000E+01 0. -1.
        -11    1    4    4    0    0 -0.18612954809E+02 -0.17309742931E+02 -0.35098384723E+03  0.35190301264E+03  0.00000000000E+00 0.  1.
         12    1    4    4    0    0 -0.32031172739E+02 -0.28846131410E+02 -0.71347079762E+02  0.83357669803E+02  0.00000000000E+00 0. -1.
         -5    1    5    5    0  502  0.62278672125E+02  0.23637345862E+02 -0.26152154763E+02  0.71717378088E+02  0.47000000000E+01 0.  1.
         13    1    6    6    0    0 -0.56209236856E+02  0.59977858270E+01 -0.39194355781E+02  0.68786984727E+02  0.00000000000E+00 0. -1.
        -14    1    6    6    0    0  0.17423594183E+02  0.18087350499E+02 -0.10548617694E+03  0.10843462274E+03  0.00000000000E+00 0.  1.
</event>
<event>
12    1  0.8493057E-002  0.1841720E+03  0.7818608E-02  0.1163851E+00
         21   -1    0    0  503  502  0.00000000000E+00  0.00000000000E+00  0.11519426662E+04  0.11519426662E+04  0.00000000000E+00 0.  1.
         21   -1    0    0  501  503 -0.00000000000E+00 -0.00000000000E+00 -0.34478074445E+02  0.34478074445E+02  0.00000000000E+00 0.  1.
          6    2    1    2  501    0 -0.44930370926E+02  0.48900551600E+02  0.33155105183E+03  0.37921603902E+03  0.17166450449E+03 0.  0.
         24    2    3    3    0    0  0.25050345863E+01  0.67691109378E+02  0.30282491596E+03  0.32047522153E+03  0.80081685809E+02 0.  0.
         -6    2    1    2    0  502  0.44930370926E+02 -0.48900551600E+02  0.78591353991E+03  0.80720470161E+03  0.17178281610E+03 0.  0.
        -24    2    5    5    0    0 -0.44744346483E+01  0.28134384168E+02  0.48277738584E+03  0.49052057816E+03  0.82005299693E+02 0.  0.
          5    1    3    3  501    0 -0.47435405512E+02 -0.18790557778E+02  0.28726135876E+02  0.58740817496E+02  0.47000000000E+01 0. -1.
        -13    1    4    4    0    0  0.40459045281E+02  0.26985129058E+02  0.12425564159E+03  0.13343386378E+03  0.00000000000E+00 0.  1.
         14    1    4    4    0    0 -0.37954010695E+02  0.40705980320E+02  0.17856927437E+03  0.18704135775E+03  0.00000000000E+00 0. -1.
         -5    1    5    5    0  502  0.49404805574E+02 -0.77034935767E+02  0.30313615407E+03  0.31668412345E+03  0.47000000000E+01 0.  1.
         11    1    6    6    0    0  0.14899673247E+02 -0.10038635020E+02  0.36084434691E+03  0.36129131896E+03  0.00000000000E+00 0. -1.
        -12    1    6    6    0    0 -0.19374107896E+02  0.38173019188E+02  0.12193303893E+03  0.12922925920E+03  0.00000000000E+00 0.  1.
</event>
<event>
12    1  0.8493057E-002  0.2129431E+03  0.7818608E-02  0.1139589E+00
         21   -1    0    0  503  502  0.00000000000E+00  0.00000000000E+00  0.67261183572E+03  0.67261183572E+03  0.00000000000E+00 0.  1.
         21   -1    0    0  501  503 -0.00000000000E+00 -0.00000000000E+00 -0.72151952095E+02  0.72151952095E+02  0.00000000000E+00 0. -1.
          6    2    1    2  501    0 -0.29675392322E+00  0.12465772556E+03  0.40202005932E+03  0.45493395745E+03  0.17264165472E+03 0.  0.
         24    2    3    3    0    0  0.22390427285E+02  0.15458202289E+03  0.32383947759E+03  0.36807507695E+03  0.78805596186E+02 0.  0.
         -6    2    1    2    0  502  0.29675392322E+00 -0.12465772556E+03  0.19843982430E+03  0.28982983036E+03  0.17053835373E+03 0.  0.
        -24    2    5    5    0    0 -0.40540288575E+02 -0.91485853674E+02  0.19999116656E+03  0.23698540031E+03  0.78437470882E+02 0.  0.
          5    1    3    3  501    0 -0.22687181208E+02 -0.29924297338E+02  0.78180581727E+02  0.86858880499E+02  0.47000000000E+01 0. -1.
        -11    1    4    4    0    0 -0.19261264006E+02  0.10037825013E+03  0.15231056675E+03  0.18342654697E+03  0.00000000000E+00 0.  1.
         12    1    4    4    0    0  0.41651691291E+02  0.54203772764E+02  0.17152891084E+03  0.18464852998E+03  0.00000000000E+00 0. -1.
         -5    1    5    5    0  502  0.40837042498E+02 -0.33171871881E+02 -0.15513422605E+01  0.52844430046E+02  0.47000000000E+01 0.  1.
         13    1    6    6    0    0 -0.23439829981E+01 -0.40609548595E+02  0.18536921787E+02  0.44701757938E+02  0.00000000000E+00 0. -1.
        -14    1    6    6    0    0 -0.38196305577E+02 -0.50876305079E+02  0.18145424477E+03  0.19228364237E+03  0.00000000000E+00 0.  1.
</event>
<event>
12    1  0.8493057E-002  0.2765474E+03  0.7818608E-02  0.1097624E+00
         21   -1    0    0  501  502  0.00000000000E+00  0.00000000000E+00  0.30374435505E+03  0.30374435505E+03  0.00000000000E+00 0. -1.
         21   -1    0    0  502  503 -0.00000000000E+00 -0.00000000000E+00 -0.28518702016E+03  0.28518702016E+03  0.00000000000E+00 0.  1.
         -6    2    1    2    0  503  0.11919487586E+03 -0.18116728003E+03  0.11039059324E+03  0.29776589323E+03  0.17160839813E+03 0.  0.
        -24    2    3    3    0    0  0.13369758442E+03 -0.19593260341E+03  0.82977334499E+02  0.26309717411E+03  0.77911846480E+02 0.  0.
          6    2    1    2  501    0 -0.11919487586E+03  0.18116728003E+03 -0.91833258356E+02  0.29116548199E+03  0.17121620477E+03 0.  0.
         24    2    5    5    0    0 -0.96477437765E+02  0.20577121430E+03 -0.69052251785E+02  0.25039171793E+03  0.79234527191E+02 0.  0.
          5    1    5    5  501    0 -0.22717438098E+02 -0.24603934269E+02 -0.22781006571E+02  0.40773764060E+02  0.47000000000E+01 0. -1.
        -11    1    6    6    0    0 -0.63875955384E+02  0.83432319109E+02 -0.65327533767E+02  0.12372863943E+03  0.00000000000E+00 0.  1.
         12    1    6    6    0    0 -0.32601482382E+02  0.12233889519E+03 -0.37247180178E+01  0.12666307849E+03  0.00000000000E+00 0. -1.
         -5    1    3    3    0  503 -0.14502708558E+02  0.14765323388E+02  0.27413258745E+02  0.34668719118E+02  0.47000000000E+01 0.  1.
         13    1    4    4    0    0  0.10569545305E+03 -0.88757206727E+02  0.35050065419E+02  0.14240041302E+03  0.00000000000E+00 0. -1.
        -14    1    4    4    0    0  0.28002131372E+02 -0.10717539669E+03  0.47927269081E+02  0.12069676109E+03  0.00000000000E+00 0.  1.
</event>
<event>
12    1  0.8493057E-002  0.2082308E+03  0.7818608E-02  0.1142998E+00
         21   -1    0    0  503  502  0.00000000000E+00  0.00000000000E+00  0.30761656424E+03  0.30761656424E+03  0.00000000000E+00 0. -1.
         21   -1    0    0  501  503 -0.00000000000E+00 -0.00000000000E+00 -0.14157672153E+03  0.14157672153E+03  0.00000000000E+00 0. -1.
          6    2    1    2  501    0  0.10022170747E+03 -0.61275869655E+02  0.98838824371E+02  0.23049770130E+03  0.17193299350E+03 0.  0.
         24    2    3    3    0    0  0.12319440207E+03 -0.21338190296E+02  0.10581761911E+03  0.18366228195E+03  0.83079998989E+02 0.  0.
         -6    2    1    2    0  502 -0.10022170747E+03  0.61275869655E+02  0.67201018332E+02  0.21869558447E+03  0.17179248805E+03 0.  0.
        -24    2    5    5    0    0 -0.11039994422E+03  0.53805068089E+02 -0.26252691733E+01  0.14758152253E+03  0.81794136203E+02 0.  0.
          5    1    3    3  501    0 -0.22972694596E+02 -0.39937679359E+02 -0.69787947401E+01  0.46835419349E+02  0.47000000000E+01 0. -1.
        -13    1    4    4    0    0  0.10298209155E+02  0.14770993328E+02  0.49027565714E+02  0.52229661645E+02  0.00000000000E+00 0.  1.
         14    1    4    4    0    0  0.11289619291E+03 -0.36109183624E+02  0.56790053397E+02  0.13143262031E+03  0.00000000000E+00 0. -1.
         -5    1    5    5    0  502  0.10178236749E+02  0.74708015659E+01  0.69826287505E+02  0.71114061944E+02  0.47000000000E+01 0.  1.
         13    1    6    6    0    0 -0.10175371851E+03  0.69824139894E+02  0.12331755289E+02  0.12402137691E+03  0.00000000000E+00 0. -1.
        -14    1    6    6    0    0 -0.86462257063E+01 -0.16019071806E+02 -0.14957024462E+02  0.23560145611E+02  0.00000000000E+00 0.  1.
</event>
<event>
12    1  0.8493057E-002  0.1997355E+03  0.7818608E-02  0.1150269E+00
         21   -1    0    0  501  502  0.00000000000E+00  0.00000000000E+00  0.36521145537E+03  0.36521145537E+03  0.00000000000E+00 0.  1.
         21   -1    0    0  502  503 -0.00000000000E+00 -0.00000000000E+00 -0.87824241434E+03  0.87824241434E+03  0.00000000000E+00 0.  1.
         -6    2    1    2    0  503 -0.11596068681E+02  0.99317850921E+02 -0.83870628948E+03  0.86216152979E+03  0.17290390137E+03 0.  0.
        -24    2    3    3    0    0 -0.50067135303E+02  0.11260571398E+03 -0.75365064507E+03  0.76775208684E+03  0.79165694408E+02 0.  0.
          6    2    1    2  501    0  0.11596068681E+02 -0.99317850921E+02  0.32567533051E+03  0.38129233992E+03  0.17123353427E+03 0.  0.
         24    2    5    5    0    0  0.39170623140E+02 -0.54129999020E+02  0.85231253821E+02  0.13504502110E+03  0.80674634081E+02 0.  0.
          5    1    5    5  501    0 -0.27574554460E+02 -0.45187851901E+02  0.24044407669E+03  0.24624731882E+03  0.47000000000E+01 0. -1.
        -11    1    6    6    0    0  0.15406366280E+01 -0.13417124687E+02  0.77971034465E+02  0.79132010031E+02  0.00000000000E+00 0.  1.
         12    1    6    6    0    0  0.37629986512E+02 -0.40712874333E+02  0.72602193566E+01  0.55913011066E+02  0.00000000000E+00 0. -1.
         -5    1    3    3    0  503  0.38471066622E+02 -0.13287863057E+02 -0.85055644408E+02  0.94409442946E+02  0.47000000000E+01 0.  1.
         13    1    4    4    0    0  0.85668373524E+01  0.75898213082E+02 -0.35245044916E+03  0.36063173538E+03  0.00000000000E+00 0. -1.
        -14    1    4    4    0    0 -0.58633972655E+02  0.36707500896E+02 -0.40120019592E+03  0.40712035146E+03  0.00000000000E+00 0.  1.
</event>
<event>
12    1  0.8493057E-002  0.2989219E+03  0.7818608E-02  0.1085919E+00
         21   -1    0    0  503  502  0.00000000000E+00  0.00000000000E+00  0.81113286066E+02  0.81113286066E+02  0.00000000000E+00 0.  1.
         21   -1    0    0  501  503 -0.00000000000E+00 -0.00000000000E+00 -0.11094074155E+04  0.11094074155E+04  0.00000000000E+00 0. -1.
          6    2    1    2  501    0 -0.67024758019E+02 -0.23389036970E+03 -0.45167594953E+03  0.54102641511E+03  0.17175970202E+03 0.  0.
         24    2    3    3    0    0  0.59769060613E+01 -0.11243532311E+03 -0.13119259307E+03  0.19058063747E+03  0.80200109800E+02 0.  0.
         -6    2    1    2    0  502  0.67024758019E+02  0.23389036970E+03 -0.57661817990E+03  0.64949428645E+03  0.17365851409E+03 0.  0.
        -24    2    5    5    0    0  0.15614854671E+02  0.17440297212E+03 -0.51487815567E+03  0.54941607092E+03  0.78091506726E+02 0.  0.
          5    1    3    3  501    0 -0.73001664080E+02 -0.12145504658E+03 -0.32048335646E+03  0.35044577764E+03  0.47000000000E+01 0. -1.
        -13    1    4    4    0    0  0.13797159797E+02  0.90362624104E+01 -0.16749686417E+02  0.23506757579E+02  0.00000000000E+00 0.  1.
         14    1    4    4    0    0 -0.78202537357E+01 -0.12147158553E+03 -0.11444290666E+03  0.16707387989E+03  0.00000000000E+00 0. -1.
         -5    1    5    5    0  502  0.51409903348E+02  0.59487397580E+02 -0.61740024229E+02  0.10007821554E+03  0.47000000000E+01 0.  1.
         11    1    6    6    0    0 -0.25354212248E+02  0.97606212439E+02 -0.33015375708E+03  0.34521198140E+03  0.00000000000E+00 0. -1.
        -12    1    6    6    0    0  0.40969066919E+02  0.76796759678E+02 -0.18472439859E+03  0.20420408952E+03  0.00000000000E+00 0.  1.
</event>
<event>
12    1  0.8493057E-002  0.2164955E+03  0.7818608E-02  0.1141359E+00
         21   -1    0    0  501  502  0.00000000000E+00  0.00000000000E+00  0.15242505092E+03  0.15242505092E+03  0.00000000000E+00 0.  1.
         21   -1    0    0  502  503 -0.00000000000E+00 -0.00000000000E+00 -0.30478085987E+03  0.30478085987E+03  0.00000000000E+00 0.  1.
         -6    2    1    2    0  503  0.53411480065E+02  0.82355109145E+02 -0.14409866222E+03  0.24055296929E+03  0.16572916574E+03 0.  0.
        -24    2    3    3    0    0 -0.20690019444E+02  0.79650256395E+02 -0.64359164973E+02  0.13156294278E+03  0.79965402199E+02 0.  0.
          6    2    1    2  501    0 -0.53411480065E+02 -0.82355109145E+02 -0.82571467281E+01  0.21665294150E+03  0.19296415829E+03 0.  0.
         24    2    5    5    0    0 -0.43237955267E+02 -0.13192300452E+03  0.16047954969E+02  0.16032084739E+03  0.78562315088E+02 0.  0.
          5    1    5    5  501    0 -0.10173524798E+02  0.49567895375E+02 -0.24305101697E+02  0.56332094114E+02  0.47000000000E+01 0. -1.
        -13    1    6    6    0    0  0.10031265705E+00 -0.91538022418E+02 -0.16067008704E+02  0.92937443367E+02  0.00000000000E+00 0.  1.
         14    1    6    6    0    0 -0.43338267924E+02 -0.40384982102E+02  0.32114963674E+02  0.67383404024E+02  0.00000000000E+00 0. -1.
         -5    1    3    3    0  503  0.74101499509E+02  0.27048527500E+01 -0.79739497248E+02  0.10899002651E+03  0.47000000000E+01 0.  1.
         13    1    4    4    0    0  0.15288989027E+02 -0.56881443865E+01  0.35821390038E+01  0.16701493702E+02  0.00000000000E+00 0. -1.
        -14    1    4    4    0    0 -0.35979008471E+02  0.85338400781E+02 -0.67941303977E+02  0.11486144908E+03  0.00000000000E+00 0.  1.
</event>
<event>
12    1  0.8493057E-002  0.4327138E+03  0.7818608E-02  0.1033016E+00
         21   -1    0    0  501  502  0.00000000000E+00  0.00000000000E+00  0.17702516277E+03  0.17702516277E+03  0.00000000000E+00 0.  1.
         21   -1    0    0  502  503 -0.00000000000E+00 -0.00000000000E+00 -0.10630192521E+04  0.10630192521E+04  0.00000000000E+00 0. -1.
         -6    2    1    2    0  503  0.39582439787E+03 -0.11882749368E+02 -0.48817821650E+03  0.65234901123E+03  0.17442221104E+03 0.  0.
        -24    2    3    3    0    0  0.92188341865E+02 -0.21065134497E+02 -0.12787315883E+03  0.18105187005E+03  0.86520544561E+02 0.  0.
          6    2    1    2  501    0 -0.39582439787E+03  0.11882749368E+02 -0.39781587278E+03  0.58769540360E+03  0.17409843507E+03 0.  0.
         24    2    5    5    0    0 -0.18525328948E+03  0.72589993151E+01 -0.28338226438E+03  0.34794822117E+03  0.79943620850E+02 0.  0.
          5    1    5    5  501    0 -0.21057110838E+03  0.46237500532E+01 -0.11443360840E+03  0.23974718243E+03  0.47000000000E+01 0. -1.
        -11    1    6    6    0    0 -0.59019826444E+02  0.36094718515E+01 -0.33482937806E+02  0.67952007510E+02  0.00000000000E+00 0.  1.
         12    1    6    6    0    0 -0.12623346304E+03  0.36495274636E+01 -0.24989932657E+03  0.27999621366E+03  0.00000000000E+00 0. -1.
         -5    1    3    3    0  503  0.30363605600E+03  0.91823851286E+01 -0.36030505767E+03  0.47129714117E+03  0.47000000000E+01 0.  1.
         13    1    4    4    0    0  0.52507694995E+02 -0.42952105699E+02 -0.11571291666E+03  0.13413210093E+03  0.00000000000E+00 0. -1.
        -14    1    4    4    0    0  0.39680646870E+02  0.21886971202E+02 -0.12160242171E+02  0.46919769118E+02  0.00000000000E+00 0.  1.
</event>
<event>
12    1  0.8493057E-002  0.2176492E+03  0.7818608E-02  0.1135798E+00
         21   -1    0    0  501  502  0.00000000000E+00  0.00000000000E+00  0.77802075115E+02  0.77802075115E+02  0.00000000000E+00 0.  1.
         21   -1    0    0  502  503 -0.00000000000E+00 -0.00000000000E+00 -0.60690410637E+03  0.60690410637E+03  0.00000000000E+00 0.  1.
         -6    2    1    2    0  503 -0.12311140177E+03  0.49340039078E+02 -0.25709646237E+03  0.33634115812E+03  0.17156901522E+03 0.  0.
        -24    2    3    3    0    0 -0.59286712637E+02 -0.38240623313E+02 -0.14223050896E+03  0.17835305534E+03  0.81259061675E+02 0.  0.
          6    2    1    2  501    0  0.12311140177E+03 -0.49340039078E+02 -0.27200556888E+03  0.34836502336E+03  0.17256970561E+03 0.  0.
         24    2    5    5    0    0  0.11286339904E+03 -0.21344515434E+02 -0.28360971682E+03  0.31603056568E+03  0.79038672699E+02 0.  0.
          5    1    5    5  501    0  0.10248002728E+02 -0.27995523644E+02  0.11604147945E+02  0.32334457682E+02  0.47000000000E+01 0. -1.
        -13    1    6    6    0    0  0.99440737963E+02 -0.62073045098E+01 -0.14487675183E+03  0.17583021418E+03  0.00000000000E+00 0.  1.
         14    1    6    6    0    0  0.13422661077E+02 -0.15137210924E+02 -0.13873296499E+03  0.14020035150E+03  0.00000000000E+00 0. -1.
         -5    1    3    3    0  503 -0.63824689131E+02  0.87580662391E+02 -0.11486595342E+03  0.15798810278E+03  0.47000000000E+01 0.  1.
         13    1    4    4    0    0 -0.63991626871E+01  0.14078399472E+02 -0.79652981833E+02  0.81140299048E+02  0.00000000000E+00 0. -1.
        -14    1    4    4    0    0 -0.52887549950E+02 -0.52319022784E+02 -0.62577527123E+02  0.97212756291E+02  0.00000000000E+00 0.  1.
</event>
<event>
12    1  0.8493057E-002  0.1759757E+03  0.7818608E-02  0.1172225E+00
         21   -1    0    0  501  502  0.00000000000E+00  0.00000000000E+00  0.26437080489E+03  0.26437080489E+03  0.00000000000E+00 0.  1.
         21   -1    0    0  502  503 -0.00000000000E+00 -0.00000000000E+00 -0.11890948805E+03  0.11890948805E+03  0.00000000000E+00 0.  1.
         -6    2    1    2    0  503  0.26232725595E+02  0.15403747246E+02  0.41823075535E+02  0.17905413189E+03  0.17142281405E+03 0.  0.
        -24    2    3    3    0    0  0.35067145097E+00 -0.37220430922E+02 -0.16253911086E+02  0.96384843580E+02  0.87409181428E+02 0.  0.
          6    2    1    2  501    0 -0.26232725595E+02 -0.15403747246E+02  0.10363824130E+03  0.20422616105E+03  0.17332630635E+03 0.  0.
         24    2    5    5    0    0 -0.78479399045E+01 -0.65867759603E+02  0.10801417605E+03  0.15013498161E+03  0.80456811767E+02 0.  0.
          5    1    5    5  501    0 -0.18384785691E+02  0.50464012357E+02 -0.43759347441E+01  0.54091179438E+02  0.47000000000E+01 0. -1.
        -11    1    6    6    0    0 -0.12128867779E+02  0.39975360877E+01 -0.76889206287E+01  0.14906684031E+02  0.00000000000E+00 0.  1.
         12    1    6    6    0    0  0.42809278746E+01 -0.69865295691E+02  0.11570309667E+03  0.13522829758E+03  0.00000000000E+00 0. -1.
         -5    1    3    3    0  503  0.25882054144E+02  0.52624178168E+02  0.58076986621E+02  0.82669288309E+02  0.47000000000E+01 0.  1.
         11    1    4    4    0    0  0.14654629274E+02 -0.68378637017E+01  0.33013330802E+02  0.36761318663E+02  0.00000000000E+00 0. -1.
        -12    1    4    4    0    0 -0.14303957823E+02 -0.30382567221E+02 -0.49267241888E+02  0.59623524918E+02  0.00000000000E+00 0.  1.
</event>
<event>
12    1  0.8493057E-002  0.2268966E+03  0.7818608E-02  0.1129121E+00
         21   -1    0    0  503  502  0.00000000000E+00  0.00000000000E+00  0.34817156981E+03  0.34817156981E+03  0.00000000000E+00 0. -1.
         21   -1    0    0  501  503 -0.00000000000E+00 -0.00000000000E+00 -0.17940087462E+03  0.17940087462E+03  0.00000000000E+00 0. -1.
          6    2    1    2  501    0 -0.42680114425E+02 -0.14003000012E+03 -0.28195304081E+02  0.22711001462E+03  0.17133006294E+03 0.  0.
         24    2    3    3    0    0 -0.42329278483E+02 -0.49002244122E+02 -0.71622216091E+02  0.12614387111E+03  0.81176022542E+02 0.  0.
         -6    2    1    2    0  502  0.42680114425E+02  0.14003000012E+03  0.19696599926E+03  0.30046242981E+03  0.17335533958E+03 0.  0.
        -24    2    5    5    0    0  0.20337008030E+02  0.10178079087E+03  0.21556562113E+03  0.25218974245E+03  0.79738359008E+02 0.  0.
          5    1    3    3  501    0 -0.35083594176E+00 -0.91027755999E+02  0.43426912010E+02  0.10096614351E+03  0.47000000000E+01 0. -1.
        -13    1    4    4    0    0 -0.65075723039E+02 -0.24245392230E+02 -0.40862388308E+02  0.80575576645E+02  0.00000000000E+00 0.  1.
         14    1    4    4    0    0  0.22746444556E+02 -0.24756851892E+02 -0.30759827783E+02  0.45568294468E+02  0.00000000000E+00 0. -1.
         -5    1    5    5    0  502  0.22343106395E+02  0.38249209249E+02 -0.18599621867E+02  0.48272687362E+02  0.47000000000E+01 0.  1.
         13    1    6    6    0    0  0.19636293695E+02  0.42656219885E+02  0.26127248271E+02  0.53737977513E+02  0.00000000000E+00 0. -1.
        -14    1    6    6    0    0  0.70071433451E+00  0.59124570986E+02  0.18943837286E+03  0.19845176493E+03  0.00000000000E+00 0.  1.
</event>
<event>
12    1  0.8493057E-002  0.1850223E+03  0.7818608E-02  0.1165601E+00
         21   -1    0    0  503  502  0.00000000000E+00  0.00000000000E+00  0.41610535006E+03  0.41610535006E+03  0.00000000000E+00 0.  1.
         21   -1    0    0  501  503 -0.00000000000E+00 -0.00000000000E+00 -0.36950430762E+03  0.36950430762E+03  0.00000000000E+00 0.  1.
          6    2    1    2  501    0  0.68946357689E+02 -0.51112241034E+01 -0.32594656949E+03  0.36964694428E+03  0.16005615389E+03 0.  0.
         24    2    3    3    0    0  0.11707016630E+02 -0.32909115013E+02 -0.93806260876E+02  0.12889753558E+03  0.81208965081E+02 0.  0.
         -6    2    1    2    0  502 -0.68946357689E+02  0.51112241034E+01  0.37254761194E+03  0.41596271340E+03  0.17162031037E+03 0.  0.
        -24    2    5    5    0    0  0.31386638011E+01 -0.43812628138E+02  0.22703509946E+03  0.24629900211E+03  0.84787171553E+02 0.  0.
          5    1    3    3  501    0  0.57239341058E+02  0.27797890910E+02 -0.23214030862E+03  0.24074940870E+03  0.47000000000E+01 0. -1.
        -13    1    4    4    0    0  0.75313987508E+01 -0.60252705535E+02 -0.65714704901E+02  0.89473643782E+02  0.00000000000E+00 0.  1.
         14    1    4    4    0    0  0.41756178793E+01  0.27343590522E+02 -0.28091555975E+02  0.39423891797E+02  0.00000000000E+00 0. -1.
         -5    1    5    5    0  502 -0.72085021490E+02  0.48923852242E+02  0.14551251248E+03  0.16966371129E+03  0.47000000000E+01 0.  1.
         11    1    6    6    0    0  0.35363752880E+02 -0.15932827392E+02  0.45307305696E+02  0.59642283289E+02  0.00000000000E+00 0. -1.
        -12    1    6    6    0    0 -0.32225089079E+02 -0.27879800746E+02  0.18172779376E+03  0.18665671882E+03  0.00000000000E+00 0.  1.
</event>
<event>
12    1  0.8493057E-002  0.2003679E+03  0.7818608E-02  0.1149600E+00
         21   -1    0    0  503  502  0.00000000000E+00  0.00000000000E+00  0.13431530254E+04  0.13431530254E+04  0.00000000000E+00 0. -1.
         21   -1    0    0  501  503 -0.00000000000E+00 -0.00000000000E+00 -0.40090623298E+02  0.40090623298E+02  0.00000000000E+00 0. -1.
          6    2    1    2  501    0 -0.87201021969E+02  0.53300113551E+02  0.10014737401E+04  0.10211621550E+04  0.17139887498E+03 0.  0.
         24    2    3    3    0    0 -0.31027222083E+02  0.47964918941E+02  0.89723539853E+03  0.90253803456E+03  0.79247848482E+02 0.  0.
         -6    2    1    2    0  502  0.87201021969E+02 -0.53300113551E+02  0.30158866199E+03  0.36208149369E+03  0.17234374574E+03 0.  0.
        -24    2    5    5    0    0  0.88689321105E+02 -0.66748461894E+02  0.31391452746E+03  0.34318466678E+03  0.83139834721E+02 0.  0.
          5    1    3    3  501    0 -0.56173799886E+02  0.53351946095E+01  0.10423834154E+03  0.11862412041E+03  0.47000000000E+01 0. -1.
        -11    1    4    4    0    0  0.32813696106E+01 -0.20047230518E+02  0.13736246848E+03  0.13885642435E+03  0.00000000000E+00 0.  1.
         12    1    4    4    0    0 -0.34308591693E+02  0.68012149459E+02  0.75987293005E+03  0.76368161020E+03  0.00000000000E+00 0. -1.
         -5    1    5    5    0  502 -0.14882991357E+01  0.13448348343E+02 -0.12325865477E+02  0.18896826909E+02  0.47000000000E+01 0.  1.
         13    1    6    6    0    0  0.53809817404E+02 -0.57199664533E+02  0.10476231861E+03  0.13092914677E+03  0.00000000000E+00 0. -1.
        -14    1    6    6    0    0  0.34879503701E+02 -0.95487973607E+01  0.20915220885E+03  0.21225552002E+03  0.00000000000E+00 0.  1.
</event>
<event>
12    1  0.8493057E-002  0.1874697E+03  0.7818608E-02  0.1163667E+00
         21   -1    0    0  501  502  0.00000000000E+00  0.00000000000E+00  0.15511200661E+04  0.15511200661E+04  0.00000000000E+00 0.  1.
         21   -1    0    0  502  503 -0.00000000000E+00 -0.00000000000E+00 -0.29479716409E+02  0.29479716409E+02  0.00000000000E+00 0.  1.
         -6    2    1    2    0  503  0.68169553947E+02  0.29069372605E+02  0.32390516131E+03  0.36828197968E+03  0.15882363339E+03 0.  0.
        -24    2    3    3    0    0  0.34119385578E+02 -0.14759506423E-01  0.73740876828E+02  0.11409787330E+03  0.80102903102E+02 0.  0.
          6    2    1    2  501    0 -0.68169553947E+02 -0.29069372605E+02  0.11977351884E+04  0.12123178028E+04  0.17219975919E+03 0.  0.
         24    2    5    5    0    0 -0.27518982586E+02 -0.85067885907E+02  0.75403525055E+03  0.76322980780E+03  0.77179925083E+02 0.  0.
          5    1    5    5  501    0 -0.40650571361E+02  0.55998513302E+02  0.44369993782E+03  0.44908799502E+03  0.47000000000E+01 0. -1.
        -13    1    6    6    0    0 -0.53326417725E+02 -0.45749550078E+02  0.49464895588E+03  0.49961416885E+03  0.00000000000E+00 0.  1.
         14    1    6    6    0    0  0.25807435139E+02 -0.39318335829E+02  0.25938629467E+03  0.26361563895E+03  0.00000000000E+00 0. -1.
         -5    1    3    3    0  503  0.34050168369E+02  0.29084132112E+02  0.25016428449E+03  0.25418410639E+03  0.47000000000E+01 0.  1.
         11    1    4    4    0    0 -0.17038491864E+02  0.16268959834E+02  0.85511987434E+00  0.23573724548E+02  0.00000000000E+00 0. -1.
        -12    1    4    4    0    0  0.51157877442E+02 -0.16283719341E+02  0.72885756953E+02  0.90524148748E+02  0.00000000000E+00 0.  1.
</event>
<event>
12    1  0.8493057E-002  0.2142771E+03  0.7818608E-02  0.1138432E+00
         21   -1    0    0  503  502  0.00000000000E+00  0.00000000000E+00  0.22337125505E+03  0.22337125505E+03  0.00000000000E+00 0. -1.
         21   -1    0    0  501  503 -0.00000000000E+00 -0.00000000000E+00 -0.20817931782E+03  0.20817931782E+03  0.00000000000E+00 0. -1.
          6    2    1    2  501    0 -0.11152056136E+03  0.63732491632E+02 -0.21030425131E+02  0.21423341213E+03  0.17016171718E+03 0.  0.
         24    2    3    3    0    0 -0.26615998748E+02 -0.37299317640E+02 -0.53023918566E+01  0.81245922986E+02  0.66881493379E+02 0.  0.
         -6    2    1    2    0  502  0.11152056136E+03 -0.63732491632E+02  0.36222362354E+02  0.21731716074E+03  0.17151099884E+03 0.  0.
        -24    2    5    5    0    0  0.35142205091E+02 -0.46360869185E+02 -0.39585860802E+02  0.10820985910E+03  0.82207228763E+02 0.  0.
          5    1    3    3  501    0 -0.84904562615E+02  0.10103180927E+03 -0.15728033275E+02  0.13298748914E+03  0.47000000000E+01 0. -1.
        -11    1    4    4    0    0 -0.43561124355E+02 -0.33260376637E+02  0.12632033847E+02  0.56244044025E+02  0.00000000000E+00 0.  1.
         12    1    4    4    0    0  0.16945125607E+02 -0.40389410021E+01 -0.17934425704E+02  0.25001878961E+02  0.00000000000E+00 0. -1.
         -5    1    5    5    0  502  0.76378356272E+02 -0.17371622448E+02  0.75808223156E+02  0.10910730164E+03  0.47000000000E+01 0.  1.
         11    1    6    6    0    0  0.12225351864E+02 -0.53829728053E+02  0.71135706802E+01  0.55657000802E+02  0.00000000000E+00 0. -1.
        -12    1    6    6    0    0  0.22916853228E+02  0.74688588680E+01 -0.46699431483E+02  0.52552858299E+02  0.00000000000E+00 0.  1.
</event>
<event>
12    1  0.8493057E-002  0.1965068E+03  0.7818608E-02  0.1152819E+00
         21   -1    0    0  503  502  0.00000000000E+00  0.00000000000E+00  0.32901590550E+03  0.32901590550E+03  0.00000000000E+00 0. -1.
         21   -1    0    0  501  503 -0.00000000000E+00 -0.00000000000E+00 -0.14977549306E+03  0.14977549306E+03  0.00000000000E+00 0.  1.
          6    2    1    2  501    0  0.89074152085E+02 -0.33190001374E+02 -0.22130017383E+02  0.19774901095E+03  0.17198590901E+03 0.  0.
         24    2    3    3    0    0  0.74022310676E+02 -0.84269295852E+02 -0.43890232783E+02  0.14003203573E+03  0.71428298275E+02 0.  0.
         -6    2    1    2    0  502 -0.89074152085E+02  0.33190001374E+02  0.20137042983E+03  0.28104238762E+03  0.17146134512E+03 0.  0.
        -24    2    5    5    0    0 -0.28428399886E+02  0.72725949440E+02  0.72477980387E+02  0.13313582261E+03  0.79842670169E+02 0.  0.
          5    1    3    3  501    0  0.15051841409E+02  0.51079294479E+02  0.21760215400E+02  0.57716975220E+02  0.47000000000E+01 0. -1.
        -13    1    4    4    0    0 -0.13276595712E+02 -0.22119971082E+02 -0.93729704198E+01  0.27448382263E+02  0.00000000000E+00 0.  1.
         14    1    4    4    0    0  0.87298906388E+02 -0.62149324771E+02 -0.34517262363E+02  0.11258365346E+03  0.00000000000E+00 0. -1.
         -5    1    5    5    0  502 -0.60645752199E+02 -0.39535948066E+02  0.12889244944E+03  0.14790656501E+03  0.47000000000E+01 0.  1.
         13    1    6    6    0    0 -0.24264750137E+02 -0.43524324080E+01  0.44796533469E+02  0.51131704235E+02  0.00000000000E+00 0. -1.
        -14    1    6    6    0    0 -0.41636497489E+01  0.77078381848E+02  0.27681446918E+02  0.82004118378E+02  0.00000000000E+00 0.  1.
</event>
<event>
12    1  0.8493057E-002  0.2259906E+03  0.7818608E-02  0.1131231E+00
         21   -1    0    0  503  502  0.00000000000E+00  0.00000000000E+00  0.20222818945E+03  0.20222818945E+03  0.00000000000E+00 0.  1.
         21   -1    0    0  501  503 -0.00000000000E+00 -0.00000000000E+00 -0.96656904170E+03  0.96656904170E+03  0.00000000000E+00 0. -1.
          6    2    1    2  501    0 -0.95738523583E+02 -0.11111389942E+03 -0.89011928195E+03  0.91835945261E+03  0.17192901019E+03 0.  0.
         24    2    3    3    0    0 -0.44828384950E+02 -0.16302028479E+02 -0.23976952675E+03  0.25914929858E+03  0.85986003300E+02 0.  0.
         -6    2    1    2    0  502  0.95738523583E+02  0.11111389942E+03  0.12577842970E+03  0.25043777854E+03  0.15933205578E+03 0.  0.
        -24    2    5    5    0    0  0.10751509015E+03  0.78017999541E+02  0.14299663232E+03  0.21103495364E+03  0.80258407287E+02 0.  0.
          5    1    3    3  501    0 -0.50910138633E+02 -0.94811870942E+02 -0.65034975520E+03  0.65921015403E+03  0.47000000000E+01 0. -1.
        -11    1    4    4    0    0 -0.19882502338E+02  0.35537805755E+02 -0.94278448640E+02  0.10269700782E+03  0.00000000000E+00 0.  1.
         12    1    4    4    0    0 -0.24945882613E+02 -0.51839834234E+02 -0.14549107811E+03  0.15645229076E+03  0.00000000000E+00 0. -1.
         -5    1    5    5    0  502 -0.11776566566E+02  0.33095899880E+02 -0.17218202615E+02  0.39402824902E+02  0.47000000000E+01 0.  1.
         11    1    6    6    0    0  0.43509201966E+01  0.10053245080E+02 -0.96927551003E+01  0.14626952677E+02  0.00000000000E+00 0. -1.
        -12    1    6    6    0    0  0.10316416995E+03  0.67964754461E+02  0.15268938742E+03  0.19640800096E+03  0.00000000000E+00 0.  1.
</event>
<event>
12    1  0.8493057E-002  0.2237099E+03  0.7818608E-02  0.1131278E+00
         21   -1    0    0  503  502  0.00000000000E+00  0.00000000000E+00  0.10014529733E+03  0.10014529733E+03  0.00000000000E+00 0. -1.
         21   -1    0    0  501  503 -0.00000000000E+00 -0.00000000000E+00 -0.10932365360E+04  0.10932365360E+04  0.00000000000E+00 0.  1.
          6    2    1    2  501    0  0.93545124116E+02  0.10460179482E+03 -0.93641996042E+03  0.96260544238E+03  0.17330513468E+03 0.  0.
         24    2    3    3    0    0  0.12865394824E+03  0.53947368057E+02 -0.69208219720E+03  0.71057065705E+03  0.80440873080E+02 0.  0.
         -6    2    1    2    0  502 -0.93545124116E+02 -0.10460179482E+03 -0.56671278263E+02  0.23077639096E+03  0.17422365833E+03 0.  0.
        -24    2    5    5    0    0 -0.69722341374E+02  0.80796478935E+01 -0.45101043944E+02  0.11492910860E+03  0.79044988719E+02 0.  0.
          5    1    3    3  501    0 -0.35108824127E+02  0.50654426763E+02 -0.24433776322E+03  0.25203478533E+03  0.47000000000E+01 0. -1.
        -13    1    4    4    0    0  0.77686694992E+02 -0.10357436625E+02 -0.30729391874E+03  0.31713096911E+03  0.00000000000E+00 0.  1.
         14    1    4    4    0    0  0.50967253251E+02  0.64304804683E+02 -0.38478827846E+03  0.39343968794E+03  0.00000000000E+00 0. -1.
         -5    1    5    5    0  502 -0.23822782742E+02 -0.11268144271E+03 -0.11570234319E+02  0.11584728237E+03  0.47000000000E+01 0.  1.
         11    1    6    6    0    0 -0.61824638341E+02 -0.24377024230E+02 -0.11306381579E+02  0.67411864540E+02  0.00000000000E+00 0. -1.
        -12    1    6    6    0    0 -0.78977030325E+01  0.32456672123E+02 -0.33794662366E+02  0.47517244058E+02  0.00000000000E+00 0.  1.
</event>
<event>
12    1  0.8493057E-002  0.2125472E+03  0.7818608E-02  0.1139613E+00
         21   -1    0    0  503  502  0.00000000000E+00  0.00000000000E+00  0.47746630752E+03  0.47746630752E+03  0.00000000000E+00 0. -1.
         21   -1    0    0  501  503 -0.00000000000E+00 -0.00000000000E+00 -0.13859974190E+03  0.13859974190E+03  0.00000000000E+00 0.  1.
          6    2    1    2  501    0  0.10765405530E+03 -0.62194602154E+02 -0.42401946689E+01  0.21258947821E+03  0.17239124930E+03 0.  0.
         24    2    3    3    0    0  0.45168532906E+02  0.34496891047E+02 -0.85509778625E+01  0.97288315081E+02  0.78496274893E+02 0.  0.
         -6    2    1    2    0  502 -0.10765405530E+03  0.62194602154E+02  0.34310676028E+03  0.40347657121E+03  0.17208582277E+03 0.  0.
        -24    2    5    5    0    0 -0.10952826587E+03  0.51723964212E+02  0.35698790528E+03  0.38536792381E+03  0.79976638405E+02 0.  0.
          5    1    3    3  501    0  0.62485522398E+02 -0.96691493202E+02  0.43107831936E+01  0.11530116313E+03  0.47000000000E+01 0. -1.
        -13    1    4    4    0    0  0.27122171342E+02 -0.52515422830E+01 -0.36258905803E+02  0.45583978815E+02  0.00000000000E+00 0.  1.
         14    1    4    4    0    0  0.18046361564E+02  0.39748433330E+02  0.27707927940E+02  0.51704336266E+02  0.00000000000E+00 0. -1.
         -5    1    5    5    0  502  0.18742105664E+01  0.10470637943E+02 -0.13881144993E+02  0.18108647395E+02  0.47000000000E+01 0.  1.
         13    1    6    6    0    0 -0.94914861277E+02  0.16955099726E+02  0.31254496905E+03  0.32707898737E+03  0.00000000000E+00 0. -1.
        -14    1    6    6    0    0 -0.14613404594E+02  0.34768864486E+02  0.44442936225E+02  0.58288936444E+02  0.00000000000E+00 0.  1.
</event>
<event>
12    1  0.8493057E-002  0.2117566E+03  0.7818608E-02  0.1140237E+00
         21   -1    0    0  501  502  0.00000000000E+00  0.00000000000E+00  0.47197400165E+03  0.47197400165E+03  0.00000000000E+00 0. -1.
         21   -1    0    0  502  503 -0.00000000000E+00 -0.00000000000E+00 -0.13255208523E+03  0.13255208523E+03  0.00000000000E+00 0.  1.
         -6    2    1    2    0  503  0.12195048465E+03 -0.20537300892E+02  0.86545878968E+01  0.21193341443E+03  0.17189289928E+03 0.  0.
        -24    2    3    3    0    0  0.14933197913E+02 -0.56380343293E+02  0.10520799434E+02  0.98959983502E+02  0.79250536933E+02 0.  0.
          6    2    1    2  501    0 -0.12195048465E+03  0.20537300892E+02  0.33076732852E+03  0.39259267245E+03  0.17154672660E+03 0.  0.
         24    2    5    5    0    0 -0.89435766721E+02 -0.53048199389E+02  0.19390107127E+03  0.23376416396E+03  0.78963226158E+02 0.  0.
          5    1    5    5  501    0 -0.32514717932E+02  0.73585500281E+02  0.13686625725E+03  0.15882850848E+03  0.47000000000E+01 0. -1.
        -13    1    6    6    0    0 -0.18017800218E+02 -0.20434696489E+02  0.30734078895E+01  0.27416487400E+02  0.00000000000E+00 0.  1.
         14    1    6    6    0    0 -0.71417966502E+02 -0.32613502901E+02  0.19082766338E+03  0.20634767656E+03  0.00000000000E+00 0. -1.
         -5    1    3    3    0  503  0.10701728674E+03  0.35843042401E+02 -0.18662115369E+01  0.11297343093E+03  0.47000000000E+01 0.  1.
         13    1    4    4    0    0 -0.25834277769E+02 -0.46442238295E+01  0.19201984842E+02  0.32522222321E+02  0.00000000000E+00 0. -1.
        -14    1    4    4    0    0  0.40767475682E+02 -0.51736119464E+02 -0.86811854087E+01  0.66437761181E+02  0.00000000000E+00 0.  1.
</event>
<event>
12    1  0.8493057E-002  0.2025626E+03  0.7818608E-02  0.1147780E+00
         21   -1    0    0  503  502  0.00000000000E+00  0.00000000000E+00  0.11684711714E+04  0.11684711714E+04  0.00000000000E+00 0. -1.
         21   -1    0    0  501  503 -0.00000000000E+00 -0.00000000000E+00 -0.44824609947E+03  0.44824609947E+03  0.00000000000E+00 0. -1.
          6    2    1    2  501    0  0.39866075152E+02  0.98858076035E+02 -0.41601959266E+03  0.46271364898E+03  0.17224806627E+03 0.  0.
         24    2    3    3    0    0  0.52748536100E+02  0.40691550724E+02 -0.36918840560E+03  0.38678899852E+03  0.94167086511E+02 0.  0.
         -6    2    1    2    0  502 -0.39866075152E+02 -0.98858076035E+02  0.11362446646E+04  0.11540036219E+04  0.17120221486E+03 0.  0.
        -24    2    5    5    0    0 -0.39354144283E+02 -0.12134387195E+03  0.65288311932E+03  0.67009624796E+03  0.80619663291E+02 0.  0.
          5    1    3    3  501    0 -0.12882460948E+02  0.58166525311E+02 -0.46831187055E+02  0.75924650462E+02  0.47000000000E+01 0. -1.
        -13    1    4    4    0    0 -0.31726932840E+01  0.50156255190E+02 -0.10276616689E+03  0.11439668253E+03  0.00000000000E+00 0.  1.
         14    1    4    4    0    0  0.55921229384E+02 -0.94647044666E+01 -0.26642223872E+03  0.27239231599E+03  0.00000000000E+00 0. -1.
         -5    1    5    5    0  502 -0.51193086913E+00  0.22485795918E+02  0.48336154525E+03  0.48390737391E+03  0.47000000000E+01 0.  1.
         11    1    6    6    0    0  0.89263830438E+01 -0.90286788767E+02  0.45954304729E+03  0.46841348919E+03  0.00000000000E+00 0. -1.
        -12    1    6    6    0    0 -0.48280527327E+02 -0.31057083185E+02  0.19334007202E+03  0.20168275877E+03  0.00000000000E+00 0.  1.
</event>
<event>
12    1  0.8493057E-002  0.1732270E+03  0.7818608E-02  0.1174612E+00
         21   -1    0    0  501  502  0.00000000000E+00  0.00000000000E+00  0.49817740831E+02  0.49817740831E+02  0.00000000000E+00 0. -1.
         21   -1    0    0  502  503 -0.00000000000E+00 -0.00000000000E+00 -0.85230077635E+03  0.85230077635E+03  0.00000000000E+00 0. -1.
         -6    2    1    2    0  503  0.10324859905E+02 -0.21468873226E+02 -0.64638179722E+03  0.66919132220E+03  0.17158112566E+03 0.  0.
        -24    2    3    3    0    0 -0.43959028625E+02  0.83240509122E+01 -0.52213601229E+03  0.53029040804E+03  0.81118527520E+02 0.  0.
          6    2    1    2  501    0 -0.10324859905E+02  0.21468873226E+02 -0.15610123830E+03  0.23292719497E+03  0.17123073997E+03 0.  0.
         24    2    5    5    0    0  0.30431619143E+02  0.46251575341E+02 -0.15770634055E+03  0.18496951299E+03  0.79228399078E+02 0.  0.
          5    1    5    5  501    0 -0.40756479048E+02 -0.24782702115E+02  0.16051022510E+01  0.47957681989E+02  0.47000000000E+01 0. -1.
        -13    1    6    6    0    0 -0.11733152952E+02  0.21181507524E+02 -0.12178497137E+03  0.12416884630E+03  0.00000000000E+00 0.  1.
         14    1    6    6    0    0  0.42164772095E+02  0.25070067818E+02 -0.35921369175E+02  0.60800666687E+02  0.00000000000E+00 0. -1.
         -5    1    3    3    0  503  0.54283888529E+02 -0.29792924138E+02 -0.12424578493E+03  0.13890091417E+03  0.47000000000E+01 0.  1.
         11    1    4    4    0    0  0.74196919815E+01  0.33801084902E+02 -0.22863026807E+03  0.23123443656E+03  0.00000000000E+00 0. -1.
        -12    1    4    4    0    0 -0.51378720606E+02 -0.25477033990E+02 -0.29350574421E+03  0.29905597148E+03  0.00000000000E+00 0.  1.
</event>
<event>
12    1  0.8493057E-002  0.2220766E+03  0.7818608E-02  0.1133948E+00
         21   -1    0    0  501  502  0.00000000000E+00  0.00000000000E+00  0.20340635193E+03  0.20340635193E+03  0.00000000000E+00 0. -1.
         21   -1    0    0  502  503 -0.00000000000E+00 -0.00000000000E+00 -0.23615224022E+03  0.23615224022E+03  0.00000000000E+00 0.  1.
         -6    2    1    2    0  503  0.80541871153E+02  0.11601190929E+03 -0.40458605972E+02  0.21734814745E+03  0.16017978117E+03 0.  0.
        -24    2    3    3    0    0  0.71202150199E+01  0.14039353790E+02 -0.38178349880E+02  0.91584753594E+02  0.81745824203E+02 0.  0.
          6    2    1    2  501    0 -0.80541871153E+02 -0.11601190929E+03  0.77127176759E+01  0.22221044471E+03  0.17138331195E+03 0.  0.
         24    2    5    5    0    0 -0.75908253744E+02 -0.12089188964E+02  0.32586719068E+02  0.11514874214E+03  0.79304016799E+02 0.  0.
          5    1    5    5  501    0 -0.46336174092E+01 -0.10392272033E+03 -0.24874001392E+02  0.10706170257E+03  0.47000000000E+01 0. -1.
        -13    1    6    6    0    0 -0.13891641551E+02  0.14723803935E+02 -0.20809931544E+02  0.29031385743E+02  0.00000000000E+00 0.  1.
         14    1    6    6    0    0 -0.62016612193E+02 -0.26812992899E+02  0.53396650612E+02  0.86117356397E+02  0.00000000000E+00 0. -1.
         -5    1    3    3    0  503  0.73421656133E+02  0.10197255550E+03 -0.22802560924E+01  0.12576339385E+03  0.47000000000E+01 0.  1.
         11    1    4    4    0    0  0.14780837348E+02  0.95639985085E+01 -0.62901037351E+02  0.65318326065E+02  0.00000000000E+00 0. -1.
        -12    1    4    4    0    0 -0.76606223284E+01  0.44753552810E+01  0.24722687471E+02  0.26266427529E+02  0.00000000000E+00 0.  1.
</event>
<event>
12    1  0.8493057E-002  0.2104690E+03  0.7818608E-02  0.1143655E+00
         21   -1    0    0  503  502  0.00000000000E+00  0.00000000000E+00  0.42181432626E+03  0.42181432626E+03  0.00000000000E+00 0. -1.
         21   -1    0    0  501  503 -0.00000000000E+00 -0.00000000000E+00 -0.20536782459E+03  0.20536782459E+03  0.00000000000E+00 0. -1.
          6    2    1    2  501    0  0.14677950172E+02  0.96967911409E+02 -0.11887243637E+03  0.23128318080E+03  0.17246169293E+03 0.  0.
         24    2    3    3    0    0 -0.43731509669E+02  0.76930950618E+02 -0.27061783116E+02  0.12053828996E+03  0.77241977833E+02 0.  0.
         -6    2    1    2    0  502 -0.14677950172E+02 -0.96967911409E+02  0.33531893805E+03  0.39589897005E+03  0.18622294759E+03 0.  0.
        -24    2    5    5    0    0 -0.38947304420E+02 -0.77516481142E+01  0.26084212722E+03  0.27708218444E+03  0.84610525535E+02 0.  0.
          5    1    3    3  501    0  0.58409459841E+02  0.20036960791E+02 -0.91810653257E+02  0.11074489084E+03  0.47000000000E+01 0. -1.
        -11    1    4    4    0    0 -0.61404685418E+02  0.70720362793E+02 -0.35279093740E+02  0.10008256372E+03  0.00000000000E+00 0.  1.
         12    1    4    4    0    0  0.17673175749E+02  0.62105878248E+01  0.82173106239E+01  0.20455726241E+02  0.00000000000E+00 0. -1.
         -5    1    5    5    0  502  0.24269354249E+02 -0.89216263294E+02  0.74476810829E+02  0.11881678561E+03  0.47000000000E+01 0.  1.
         11    1    6    6    0    0 -0.47287405438E+02 -0.36194276420E+02  0.13099679478E+03  0.14389678454E+03  0.00000000000E+00 0. -1.
        -12    1    6    6    0    0  0.83401010179E+01  0.28442628305E+02  0.12984533243E+03  0.13318539989E+03  0.00000000000E+00 0.  1.
</event>
<event>
12    1  0.8493057E-002  0.1955535E+03  0.7818608E-02  0.1154497E+00
         21   -1    0    0  503  502  0.00000000000E+00  0.00000000000E+00  0.65215793328E+02  0.65215793328E+02  0.00000000000E+00 0. -1.
         21   -1    0    0  501  503 -0.00000000000E+00 -0.00000000000E+00 -0.61845947061E+03  0.61845947061E+03  0.00000000000E+00 0.  1.
          6    2    1    2  501    0  0.86116743943E+02 -0.34141713368E+02 -0.18155416947E+03  0.26368208593E+03  0.16728591037E+03 0.  0.
         24    2    3    3    0    0  0.92209906339E+01  0.13524371856E+02 -0.14436696191E+03  0.16575358669E+03  0.79777794559E+02 0.  0.
         -6    2    1    2    0  502 -0.86116743943E+02  0.34141713368E+02 -0.37168950781E+03  0.41999317802E+03  0.17221913129E+03 0.  0.
        -24    2    5    5    0    0 -0.12450928884E+02  0.39507538948E+01 -0.66029069314E+02  0.10409993655E+03  0.79412371253E+02 0.  0.
          5    1    3    3  501    0  0.76895753309E+02 -0.47666085223E+02 -0.37187207558E+02  0.97928499240E+02  0.47000000000E+01 0. -1.
        -11    1    4    4    0    0  0.29130051304E+02  0.30549671985E+02 -0.12819945023E+03  0.13497014998E+03  0.00000000000E+00 0.  1.
         12    1    4    4    0    0 -0.19909060670E+02 -0.17025300129E+02 -0.16167511686E+02  0.30783436705E+02  0.00000000000E+00 0. -1.
         -5    1    5    5    0  502 -0.73665815059E+02  0.30190959473E+02 -0.30566043850E+03  0.31589324147E+03  0.47000000000E+01 0.  1.
         13    1    6    6    0    0 -0.19574787296E+02  0.29397483345E+02 -0.68994603176E+02  0.77508964592E+02  0.00000000000E+00 0. -1.
        -14    1    6    6    0    0  0.71238584124E+01 -0.25446729450E+02  0.29655338620E+01  0.26590971954E+02  0.00000000000E+00 0.  1.
</event>
<event>
12    1  0.8493057E-002  0.1831669E+03  0.7818608E-02  0.1164850E+00
         21   -1    0    0  503  502  0.00000000000E+00  0.00000000000E+00  0.30489844756E+03  0.30489844756E+03  0.00000000000E+00 0.  1.
         21   -1    0    0  501  503 -0.00000000000E+00 -0.00000000000E+00 -0.11954792601E+03  0.11954792601E+03  0.00000000000E+00 0.  1.
          6    2    1    2  501    0 -0.51087951201E+02  0.35408163353E+02  0.15306848978E+03  0.23845650180E+03  0.17195297001E+03 0.  0.
         24    2    3    3    0    0 -0.34067415139E+02  0.17537205324E+02  0.18075798838E+03  0.20106842721E+03  0.79290098446E+02 0.  0.
         -6    2    1    2    0  502  0.51087951201E+02 -0.35408163353E+02  0.32282031765E+02  0.18598987176E+03  0.17229737675E+03 0.  0.
        -24    2    5    5    0    0  0.15763093510E+02  0.27088706085E+02 -0.29662937387E+02  0.91053190425E+02  0.80178055089E+02 0.  0.
          5    1    3    3  501    0 -0.17020536062E+02  0.17870958028E+02 -0.27689498600E+02  0.37388074588E+02  0.47000000000E+01 0. -1.
        -11    1    4    4    0    0 -0.59417192927E+02  0.14394998212E+02  0.14256679805E+03  0.15512224436E+03  0.00000000000E+00 0.  1.
         12    1    4    4    0    0  0.25349777788E+02  0.31422071124E+01  0.38191190329E+02  0.45946182847E+02  0.00000000000E+00 0. -1.
         -5    1    5    5    0  502  0.35324857691E+02 -0.62496869438E+02  0.61944969152E+02  0.94936681339E+02  0.47000000000E+01 0.  1.
         13    1    6    6    0    0 -0.31273793454E+02  0.35895954696E+01 -0.20802491136E+02  0.37731670916E+02  0.00000000000E+00 0. -1.
        -14    1    6    6    0    0  0.47036886964E+02  0.23499110615E+02 -0.88604462501E+01  0.53321519509E+02  0.00000000000E+00 0.  1.
</event>
<event>
12    1  0.8493057E-002  0.1935615E+03  0.7818608E-02  0.1155726E+00
         21   -1    0    0  501  502  0.00000000000E+00  0.00000000000E+00  0.31006295312E+03  0.31006295312E+03  0.00000000000E+00 0. -1.
         21   -1    0    0  502  503 -0.00000000000E+00 -0.00000000000E+00 -0.19387035969E+03  0.19387035969E+03  0.00000000000E+00 0. -1.
         -6    2    1    2    0  503 -0.82662848834E+02  0.88914076884E+00 -0.97669824372E+02  0.21680738506E+03  0.17502031446E+03 0.  0.
        -24    2    3    3    0    0 -0.70287419436E+01  0.54303901473E+02 -0.71129901571E+02  0.12037029526E+03  0.80194938466E+02 0.  0.
          6    2    1    2  501    0  0.82662848834E+02 -0.88914076884E+00  0.21386241780E+03  0.28712592775E+03  0.17283005377E+03 0.  0.
         24    2    5    5    0    0 -0.20993488701E+02 -0.19969465230E+02  0.10759599423E+03  0.13738168622E+03  0.80357473974E+02 0.  0.
          5    1    5    5  501    0  0.10365633754E+03  0.19080324461E+02  0.10626642357E+03  0.14974424153E+03  0.47000000000E+01 0. -1.
        -13    1    6    6    0    0 -0.47337255879E+02 -0.15570303723E+02  0.37488409096E+02  0.62358888450E+02  0.00000000000E+00 0.  1.
         14    1    6    6    0    0  0.26343767178E+02 -0.43991615072E+01  0.70107585136E+02  0.75022797766E+02  0.00000000000E+00 0. -1.
         -5    1    3    3    0  503 -0.75634106891E+02 -0.53414760704E+02 -0.26539922800E+02  0.96437089797E+02  0.47000000000E+01 0.  1.
         13    1    4    4    0    0 -0.16036704656E+02  0.27886771081E+02 -0.83767313448E+02  0.89731882293E+02  0.00000000000E+00 0. -1.
        -14    1    4    4    0    0  0.90079627126E+01  0.26417130392E+02  0.12637411876E+02  0.30638412970E+02  0.00000000000E+00 0.  1.
</event>
<event>
12    1  0.8493057E-002  0.2255600E+03  0.7818608E-02  0.1131076E+00
         21   -1    0    0  501  502  0.00000000000E+00  0.00000000000E+00  0.98465093591E+03  0.98465093591E+03  0.00000000000E+00 0. -1.
         21   -1    0    0  502  503 -0.00000000000E+00 -0.00000000000E+00 -0.52096481896E+02  0.52096481896E+02  0.00000000000E+00 0. -1.
         -6    2    1    2    0  503 -0.84066370863E+02  0.10581132873E+03  0.35770179418E+03  0.41922585958E+03  0.17186202543E+03 0.  0.
        -24    2    3    3    0    0 -0.96638467786E+02  0.52983750731E+02  0.33202649918E+03  0.35897537086E+03  0.80470177249E+02 0.  0.
          6    2    1    2  501    0  0.84066370863E+02 -0.10581132873E+03  0.57485265983E+03  0.61752155822E+03  0.18059374949E+03 0.  0.
         24    2    5    5    0    0 -0.12711463336E+01  0.29621282356E+01  0.15853703585E+03  0.17882468616E+03  0.82667325035E+02 0.  0.
          5    1    5    5  501    0  0.85337517197E+02 -0.10877345697E+03  0.41631562398E+03  0.43869687206E+03  0.47000000000E+01 0. -1.
        -13    1    6    6    0    0 -0.11288431526E+02 -0.35164842488E+02  0.42660235196E+02  0.56425973633E+02  0.00000000000E+00 0.  1.
         14    1    6    6    0    0  0.10017285192E+02  0.38126970723E+02  0.11587680065E+03  0.12239871253E+03  0.00000000000E+00 0. -1.
         -5    1    3    3    0  503  0.12572096923E+02  0.52827578001E+02  0.25675295003E+02  0.60250488728E+02  0.47000000000E+01 0.  1.
         11    1    4    4    0    0 -0.47208254429E+02  0.69061028265E+02  0.22351769546E+03  0.23865918188E+03  0.00000000000E+00 0. -1.
        -12    1    4    4    0    0 -0.49430213358E+02 -0.16077277534E+02  0.10850880372E+03  0.12031618898E+03  0.00000000000E+00 0.  1.
</event>
<event>
12    1  0.8493057E-002  0.1875932E+03  0.7818608E-02  0.1160715E+00
         21   -1    0    0  503  502  0.00000000000E+00  0.00000000000E+00  0.13639537394E+04  0.13639537394E+04  0.00000000000E+00 0. -1.
         21   -1    0    0  501  503 -0.00000000000E+00 -0.00000000000E+00 -0.29765222044E+02  0.29765222044E+02  0.00000000000E+00 0. -1.
          6    2    1    2  501    0  0.48683110722E+01  0.74592051038E+02  0.41110436255E+03  0.45176589796E+03  0.17174968738E+03 0.  0.
         24    2    3    3    0    0 -0.41317709563E+02 -0.31275053344E+01  0.84239047471E+02  0.11259558359E+03  0.62166018944E+02 0.  0.
         -6    2    1    2    0  502 -0.48683110722E+01 -0.74592051038E+02  0.92308415479E+03  0.94195306348E+03  0.17205680003E+03 0.  0.
        -24    2    5    5    0    0  0.13405738815E+02  0.99892831299E+01  0.65849212061E+03  0.66353076275E+03  0.79885546889E+02 0.  0.
          5    1    3    3  501    0  0.46186020636E+02  0.77719556372E+02  0.32686531508E+03  0.33917031437E+03  0.47000000000E+01 0. -1.
        -11    1    4    4    0    0 -0.45661020567E+02  0.20864713502E+02  0.59710605443E+02  0.78010393353E+02  0.00000000000E+00 0.  1.
         12    1    4    4    0    0  0.43433110035E+01 -0.23992218837E+02  0.24528442028E+02  0.34585190234E+02  0.00000000000E+00 0. -1.
         -5    1    5    5    0  502 -0.18274049888E+02 -0.84581334168E+02  0.26459203418E+03  0.27842230073E+03  0.47000000000E+01 0.  1.
         11    1    6    6    0    0 -0.11258444091E+02  0.41650050153E+01  0.59565165740E+03  0.59577260494E+03  0.00000000000E+00 0. -1.
        -12    1    6    6    0    0  0.24664182907E+02  0.58242781146E+01  0.62840463212E+02  0.67758157817E+02  0.00000000000E+00 0.  1.
</event>
<event>
12    1  0.8493057E-002  0.1978337E+03  0.7818608E-02  0.1151814E+00
         21   -1    0    0  501  502  0.00000000000E+00  0.00000000000E+00  0.39484413786E+03  0.39484413786E+03  0.00000000000E+00 0. -1.
         21   -1    0    0  502  503 -0.00000000000E+00 -0.00000000000E+00 -0.13695726306E+03  0.13695726306E+03  0.00000000000E+00 0.  1.
         -6    2    1    2    0  503  0.71427424348E+02 -0.63355154965E+02 -0.11559709628E+02  0.19817109263E+03  0.17326973902E+03 0.  0.
        -24    2    3    3    0    0  0.51848255468E+01 -0.58199646152E+01  0.46671354175E+02  0.92760814121E+02  0.79784703620E+02 0.  0.
          6    2    1    2  501    0 -0.71427424348E+02  0.63355154965E+02  0.26944658442E+03  0.33363030829E+03  0.17202316165E+03 0.  0.
         24    2    5    5    0    0 -0.39309895971E+02  0.10800930475E+03  0.17808090428E+03  0.22688150862E+03  0.80939067528E+02 0.  0.
          5    1    5    5  501    0 -0.32117528376E+02 -0.44654149785E+02  0.91365680141E+02  0.10674879966E+03  0.47000000000E+01 0. -1.
        -11    1    6    6    0    0  0.21367565083E+01  0.89786391478E+02  0.14592587814E+03  0.17134912819E+03  0.00000000000E+00 0.  1.
         12    1    6    6    0    0 -0.41446652480E+02  0.18222913272E+02  0.32155026144E+02  0.55532380430E+02  0.00000000000E+00 0. -1.
         -5    1    3    3    0  503  0.66242598801E+02 -0.57535190350E+02 -0.58231063803E+02  0.10541027851E+03  0.47000000000E+01 0.  1.
         11    1    4    4    0    0  0.58995698261E+01 -0.30330599349E+02  0.58024670968E+02  0.65738973387E+02  0.00000000000E+00 0. -1.
        -12    1    4    4    0    0 -0.71474427933E+00  0.24510634734E+02 -0.11353316793E+02  0.27021840734E+02  0.00000000000E+00 0.  1.
</event>
<event>
12    1  0.8493057E-002  0.2235952E+03  0.7818608E-02  0.1131398E+00
         21   -1    0    0  503  502  0.00000000000E+00  0.00000000000E+00  0.81476599960E+03  0.81476599960E+03  0.00000000000E+00 0.  1.
         21   -1    0    0  501  503 -0.00000000000E+00 -0.00000000000E+00 -0.67515342319E+02  0.67515342319E+02  0.00000000000E+00 0.  1.
          6    2    1    2  501    0  0.10139870157E+03  0.10045440082E+03  0.23705597162E+03  0.32524144839E+03  0.17092010632E+03 0.  0.
         24    2    3    3    0    0  0.13693074840E+03  0.86880796861E+02  0.17145981518E+03  0.24926964562E+03  0.80240795641E+02 0.  0.
         -6    2    1    2    0  502 -0.10139870157E+03 -0.10045440082E+03  0.51019468566E+03  0.55703989353E+03  0.17211055281E+03 0.  0.
        -24    2    5    5    0    0 -0.26985489691E+02 -0.48118640130E+01  0.13691123948E+03  0.16455111390E+03  0.87069000795E+02 0.  0.
          5    1    3    3  501    0 -0.35532046830E+02  0.13573603956E+02  0.65596156440E+02  0.75971802769E+02  0.47000000000E+01 0. -1.
        -11    1    4    4    0    0  0.56313257914E+02  0.60524729406E+02  0.37642742355E+02  0.90837227713E+02  0.00000000000E+00 0.  1.
         12    1    4    4    0    0  0.80617490484E+02  0.26356067454E+02  0.13381707283E+03  0.15843241791E+03  0.00000000000E+00 0. -1.
         -5    1    5    5    0  502 -0.74413211877E+02 -0.95642536804E+02  0.37328344617E+03  0.39248877963E+03  0.47000000000E+01 0.  1.
         13    1    6    6    0    0 -0.33949455427E+02  0.32512569861E+02  0.10466862907E+03  0.11473950773E+03  0.00000000000E+00 0. -1.
        -14    1    6    6    0    0  0.69639657363E+01 -0.37324433874E+02  0.32242610411E+02  0.49811606167E+02  0.00000000000E+00 0.  1.
</event>
<event>
12    1  0.8493057E-002  0.1881466E+03  0.7818608E-02  0.1160372E+00
         21   -1    0    0  503  502  0.00000000000E+00  0.00000000000E+00  0.85544163988E+03  0.85544163988E+03  0.00000000000E+00 0.  1.
         21   -1    0    0  501  503 -0.00000000000E+00 -0.00000000000E+00 -0.55090004155E+02  0.55090004155E+02  0.00000000000E+00 0. -1.
          6    2    1    2  501    0 -0.62855010841E+02 -0.43471919539E+02  0.17046631648E+03  0.25314692639E+03  0.17083337236E+03 0.  0.
         24    2    3    3    0    0 -0.15655096243E+02  0.13083783542E+02  0.15718466674E+03  0.17814778167E+03  0.81322476757E+02 0.  0.
         -6    2    1    2    0  502  0.62855010841E+02  0.43471919539E+02  0.62988531924E+03  0.65738471764E+03  0.17192612197E+03 0.  0.
        -24    2    5    5    0    0 -0.12923078446E+02 -0.10289490667E+02  0.41720916562E+03  0.42525147064E+03  0.80637744460E+02 0.  0.
          5    1    3    3  501    0 -0.47199914598E+02 -0.56555703082E+02  0.13281649743E+02  0.74999144722E+02  0.47000000000E+01 0. -1.
        -13    1    4    4    0    0  0.22024750012E+02  0.31652753911E+02  0.50859498693E+02  0.63825348026E+02  0.00000000000E+00 0.  1.
         14    1    4    4    0    0 -0.37679846255E+02 -0.18568970369E+02  0.10632516805E+03  0.11432243365E+03  0.00000000000E+00 0. -1.
         -5    1    5    5    0  502  0.75778089287E+02  0.53761410206E+02  0.21267615362E+03  0.23213324700E+03  0.47000000000E+01 0.  1.
         11    1    6    6    0    0  0.47642081273E+01 -0.16547205017E+02  0.15694193110E+02  0.23298398450E+02  0.00000000000E+00 0. -1.
        -12    1    6    6    0    0 -0.17687286574E+02  0.62577143506E+01  0.40151497251E+03  0.40195307219E+03  0.00000000000E+00 0.  1.
</event>
<event>
12    1  0.8493057E-002  0.2120053E+03  0.7818608E-02  0.1140044E+00
         21   -1    0    0  501  502  0.00000000000E+00  0.00000000000E+00  0.27162929083E+03  0.27162929083E+03  0.00000000000E+00 0. -1.
         21   -1    0    0  502  503 -0.00000000000E+00 -0.00000000000E+00 -0.16591268176E+03  0.16591268176E+03  0.00000000000E+00 0.  1.
         -6    2    1    2    0  503  0.39248353211E+02  0.11928627431E+03  0.39032686413E+02  0.21556856352E+03  0.17081161113E+03 0.  0.
        -24    2    3    3    0    0  0.66974200295E+02  0.14112971013E+03  0.40268850003E+02  0.17993885141E+03  0.79707411072E+02 0.  0.
          6    2    1    2  501    0 -0.39248353211E+02 -0.11928627431E+03  0.66683922654E+02  0.22197340907E+03  0.17045762032E+03 0.  0.
         24    2    5    5    0    0 -0.51276733639E+02 -0.13296681344E+02  0.12094324984E+00  0.96151328418E+02  0.80243119217E+02 0.  0.
          5    1    5    5  501    0  0.12028380428E+02 -0.10598959297E+03  0.66562979404E+02  0.12582208066E+03  0.47000000000E+01 0. -1.
        -13    1    6    6    0    0  0.19682657598E+02 -0.13541000831E+02 -0.68408863829E+01  0.24850823731E+02  0.00000000000E+00 0.  1.
         14    1    6    6    0    0 -0.70959391237E+02  0.24431948673E+00  0.69618296327E+01  0.71300504686E+02  0.00000000000E+00 0. -1.
         -5    1    3    3    0  503 -0.27725847084E+02 -0.21843435812E+02 -0.12361635898E+01  0.35629712109E+02  0.47000000000E+01 0.  1.
         13    1    4    4    0    0  0.10009676907E+02  0.76393265246E+02 -0.13638943377E+02  0.78244139609E+02  0.00000000000E+00 0. -1.
        -14    1    4    4    0    0  0.56964523389E+02  0.64736444879E+02  0.53907793380E+02  0.10169471180E+03  0.00000000000E+00 0.  1.
</event>
<event>
12    1  0.8493057E-002  0.1969671E+03  0.7818608E-02  0.1152568E+00
         21   -1    0    0  501  502  0.00000000000E+00  0.00000000000E+00  0.31521280673E+03  0.31521280673E+03  0.00000000000E+00 0. -1.
         21   -1    0    0  502  503 -0.00000000000E+00 -0.00000000000E+00 -0.12594460080E+03  0.12594460080E+03  0.00000000000E+00 0.  1.
         -6    2    1    2    0  503 -0.92391230413E+02  0.21084422375E+02  0.57221290242E+02  0.20402360916E+03  0.17137871721E+03 0.  0.
        -24    2    3    3    0    0 -0.16348888166E+02 -0.37958270401E+02 -0.82634031340E+01  0.87495447533E+02  0.76674983349E+02 0.  0.
          6    2    1    2  501    0  0.92391230413E+02 -0.21084422375E+02  0.13204691569E+03  0.23713379838E+03  0.17267124273E+03 0.  0.
         24    2    5    5    0    0  0.45442822676E+02 -0.14870568918E+02  0.15642269656E+03  0.18366386611E+03  0.83535452133E+02 0.  0.
          5    1    5    5  501    0  0.46948407736E+02 -0.62138534565E+01 -0.24375780873E+02  0.53469932269E+02  0.47000000000E+01 0. -1.
        -11    1    6    6    0    0  0.16546959659E+02 -0.15443066135E+02 -0.19106679223E+01  0.22714330664E+02  0.00000000000E+00 0.  1.
         12    1    6    6    0    0  0.28895863017E+02  0.57249721624E+00  0.15833336448E+03  0.16094953545E+03  0.00000000000E+00 0. -1.
         -5    1    3    3    0  503 -0.76042342247E+02  0.59042692776E+02  0.65484693375E+02  0.11652816162E+03  0.47000000000E+01 0.  1.
         11    1    4    4    0    0  0.31112256812E+01  0.12698015446E+02 -0.27071382290E+02  0.30062918364E+02  0.00000000000E+00 0. -1.
        -12    1    4    4    0    0 -0.19460113847E+02 -0.50656285848E+02  0.18807979156E+02  0.57432529169E+02  0.00000000000E+00 0.  1.
</event>
<event>
12    1  0.8493057E-002  0.2650143E+03  0.7818608E-02  0.1104337E+00
         21   -1    0    0  501  502  0.00000000000E+00  0.00000000000E+00  0.11803628950E+03  0.11803628950E+03  0.00000000000E+00 0. -1.
         21   -1    0    0  502  503 -0.00000000000E+00 -0.00000000000E+00 -0.65645994564E+03  0.65645994564E+03  0.00000000000E+00 0. -1.
         -6    2    1    2    0  503  0.17610534794E+03 -0.98589223720E+02 -0.38963443016E+03  0.47057052858E+03  0.16996677496E+03 0.  0.
        -24    2    3    3    0    0  0.11241295929E+03 -0.20820819939E+02 -0.30576048323E+03  0.33956833786E+03  0.93525413723E+02 0.  0.
          6    2    1    2  501    0 -0.17610534794E+03  0.98589223720E+02 -0.14878922597E+03  0.30392570656E+03  0.17175468767E+03 0.  0.
         24    2    5    5    0    0 -0.17975866601E+03  0.56016469976E+02 -0.74307856881E+02  0.21792948318E+03  0.80750102990E+02 0.  0.
          5    1    5    5  501    0  0.36533180658E+01  0.42572753744E+02 -0.74481369088E+02  0.85996223379E+02  0.47000000000E+01 0. -1.
        -13    1    6    6    0    0 -0.15337788370E+03  0.34005609661E+02 -0.89002193203E+02  0.18056175424E+03  0.00000000000E+00 0.  1.
         14    1    6    6    0    0 -0.26380782305E+02  0.22010860315E+02  0.14694336321E+02  0.37367728949E+02  0.00000000000E+00 0. -1.
         -5    1    3    3    0  503  0.63692388653E+02 -0.77768403781E+02 -0.83873946930E+02  0.13100219072E+03  0.47000000000E+01 0.  1.
         11    1    4    4    0    0  0.12835268374E+03 -0.18107714810E+02 -0.28623129140E+03  0.31421434235E+03  0.00000000000E+00 0. -1.
        -12    1    4    4    0    0 -0.15939724450E+02 -0.27131051289E+01 -0.19529191832E+02  0.25353995516E+02  0.00000000000E+00 0.  1.
</event>
<event>
12    1  0.8493057E-002  0.1865498E+03  0.7818608E-02  0.1161625E+00
         21   -1    0    0  503  502  0.00000000000E+00  0.00000000000E+00  0.59622401763E+02  0.59622401763E+02  0.00000000000E+00 0.  1.
         21   -1    0    0  501  503 -0.00000000000E+00 -0.00000000000E+00 -0.65492551810E+03  0.65492551810E+03  0.00000000000E+00 0.  1.
          6    2    1    2  501    0 -0.53376703072E+02 -0.46764755502E+02 -0.17960556410E+03  0.25891068033E+03  0.17245453587E+03 0.  0.
         24    2    3    3    0    0 -0.45475040852E+02 -0.14957531526E+02 -0.19957894907E+03  0.22024335730E+03  0.79897887538E+02 0.  0.
         -6    2    1    2    0  502  0.53376703072E+02  0.46764755502E+02 -0.41569755223E+03  0.45563723953E+03  0.17252485134E+03 0.  0.
        -24    2    5    5    0    0  0.80598665093E+02  0.75107138134E+02 -0.37433301097E+03  0.39838829942E+03  0.80316916051E+02 0.  0.
          5    1    3    3  501    0 -0.79016622197E+01 -0.31807223976E+02  0.19973384969E+02  0.38667323026E+02  0.47000000000E+01 0. -1.
        -11    1    4    4    0    0 -0.54483312613E+02 -0.29360401160E+02 -0.89221889919E+02  0.10858641789E+03  0.00000000000E+00 0.  1.
         12    1    4    4    0    0  0.90082717612E+01  0.14402869633E+02 -0.11035705915E+03  0.11165693941E+03  0.00000000000E+00 0. -1.
         -5    1    5    5    0  502 -0.27221962021E+02 -0.28342382632E+02 -0.41364541261E+02  0.57248940106E+02  0.47000000000E+01 0.  1.
         11    1    6    6    0    0 -0.88582351372E+01  0.38079117635E+02 -0.12240453080E+03  0.12849652404E+03  0.00000000000E+00 0. -1.
        -12    1    6    6    0    0  0.89456900230E+02  0.37028020499E+02 -0.25192848017E+03  0.26989177539E+03  0.00000000000E+00 0.  1.
</event>
<event>
12    1  0.8493057E-002  0.2855254E+03  0.7818608E-02  0.1092729E+00
         21   -1    0    0  501  502  0.00000000000E+00  0.00000000000E+00  0.85575689319E+02  0.85575689319E+02  0.00000000000E+00 0.  1.
         21   -1    0    0  502  503 -0.00000000000E+00 -0.00000000000E+00 -0.14202644971E+04  0.14202644971E+04  0.00000000000E+00 0.  1.
         -6    2    1    2    0  503 -0.21182539576E+03 -0.81904037668E+02 -0.10997228487E+04  0.11361844469E+04  0.17305052395E+03 0.  0.
        -24    2    3    3    0    0 -0.44813626499E+02 -0.74014973576E+02 -0.51115357212E+03  0.52430941743E+03  0.78332071851E+02 0.  0.
          6    2    1    2  501    0  0.21182539576E+03  0.81904037668E+02 -0.23496595913E+03  0.36965573953E+03  0.17279494826E+03 0.  0.
         24    2    5    5    0    0  0.23545604024E+03  0.72656680286E+02 -0.22345914893E+03  0.34139945425E+03  0.76818331417E+02 0.  0.
          5    1    5    5  501    0 -0.23630644482E+02  0.92473573824E+01 -0.11506810199E+02  0.28256285286E+02  0.47000000000E+01 0. -1.
        -13    1    6    6    0    0  0.52330376983E+02  0.21174770995E+02 -0.13423216439E+02  0.58026046061E+02  0.00000000000E+00 0.  1.
         14    1    6    6    0    0  0.18312566326E+03  0.51481909291E+02 -0.21003593250E+03  0.28337340819E+03  0.00000000000E+00 0. -1.
         -5    1    3    3    0  503 -0.16701176926E+03 -0.78890640924E+01 -0.58856927655E+03  0.61187502948E+03  0.47000000000E+01 0.  1.
         13    1    4    4    0    0  0.76609921444E+01  0.12933077034E+02 -0.58095032110E+02  0.60008233086E+02  0.00000000000E+00 0. -1.
        -14    1    4    4    0    0 -0.52474618643E+02 -0.86948050610E+02 -0.45305854001E+03  0.46430118434E+03  0.00000000000E+00 0.  1.
</event>
<event>
12    1  0.8493057E-002  0.2194293E+03  0.7818608E-02  0.1134377E+00
         21   -1    0    0  501  502  0.00000000000E+00  0.00000000000E+00  0.25105296035E+03  0.25105296035E+03  0.00000000000E+00 0.  1.
         21   -1    0    0  502  503 -0.00000000000E+00 -0.00000000000E+00 -0.19461701114E+03  0.19461701114E+03  0.00000000000E+00 0. -1.
         -6    2    1    2    0  503 -0.11126038931E+03  0.76830044107E+02 -0.13581059438E+00  0.21906552551E+03  0.17235996088E+03 0.  0.
        -24    2    3    3    0    0 -0.11951261457E+03  0.86039029148E+02  0.43950847388E+02  0.17303696873E+03  0.79524436395E+02 0.  0.
          6    2    1    2  501    0  0.11126038931E+03 -0.76830044107E+02  0.56571759797E+02  0.22660444598E+03  0.17282210803E+03 0.  0.
         24    2    5    5    0    0  0.67075990457E+02 -0.38414475984E+02  0.10319910688E+03  0.15160966968E+03  0.79753218229E+02 0.  0.
          5    1    5    5  501    0  0.44184398856E+02 -0.38415568123E+02 -0.46627347085E+02  0.74994776303E+02  0.47000000000E+01 0. -1.
        -11    1    6    6    0    0  0.41513172867E+02 -0.61151232181E+02  0.85743879184E+02  0.11320260393E+03  0.00000000000E+00 0.  1.
         12    1    6    6    0    0  0.25562817590E+02  0.22736756197E+02  0.17455227698E+02  0.38407065749E+02  0.00000000000E+00 0. -1.
         -5    1    3    3    0  503  0.82522252526E+01 -0.92089850416E+01 -0.44086657982E+02  0.46028556779E+02  0.47000000000E+01 0.  1.
         13    1    4    4    0    0 -0.17319221576E+02  0.10242951182E+02 -0.21926473953E+02  0.29759767219E+02  0.00000000000E+00 0. -1.
        -14    1    4    4    0    0 -0.10219339299E+03  0.75796077966E+02  0.65877321341E+02  0.14327720151E+03  0.00000000000E+00 0.  1.
</event>
<event>
12    1  0.8493057E-002  0.1964604E+03  0.7818608E-02  0.1153414E+00
         21   -1    0    0  501  502  0.00000000000E+00  0.00000000000E+00  0.10380713686E+04  0.10380713686E+04  0.00000000000E+00 0.  1.
         21   -1    0    0  502  503 -0.00000000000E+00 -0.00000000000E+00 -0.39752401666E+02  0.39752401666E+02  0.00000000000E+00 0.  1.
         -6    2    1    2    0  503  0.34026972571E+02 -0.85722202590E+02  0.35130949560E+03  0.40251093062E+03  0.17346629843E+03 0.  0.
        -24    2    3    3    0    0  0.61219952796E+02 -0.78773357280E+02  0.35190389262E+03  0.37404713023E+03  0.78241814640E+02 0.  0.
          6    2    1    2  501    0 -0.34026972571E+02  0.85722202590E+02  0.64700947130E+03  0.67531283961E+03  0.17005894423E+03 0.  0.
         24    2    5    5    0    0  0.44183398266E+02  0.64056041967E+02  0.35356536273E+03  0.37081683064E+03  0.80257753337E+02 0.  0.
          5    1    5    5  501    0 -0.78210370837E+02  0.21666160623E+02  0.29344410858E+03  0.30449600897E+03  0.47000000000E+01 0. -1.
        -13    1    6    6    0    0  0.27395328666E+02  0.48901891200E+02  0.33968996893E+03  0.34428356624E+03  0.00000000000E+00 0.  1.
         14    1    6    6    0    0  0.16788069600E+02  0.15154150767E+02  0.13875393798E+02  0.26533264395E+02  0.00000000000E+00 0. -1.
         -5    1    3    3    0  503 -0.27192980226E+02 -0.69488453094E+01 -0.59439701917E+00  0.28463800388E+02  0.47000000000E+01 0.  1.
         13    1    4    4    0    0  0.20690980864E+02  0.13004571167E+02  0.45674072128E+02  0.51801123782E+02  0.00000000000E+00 0. -1.
        -14    1    4    4    0    0  0.40528971933E+02 -0.91777928448E+02  0.30622982049E+03  0.32224600645E+03  0.00000000000E+00 0.  1.
</event>
<event>
12    1  0.8493057E-002  0.1893868E+03  0.7818608E-02  0.1160421E+00
         21   -1    0    0  501  502  0.00000000000E+00  0.00000000000E+00  0.10275433615E+04  0.10275433615E+04  0.00000000000E+00 0. -1.
         21   -1    0    0  502  503 -0.00000000000E+00 -0.00000000000E+00 -0.33794073132E+02  0.33794073132E+02  0.00000000000E+00 0.  1.
         -6    2    1    2    0  503  0.54972328505E+02  0.35520701839E+02  0.50997999635E+03  0.54401008669E+03  0.17771803675E+03 0.  0.
        -24    2    3    3    0    0  0.33183794829E+02  0.57868827777E+02  0.49609020574E+03  0.50952537681E+03  0.95187456716E+02 0.  0.
          6    2    1    2  501    0 -0.54972328505E+02 -0.35520701839E+02  0.48376929204E+03  0.51732734796E+03  0.17120508131E+03 0.  0.
         24    2    5    5    0    0 -0.13324829384E+02  0.27918631734E+02  0.37127570809E+03  0.38154826394E+03  0.82319045324E+02 0.  0.
          5    1    5    5  501    0 -0.41647499121E+02 -0.63439333573E+02  0.11249358395E+03  0.13577908402E+03  0.47000000000E+01 0. -1.
        -13    1    6    6    0    0 -0.33892904297E+02  0.12598381241E+02  0.66494846263E+02  0.75690242113E+02  0.00000000000E+00 0.  1.
         14    1    6    6    0    0  0.20568074913E+02  0.15320250493E+02  0.30478086183E+03  0.30585802183E+03  0.00000000000E+00 0. -1.
         -5    1    3    3    0  503  0.21788533676E+02 -0.22348125938E+02  0.13889790616E+02  0.34484709888E+02  0.47000000000E+01 0.  1.
         13    1    4    4    0    0  0.53915862244E+02  0.34714997314E+02  0.16568056579E+03  0.17765725744E+03  0.00000000000E+00 0. -1.
        -14    1    4    4    0    0 -0.20732067415E+02  0.23153830463E+02  0.33040963995E+03  0.33186811937E+03  0.00000000000E+00 0.  1.
</event>
<event>
12    1  0.8493057E-002  0.2237972E+03  0.7818608E-02  0.1131100E+00
         21   -1    0    0  501  502  0.00000000000E+00  0.00000000000E+00  0.18641443587E+03  0.18641443587E+03  0.00000000000E+00 0.  1.
         21   -1    0    0  502  503 -0.00000000000E+00 -0.00000000000E+00 -0.37965990329E+03  0.37965990329E+03  0.00000000000E+00 0.  1.
         -6    2    1    2    0  503  0.14183892781E+03 -0.33642911917E+01 -0.24974003926E+03  0.33534353911E+03  0.17307686766E+03 0.  0.
        -24    2    3    3    0    0  0.13199199695E+03  0.13017598842E+02 -0.26715635371E+03  0.30906148483E+03  0.80963812530E+02 0.  0.
          6    2    1    2  501    0 -0.14183892781E+03  0.33642911917E+01  0.56494571833E+02  0.23073080005E+03  0.17296087866E+03 0.  0.
         24    2    5    5    0    0 -0.11868036379E+03  0.62588927364E+02  0.23117379568E+02  0.15875855831E+03  0.81654540721E+02 0.  0.
          5    1    5    5  501    0 -0.23158564014E+02 -0.59224636172E+02  0.33377192266E+02  0.71972241736E+02  0.47000000000E+01 0. -1.
        -11    1    6    6    0    0 -0.96610908326E+02  0.12619655545E+02 -0.45255148397E+01  0.97536678220E+02  0.00000000000E+00 0.  1.
         12    1    6    6    0    0 -0.22069455468E+02  0.49969271819E+02  0.27642894407E+02  0.61221880092E+02  0.00000000000E+00 0. -1.
         -5    1    3    3    0  503  0.98469308579E+01 -0.16381890034E+02  0.17416314450E+02  0.26282054285E+02  0.47000000000E+01 0.  1.
         11    1    4    4    0    0 -0.13562212683E+01 -0.16952956228E+02 -0.46422948920E+02  0.49440188586E+02  0.00000000000E+00 0. -1.
        -12    1    4    4    0    0  0.13334821822E+03  0.29970555070E+02 -0.22073340479E+03  0.25962129624E+03  0.00000000000E+00 0.  1.
</event>
<event>
12    1  0.8493057E-002  0.3747762E+03  0.7818608E-02  0.1052898E+00
         21   -1    0    0  503  502  0.00000000000E+00  0.00000000000E+00  0.96929099700E+03  0.96929099700E+03  0.00000000000E+00 0.  1.
         21   -1    0    0  501  503 -0.00000000000E+00 -0.00000000000E+00 -0.29634029237E+03  0.29634029237E+03  0.00000000000E+00 0. -1.
          6    2    1    2  501    0 -0.64671510209E+02 -0.32679159451E+03 -0.11595662204E+03  0.39230492969E+03  0.17170343384E+03 0.  0.
         24    2    3    3    0    0 -0.37198138866E+02 -0.12583922522E+03  0.90669867153E+01  0.15399917315E+03  0.80089468369E+02 0.  0.
         -6    2    1    2    0  502  0.64671510209E+02  0.32679159451E+03  0.78890732667E+03  0.87332635968E+03  0.17131552754E+03 0.  0.
        -24    2    5    5    0    0  0.52654307657E+01  0.96956512622E+02  0.17976645497E+03  0.21954662712E+03  0.80352056888E+02 0.  0.
          5    1    3    3  501    0 -0.27473371343E+02 -0.20095236929E+03 -0.12502360875E+03  0.23830575654E+03  0.47000000000E+01 0. -1.
        -13    1    4    4    0    0  0.15203174612E+02 -0.85920370287E+02  0.11907100625E+02  0.88063758686E+02  0.00000000000E+00 0.  1.
         14    1    4    4    0    0 -0.52401313478E+02 -0.39918854928E+02 -0.28401139096E+01  0.65935414460E+02  0.00000000000E+00 0. -1.
         -5    1    5    5    0  502  0.59406079443E+02  0.22983508188E+03  0.60914087170E+03  0.65377973257E+03  0.47000000000E+01 0.  1.
         13    1    6    6    0    0  0.39983714682E+02  0.73388694066E+02  0.11023162689E+03  0.13833151999E+03  0.00000000000E+00 0. -1.
        -14    1    6    6    0    0 -0.34718283917E+02  0.23567818556E+02  0.69534828080E+02  0.81215107127E+02  0.00000000000E+00 0.  1.
</event>
<event>
12    1  0.8493057E-002  0.2422002E+03  0.7818608E-02  0.1118419E+00
         21   -1    0    0  503  502  0.00000000000E+00  0.00000000000E+00  0.32538037247E+03  0.32538037247E+03  0.00000000000E+00 0. -1.
         21   -1    0    0  501  503 -0.00000000000E+00 -0.00000000000E+00 -0.20048007029E+03  0.20048007029E+03  0.00000000000E+00 0.  1.
          6    2    1    2  501    0 -0.68661018785E+02 -0.15594377297E+03 -0.21832877939E+02  0.24267927234E+03  0.17141691525E+03 0.  0.
         24    2    3    3    0    0 -0.10884317030E+03 -0.11240761098E+03 -0.41974783869E+02  0.17992746699E+03  0.78292427270E+02 0.  0.
         -6    2    1    2    0  502  0.68661018785E+02  0.15594377297E+03  0.14673318011E+03  0.28318117042E+03  0.17212830479E+03 0.  0.
        -24    2    5    5    0    0 -0.12934500620E+02  0.67897126085E+02  0.12145198204E+03  0.16041607037E+03  0.78774428943E+02 0.  0.
          5    1    3    3  501    0  0.40182151512E+02 -0.43536161982E+02  0.20141905929E+02  0.62751805350E+02  0.47000000000E+01 0. -1.
        -13    1    4    4    0    0  0.94171229609E+01 -0.27894314355E+02 -0.41517443429E+01  0.29732338611E+02  0.00000000000E+00 0.  1.
         14    1    4    4    0    0 -0.11826029326E+03 -0.84513296629E+02 -0.37823039526E+02  0.15019512838E+03  0.00000000000E+00 0. -1.
         -5    1    5    5    0  502  0.81595519405E+02  0.88046646881E+02  0.25281198071E+02  0.12276510005E+03  0.47000000000E+01 0.  1.
         11    1    6    6    0    0 -0.71295597395E+01  0.56998573626E+02  0.24115512210E+02  0.62299485926E+02  0.00000000000E+00 0. -1.
        -12    1    6    6    0    0 -0.58049408806E+01  0.10898552459E+02  0.97336469833E+02  0.98116584449E+02  0.00000000000E+00 0.  1.
</event>
<event>
12    1  0.8493057E-002  0.1871837E+03  0.7818608E-02  0.1161597E+00
         21   -1    0    0  503  502  0.00000000000E+00  0.00000000000E+00  0.36280939731E+03  0.36280939731E+03  0.00000000000E+00 0.  1.
         21   -1    0    0  501  503 -0.00000000000E+00 -0.00000000000E+00 -0.17824801176E+03  0.17824801176E+03  0.00000000000E+00 0.  1.
          6    2    1    2  501    0  0.63900086638E+02  0.32119377137E+02 -0.92583761989E+02  0.20662179480E+03  0.17031129628E+03 0.  0.
         24    2    3    3    0    0  0.69862783772E+02  0.81338377202E+02 -0.52195729001E+02  0.14250200898E+03  0.78010821525E+02 0.  0.
         -6    2    1    2    0  502 -0.63900086638E+02 -0.32119377137E+02  0.27714514754E+03  0.33443561427E+03  0.17298228761E+03 0.  0.
        -24    2    5    5    0    0 -0.83015655452E+02 -0.13331997371E+02  0.98746632786E+02  0.15397373277E+03  0.82991997755E+02 0.  0.
          5    1    3    3  501    0 -0.59626971338E+01 -0.49219000066E+02 -0.40388032988E+02  0.64119785817E+02  0.47000000000E+01 0. -1.
        -13    1    4    4    0    0 -0.79453757705E-01  0.39183221262E+02 -0.46257656911E+02  0.60622619246E+02  0.00000000000E+00 0.  1.
         14    1    4    4    0    0  0.69942237529E+02  0.42155155940E+02 -0.59380720897E+01  0.81879389733E+02  0.00000000000E+00 0. -1.
         -5    1    5    5    0  502  0.19115568814E+02 -0.18787379766E+02  0.17839851475E+03  0.18046188151E+03  0.47000000000E+01 0.  1.
         11    1    6    6    0    0 -0.55016103492E+02  0.29201087727E+02  0.75835362932E+02  0.98134995995E+02  0.00000000000E+00 0. -1.
        -12    1    6    6    0    0 -0.27999551960E+02 -0.42533085098E+02  0.22911269854E+02  0.55838736772E+02  0.00000000000E+00 0.  1.
</event>
<event>
12    1  0.8493057E-002  0.2662100E+03  0.7818608E-02  0.1103486E+00
         21   -1    0    0  503  502  0.00000000000E+00  0.00000000000E+00  0.20532018657E+03  0.20532018657E+03  0.00000000000E+00 0. -1.
         21   -1    0    0  501  503 -0.00000000000E+00 -0.00000000000E+00 -0.37365989145E+03  0.37365989145E+03  0.00000000000E+00 0. -1.
          6    2    1    2  501    0 -0.18815823260E+03 -0.78138242788E+02 -0.39816147102E+01  0.26612013255E+03  0.17115772320E+03 0.  0.
         24    2    3    3    0    0 -0.24082291324E+02 -0.41741983071E+02 -0.26619021080E+02  0.96473015287E+02  0.79221969738E+02 0.  0.
         -6    2    1    2    0  502  0.18815823260E+03  0.78138242788E+02 -0.16435809018E+03  0.31285994547E+03  0.17134368443E+03 0.  0.
        -24    2    5    5    0    0  0.63432179729E+02  0.94509400856E+02 -0.98085038524E+02  0.17059677225E+03  0.80789328772E+02 0.  0.
          5    1    3    3  501    0 -0.16407594128E+03 -0.36396259717E+02  0.22637406370E+02  0.16964711726E+03  0.47000000000E+01 0. -1.
        -13    1    4    4    0    0 -0.85243783977E+01 -0.50197809560E+02  0.13452386117E+02  0.52663571887E+02  0.00000000000E+00 0.  1.
         14    1    4    4    0    0 -0.15557912926E+02  0.84558264886E+01 -0.40071407197E+02  0.43809443400E+02  0.00000000000E+00 0. -1.
         -5    1    5    5    0  502  0.12472605287E+03 -0.16371158068E+02 -0.66273051652E+02  0.14226317323E+03  0.47000000000E+01 0.  1.
         11    1    6    6    0    0  0.50906469719E+02  0.93802897431E+02 -0.44617365582E+02  0.11567697064E+03  0.00000000000E+00 0. -1.
        -12    1    6    6    0    0  0.12525710011E+02  0.70650342539E+00 -0.53467672943E+02  0.54919801604E+02  0.00000000000E+00 0.  1.
</event>
<event>
12    1  0.8493057E-002  0.2275635E+03  0.7818608E-02  0.1128403E+00
         21   -1    0    0  503  502  0.00000000000E+00  0.00000000000E+00  0.46435754168E+03  0.46435754168E+03  0.00000000000E+00 0. -1.
         21   -1    0    0  501  503 -0.00000000000E+00 -0.00000000000E+00 -0.11201849498E+03  0.11201849498E+03  0.00000000000E+00 0. -1.
          6    2    1    2  501    0 -0.30822160372E+02  0.14535641380E+03  0.19714349840E+03  0.30092949095E+03  0.17208866018E+03 0.  0.
         24    2    3    3    0    0  0.40614149149E+02  0.10386629946E+03  0.85193642653E+02  0.16171944783E+03  0.80358607402E+02 0.  0.
         -6    2    1    2    0  502  0.30822160372E+02 -0.14535641380E+03  0.15519554831E+03  0.27544654571E+03  0.17235616822E+03 0.  0.
        -24    2    5    5    0    0 -0.46795933347E+02 -0.83042166258E+02  0.11112349654E+03  0.16648751824E+03  0.79270432646E+02 0.  0.
          5    1    3    3  501    0 -0.71436309521E+02  0.41490114345E+02  0.11194985574E+03  0.13921004313E+03  0.47000000000E+01 0. -1.
        -11    1    4    4    0    0  0.33823519465E+01 -0.49023152953E+01  0.36307519234E+02  0.36792783978E+02  0.00000000000E+00 0.  1.
         12    1    4    4    0    0  0.37231797202E+02  0.10876861475E+03  0.48886123420E+02  0.12492666385E+03  0.00000000000E+00 0. -1.
         -5    1    5    5    0  502  0.77618093719E+02 -0.62314247543E+02  0.44072051769E+02  0.10895902747E+03  0.47000000000E+01 0.  1.
         13    1    6    6    0    0 -0.43029044098E+01 -0.80107612288E+02  0.61457019174E+02  0.10105795238E+03  0.00000000000E+00 0. -1.
        -14    1    6    6    0    0 -0.42493028937E+02 -0.29345539709E+01  0.49666477365E+02  0.65429565863E+02  0.00000000000E+00 0.  1.
</event>
<event>
12    1  0.8493057E-002  0.2107171E+03  0.7818608E-02  0.1141145E+00
         21   -1    0    0  503  502  0.00000000000E+00  0.00000000000E+00  0.13544015390E+03  0.13544015390E+03  0.00000000000E+00 0. -1.
         21   -1    0    0  501  503 -0.00000000000E+00 -0.00000000000E+00 -0.39549755869E+03  0.39549755869E+03  0.00000000000E+00 0.  1.
          6    2    1    2  501    0 -0.66946849892E+02  0.10072275281E+03 -0.24095043346E+03  0.32009185809E+03  0.17255356440E+03 0.  0.
         24    2    3    3    0    0 -0.54290421825E+02  0.35693977984E+02 -0.48400845272E+02  0.11640984947E+03  0.83588882414E+02 0.  0.
         -6    2    1    2    0  502  0.66946849892E+02 -0.10072275281E+03 -0.19106971341E+02  0.21084585450E+03  0.17165064626E+03 0.  0.
        -24    2    5    5    0    0  0.26287279321E+01  0.29178033355E+01  0.20199188329E+02  0.82606820357E+02  0.80002848534E+02 0.  0.
          5    1    3    3  501    0 -0.12656428067E+02  0.65028774823E+02 -0.19254958818E+03  0.20368200862E+03  0.47000000000E+01 0. -1.
        -13    1    4    4    0    0 -0.74824716744E+02  0.25309000353E+02 -0.49764688583E+02  0.93358491657E+02  0.00000000000E+00 0.  1.
         14    1    4    4    0    0  0.20534294919E+02  0.10384977632E+02  0.13638433108E+01  0.23051357808E+02  0.00000000000E+00 0. -1.
         -5    1    5    5    0  502  0.64318121960E+02 -0.10364055614E+03 -0.39306159669E+02  0.12823903414E+03  0.47000000000E+01 0.  1.
         13    1    6    6    0    0 -0.32815051774E+02  0.22213254503E+02  0.12240346741E+02  0.41473875957E+02  0.00000000000E+00 0. -1.
        -14    1    6    6    0    0  0.35443779706E+02 -0.19295451168E+02  0.79588415877E+01  0.41132944400E+02  0.00000000000E+00 0.  1.
</event>
<event>
12    1  0.8493057E-002  0.2508300E+03  0.7818608E-02  0.1112991E+00
         21   -1    0    0  503  502  0.00000000000E+00  0.00000000000E+00  0.10606448623E+03  0.10606448623E+03  0.00000000000E+00 0. -1.
         21   -1    0    0  501  503 -0.00000000000E+00 -0.00000000000E+00 -0.93056628657E+03  0.93056628657E+03  0.00000000000E+00 0.  1.
          6    2    1    2  501    0 -0.96857526132E+02  0.15280705389E+03 -0.72509714525E+03  0.76682161412E+03  0.17180844491E+03 0.  0.
         24    2    3    3    0    0 -0.11884091399E+03  0.15482230896E+03 -0.70785523451E+03  0.73841907760E+03  0.78170268932E+02 0.  0.
         -6    2    1    2    0  502  0.96857526132E+02 -0.15280705389E+03 -0.99404655096E+02  0.26980915868E+03  0.17373635360E+03 0.  0.
        -24    2    5    5    0    0  0.12065955424E+03 -0.16438397504E+03 -0.10535858370E+03  0.24227552632E+03  0.77564039440E+02 0.  0.
          5    1    3    3  501    0  0.21983387861E+02 -0.20152550712E+01 -0.17241910738E+02  0.28402536520E+02  0.47000000000E+01 0. -1.
        -11    1    4    4    0    0 -0.85364253040E+02  0.47318417066E+02 -0.33668057994E+03  0.35054229588E+03  0.00000000000E+00 0.  1.
         12    1    4    4    0    0 -0.33476660954E+02  0.10750389190E+03 -0.37117465456E+03  0.38787678171E+03  0.00000000000E+00 0. -1.
         -5    1    5    5    0  502 -0.23802028104E+02  0.11576921150E+02  0.59539285998E+01  0.27533632361E+02  0.47000000000E+01 0.  1.
         13    1    6    6    0    0  0.34130461235E+02 -0.10532980233E+03 -0.73043156499E+02  0.13264448105E+03  0.00000000000E+00 0. -1.
        -14    1    6    6    0    0  0.86529093001E+02 -0.59054172716E+02 -0.32315427197E+02  0.10963104526E+03  0.00000000000E+00 0.  1.
</event>
<event>
12    1  0.8493057E-002  0.2786316E+03  0.7818608E-02  0.1096635E+00
         21   -1    0    0  503  502  0.00000000000E+00  0.00000000000E+00  0.10932382633E+04  0.10932382633E+04  0.00000000000E+00 0.  1.
         21   -1    0    0  501  503 -0.00000000000E+00 -0.00000000000E+00 -0.83921798808E+02  0.83921798808E+02  0.00000000000E+00 0. -1.
          6    2    1    2  501    0 -0.20450134830E+03  0.79779732397E+02  0.27170432699E+03  0.38917712338E+03  0.17160997903E+03 0.  0.
         24    2    3    3    0    0 -0.90467709011E+02  0.39738708395E+02  0.22690275824E+03  0.26019563225E+03  0.80332646085E+02 0.  0.
         -6    2    1    2    0  502  0.20450134830E+03 -0.79779732397E+02  0.73761213751E+03  0.78798293873E+03  0.16929217104E+03 0.  0.
        -24    2    5    5    0    0  0.17772228256E+03 -0.10024491732E+03  0.71326113414E+03  0.74613794475E+03  0.79662625913E+02 0.  0.
          5    1    3    3  501    0 -0.11403363928E+03  0.40041024002E+02  0.44801568748E+02  0.12898149113E+03  0.47000000000E+01 0. -1.
        -13    1    4    4    0    0 -0.93638835189E+02  0.18858143991E+02  0.13178305475E+03  0.16275943772E+03  0.00000000000E+00 0.  1.
         14    1    4    4    0    0  0.31711261778E+01  0.20880564404E+02  0.95119703492E+02  0.97436194524E+02  0.00000000000E+00 0. -1.
         -5    1    5    5    0  502  0.26779065738E+02  0.20465184921E+02  0.24351003370E+02  0.41844993975E+02  0.47000000000E+01 0.  1.
         13    1    6    6    0    0  0.16280842300E+03 -0.68738454862E+02  0.50617827472E+03  0.53614177563E+03  0.00000000000E+00 0. -1.
        -14    1    6    6    0    0  0.14913859560E+02 -0.31506462456E+02  0.20708285942E+03  0.20999616912E+03  0.00000000000E+00 0.  1.
</event>
<event>
12    1  0.8493057E-002  0.1806642E+03  0.7818608E-02  0.1167455E+00
         21   -1    0    0  503  502  0.00000000000E+00  0.00000000000E+00  0.25884739293E+03  0.25884739293E+03  0.00000000000E+00 0. -1.
         21   -1    0    0  501  503 -0.00000000000E+00 -0.00000000000E+00 -0.14224187055E+03  0.14224187055E+03  0.00000000000E+00 0. -1.
          6    2    1    2  501    0 -0.38021086279E+02  0.30522093972E+02 -0.10837872179E+02  0.18098896192E+03  0.17396075316E+03 0.  0.
         24    2    3    3    0    0  0.16680181553E+02  0.17723120720E+02  0.50602471403E+02  0.97604021802E+02  0.79834813805E+02 0.  0.
         -6    2    1    2    0  502  0.38021086279E+02 -0.30522093972E+02  0.12744339456E+03  0.22010030156E+03  0.17269951565E+03 0.  0.
        -24    2    5    5    0    0  0.18457376816E+02 -0.86551494216E+02  0.93831210040E+02  0.15173436436E+03  0.79919868879E+02 0.  0.
          5    1    3    3  501    0 -0.54701267832E+02  0.12798973252E+02 -0.61440343582E+02  0.83384940116E+02  0.47000000000E+01 0. -1.
        -13    1    4    4    0    0  0.41387691286E+02 -0.12814953234E+02  0.33471872447E+02  0.54749705584E+02  0.00000000000E+00 0.  1.
         14    1    4    4    0    0 -0.24707509733E+02  0.30538073953E+02  0.17130598956E+02  0.42854316219E+02  0.00000000000E+00 0. -1.
         -5    1    5    5    0  502  0.19563709463E+02  0.56029400245E+02  0.33612184520E+02  0.68365937190E+02  0.47000000000E+01 0.  1.
         13    1    6    6    0    0  0.36927215073E+01 -0.75350566091E+02  0.23520898491E+02  0.79022633898E+02  0.00000000000E+00 0. -1.
        -14    1    6    6    0    0  0.14764655309E+02 -0.11200928125E+02  0.70310311550E+02  0.72711730467E+02  0.00000000000E+00 0.  1.
</event>
<event>
12    1  0.8493057E-002  0.2495581E+03  0.7818608E-02  0.1113588E+00
         21   -1    0    0  503  502  0.00000000000E+00  0.00000000000E+00  0.23188617836E+04  0.23188617836E+04  0.00000000000E+00 0.  1.
         21   -1    0    0  501  503 -0.00000000000E+00 -0.00000000000E+00 -0.10200654658E+03  0.10200654658E+03  0.00000000000E+00 0.  1.
          6    2    1    2  501    0 -0.77424456471E+02  0.16387739182E+03  0.69461633965E+02  0.25902223797E+03  0.17151459169E+03 0.  0.
         24    2    3    3    0    0 -0.13449162771E+02  0.15745327827E+03  0.18712341876E+02  0.17697537279E+03  0.77444922483E+02 0.  0.
         -6    2    1    2    0  502  0.77424456471E+02 -0.16387739182E+03  0.21473936030E+04  0.21618460922E+04  0.17154851770E+03 0.  0.
        -24    2    5    5    0    0  0.42851060299E+02 -0.16058968834E+03  0.11720567321E+04  0.11858797861E+04  0.70488456892E+02 0.  0.
          5    1    3    3  501    0 -0.63975293700E+02  0.64241135486E+01  0.50749292089E+02  0.82046865183E+02  0.47000000000E+01 0. -1.
        -11    1    4    4    0    0 -0.11564421916E+02  0.11583703947E+03 -0.22285025271E+02  0.11852669708E+03  0.00000000000E+00 0.  1.
         12    1    4    4    0    0 -0.18847408547E+01  0.41616238792E+02  0.40997367148E+02  0.58448675711E+02  0.00000000000E+00 0. -1.
         -5    1    5    5    0  502  0.34573396171E+02 -0.32877034761E+01  0.97533687096E+03  0.97596630607E+03  0.47000000000E+01 0.  1.
         13    1    6    6    0    0  0.68038717860E+00 -0.12500205135E+03  0.77802057883E+03  0.78799872896E+03  0.00000000000E+00 0. -1.
        -14    1    6    6    0    0  0.42170673121E+02 -0.35587636991E+02  0.39403615323E+03  0.39788105714E+03  0.00000000000E+00 0.  1.
</event>
<event>
12    1  0.8493057E-002  0.2000034E+03  0.7818608E-02  0.1150086E+00
         21   -1    0    0  501  502  0.00000000000E+00  0.00000000000E+00  0.11174363959E+04  0.11174363959E+04  0.00000000000E+00 0.  1.
         21   -1    0    0  502  503 -0.00000000000E+00 -0.00000000000E+00 -0.10214686351E+03  0.10214686351E+03  0.00000000000E+00 0.  1.
         -6    2    1    2    0  503 -0.76356174726E+02  0.65252289502E+02  0.15827138330E+02  0.20062860952E+03  0.17295436955E+03 0.  0.
        -24    2    3    3    0    0  0.22546190078E+02  0.37120464184E+02  0.33846957621E+02  0.96130373902E+02  0.78798303904E+02 0.  0.
          6    2    1    2  501    0  0.76356174726E+02 -0.65252289502E+02  0.99946239401E+03  0.10189546498E+04  0.17104202612E+03 0.  0.
         24    2    5    5    0    0  0.14518747898E+02 -0.43643627093E+02  0.23864330629E+03  0.25530644819E+03  0.78199709882E+02 0.  0.
          5    1    5    5  501    0  0.61837426828E+02 -0.21608662409E+02  0.76081908773E+03  0.76364820166E+03  0.47000000000E+01 0. -1.
        -13    1    6    6    0    0  0.39441391129E+02 -0.40553494242E+02  0.20867376182E+03  0.21620580034E+03  0.00000000000E+00 0.  1.
         14    1    6    6    0    0 -0.24922643231E+02 -0.30901328509E+01  0.29969544470E+02  0.39100647851E+02  0.00000000000E+00 0. -1.
         -5    1    3    3    0  503 -0.98902364804E+02  0.28131825318E+02 -0.18019819290E+02  0.10449823562E+03  0.47000000000E+01 0.  1.
         11    1    4    4    0    0  0.19503601808E+01  0.52750285479E+02 -0.93112351904E+00  0.52794540569E+02  0.00000000000E+00 0. -1.
        -12    1    4    4    0    0  0.20595829897E+02 -0.15629821295E+02  0.34778081140E+02  0.43335833333E+02  0.00000000000E+00 0.  1.
</event>
<event>
12    1  0.8493057E-002  0.1897451E+03  0.7818608E-02  0.1162491E+00
         21   -1    0    0  503  502  0.00000000000E+00  0.00000000000E+00  0.60111134019E+02  0.60111134019E+02  0.00000000000E+00 0. -1.
         21   -1    0    0  501  503 -0.00000000000E+00 -0.00000000000E+00 -0.78300926180E+03  0.78300926180E+03  0.00000000000E+00 0.  1.
          6    2    1    2  501    0 -0.71184501176E+02 -0.36439935294E+02 -0.60276326296E+03  0.63192307148E+03  0.17207008748E+03 0.  0.
         24    2    3    3    0    0 -0.11387601381E+03 -0.43667785238E+02 -0.44960472110E+03  0.47269230809E+03  0.80118605225E+02 0.  0.
         -6    2    1    2    0  502  0.71184501176E+02  0.36439935294E+02 -0.12013486482E+03  0.21119732433E+03  0.15419734748E+03 0.  0.
        -24    2    5    5    0    0  0.31698442604E+02 -0.26417134944E+02 -0.39157632143E+02  0.10124477861E+03  0.83752783583E+02 0.  0.
          5    1    3    3  501    0  0.42691512633E+02  0.72278499444E+01 -0.15315854186E+03  0.15923076339E+03  0.47000000000E+01 0. -1.
        -13    1    4    4    0    0 -0.28206843078E+02  0.11298725824E+02 -0.21252051198E+03  0.21468175334E+03  0.00000000000E+00 0.  1.
         14    1    4    4    0    0 -0.85669170731E+02 -0.54966511062E+02 -0.23708420912E+03  0.25801055476E+03  0.00000000000E+00 0. -1.
         -5    1    5    5    0  502  0.39486058572E+02  0.62857070237E+02 -0.80977232675E+02  0.10995254573E+03  0.47000000000E+01 0.  1.
         11    1    6    6    0    0 -0.25687604732E+02  0.36454847358E+01 -0.22528444362E+02  0.34360928410E+02  0.00000000000E+00 0. -1.
        -12    1    6    6    0    0  0.57386047336E+02 -0.30062619680E+02 -0.16629187780E+02  0.66883850196E+02  0.00000000000E+00 0.  1.
</event>
<event>
12    1  0.8493057E-002  0.2158435E+03  0.7818608E-02  0.1138133E+00
         21   -1    0    0  501  502  0.00000000000E+00  0.00000000000E+00  0.12873258058E+03  0.12873258058E+03  0.00000000000E+00 0.  1.
         21   -1    0    0  502  503 -0.00000000000E+00 -0.00000000000E+00 -0.40961128238E+03  0.40961128238E+03  0.00000000000E+00 0.  1.
         -6    2    1    2    0  503  0.10251151800E+03 -0.66358943908E+02 -0.23945029235E+03  0.31856050252E+03  0.17097435627E+03 0.  0.
        -24    2    3    3    0    0  0.30123967867E+01 -0.25696070672E+01 -0.15120594817E+03  0.17098574555E+03  0.79732107727E+02 0.  0.
          6    2    1    2  501    0 -0.10251151800E+03  0.66358943908E+02 -0.41428409447E+02  0.21978336043E+03  0.17797834603E+03 0.  0.
         24    2    5    5    0    0 -0.48203527850E+02  0.46579886400E+02  0.46831612266E+02  0.11417800857E+03  0.79687839845E+02 0.  0.
          5    1    5    5  501    0 -0.54307990147E+02  0.19779057508E+02 -0.88260021713E+02  0.10560535186E+03  0.47000000000E+01 0. -1.
        -11    1    6    6    0    0 -0.30373735098E+02  0.59534623682E+02  0.51559919082E+01  0.67033718778E+02  0.00000000000E+00 0.  1.
         12    1    6    6    0    0 -0.17829792752E+02 -0.12954737282E+02  0.41675620358E+02  0.47144289791E+02  0.00000000000E+00 0. -1.
         -5    1    3    3    0  503  0.99499121211E+02 -0.63789336841E+02 -0.88244344178E+02  0.14757475697E+03  0.47000000000E+01 0.  1.
         11    1    4    4    0    0  0.23471906818E+02  0.29948628912E+02 -0.50724621979E+02  0.63410078523E+02  0.00000000000E+00 0. -1.
        -12    1    4    4    0    0 -0.20459510031E+02 -0.32518235980E+02 -0.10048132620E+03  0.10757566703E+03  0.00000000000E+00 0.  1.
</event>
<event>
12    1  0.8493057E-002  0.2335994E+03  0.7818608E-02  0.1124159E+00
         21   -1    0    0  503  502  0.00000000000E+00  0.00000000000E+00  0.98619265840E+02  0.98619265840E+02  0.00000000000E+00 0. -1.
         21   -1    0    0  501  503 -0.00000000000E+00 -0.00000000000E+00 -0.68942923976E+03  0.68942923976E+03  0.00000000000E+00 0. -1.
          6    2    1    2  501    0  0.10197980763E+03 -0.12040072451E+03 -0.47063561855E+03  0.52534992834E+03  0.17204198947E+03 0.  0.
         24    2    3    3    0    0 -0.11390896577E+02 -0.61354295195E+02 -0.15674292702E+03  0.18639549309E+03  0.79251704137E+02 0.  0.
         -6    2    1    2    0  502 -0.10197980763E+03  0.12040072451E+03 -0.12017435537E+03  0.26269857725E+03  0.17225693361E+03 0.  0.
        -24    2    5    5    0    0 -0.11395318606E+03  0.31288782699E+02 -0.64366449099E+02  0.15676976924E+03  0.80432606836E+02 0.  0.
          5    1    3    3  501    0  0.11337070420E+03 -0.59046429315E+02 -0.31389269153E+03  0.33895443526E+03  0.47000000000E+01 0. -1.
        -11    1    4    4    0    0  0.34261167866E+01 -0.56771385866E+02 -0.42233861843E+02  0.70840861200E+02  0.00000000000E+00 0.  1.
         12    1    4    4    0    0 -0.14817013364E+02 -0.45829093297E+01 -0.11450906518E+03  0.11555463189E+03  0.00000000000E+00 0. -1.
         -5    1    5    5    0  502  0.11973378433E+02  0.89111941811E+02 -0.55807906273E+02  0.10592880801E+03  0.47000000000E+01 0.  1.
         11    1    6    6    0    0 -0.79749511990E+02 -0.10811356456E+02 -0.63509539928E+02  0.10251990906E+03  0.00000000000E+00 0. -1.
        -12    1    6    6    0    0 -0.34203674069E+02  0.42100139156E+02 -0.85690917102E+00  0.54249860185E+02  0.00000000000E+00 0.  1.
</event>
<event>
12    1  0.8493057E-002  0.2700363E+03  0.7818608E-02  0.1102465E+00
         21   -1    0    0  501  502  0.00000000000E+00  0.00000000000E+00  0.27739537482E+03  0.27739537482E+03  0.00000000000E+00 0.  1.
         21   -1    0    0  502  503 -0.00000000000E+00 -0.00000000000E+00 -0.27396626089E+03  0.27396626089E+03  0.00000000000E+00 0.  1.
         -6    2    1    2    0  503  0.12368866969E+03 -0.16833874939E+03  0.74531382117E+02  0.28013305833E+03  0.17112212566E+03 0.  0.
        -24    2    3    3    0    0  0.83106120280E+02 -0.10805396313E+03 -0.22905732150E+02  0.15848898733E+03  0.77535800537E+02 0.  0.
          6    2    1    2  501    0 -0.12368866969E+03  0.16833874939E+03 -0.71102268186E+02  0.27122857739E+03  0.15771045335E+03 0.  0.
         24    2    5    5    0    0 -0.46092121579E+02  0.11115480620E+03  0.11060861691E+02  0.14448435642E+03  0.79205504708E+02 0.  0.
          5    1    5    5  501    0 -0.77596548113E+02  0.57183943194E+02 -0.82163129877E+02  0.12674422097E+03  0.47000000000E+01 0. -1.
        -13    1    6    6    0    0  0.12825822480E+01  0.29126665001E+02  0.36198908098E+02  0.46479765262E+02  0.00000000000E+00 0.  1.
         14    1    6    6    0    0 -0.47374703827E+02  0.82028141195E+02 -0.25138046406E+02  0.98004591157E+02  0.00000000000E+00 0. -1.
         -5    1    3    3    0  503  0.40582549412E+02 -0.60284786262E+02  0.97437114267E+02  0.12164407099E+03  0.47000000000E+01 0.  1.
         13    1    4    4    0    0 -0.91714065244E+01  0.52125422103E+01 -0.34658678536E+01  0.11103942269E+02  0.00000000000E+00 0. -1.
        -14    1    4    4    0    0  0.92277526805E+02 -0.11326650534E+03 -0.19439864296E+02  0.14738504506E+03  0.00000000000E+00 0.  1.
</event>
<event>
12    1  0.8493057E-002  0.1991782E+03  0.7818608E-02  0.1150497E+00
         21   -1    0    0  503  502  0.00000000000E+00  0.00000000000E+00  0.12551810453E+03  0.12551810453E+03  0.00000000000E+00 0. -1.
         21   -1    0    0  501  503 -0.00000000000E+00 -0.00000000000E+00 -0.35009063785E+03  0.35009063785E+03  0.00000000000E+00 0. -1.
          6    2    1    2  501    0  0.95419920854E+02 -0.32615830377E+02 -0.18700802288E+03  0.27321048253E+03  0.17176499485E+03 0.  0.
         24    2    3    3    0    0 -0.14209990785E+02 -0.11661621778E+02 -0.48081814350E+02  0.94939963933E+02  0.79773545864E+02 0.  0.
         -6    2    1    2    0  502 -0.95419920854E+02  0.32615830377E+02 -0.37564510446E+02  0.20239825985E+03  0.17142114647E+03 0.  0.
        -24    2    5    5    0    0 -0.52287494975E+02 -0.69880008981E+01  0.40971052177E+02  0.10432280823E+03  0.80136177304E+02 0.  0.
          5    1    3    3  501    0  0.10962991164E+03 -0.20954208598E+02 -0.13892620853E+03  0.17827051860E+03  0.47000000000E+01 0. -1.
        -11    1    4    4    0    0  0.22497259033E+02 -0.19677229630E+02  0.45919344187E+01  0.30239145021E+02  0.00000000000E+00 0.  1.
         12    1    4    4    0    0 -0.36707249818E+02  0.80156078521E+01 -0.52673748769E+02  0.64700818912E+02  0.00000000000E+00 0. -1.
         -5    1    5    5    0  502 -0.43132425879E+02  0.39603831275E+02 -0.78535562622E+02  0.98075451619E+02  0.47000000000E+01 0.  1.
         13    1    6    6    0    0  0.74762571305E-01  0.28341826995E+02 -0.12092074559E+01  0.28367709275E+02  0.00000000000E+00 0. -1.
        -14    1    6    6    0    0 -0.52362257546E+02 -0.35329827893E+02  0.42180259633E+02  0.75955098953E+02  0.00000000000E+00 0.  1.
</event>
<event>
12    1  0.8493057E-002  0.2303530E+03  0.7818608E-02  0.1126446E+00
         21   -1    0    0  501  502  0.00000000000E+00  0.00000000000E+00  0.15173616525E+03  0.15173616525E+03  0.00000000000E+00 0. -1.
         21   -1    0    0  502  503 -0.00000000000E+00 -0.00000000000E+00 -0.87764715694E+03  0.87764715694E+03  0.00000000000E+00 0. -1.
         -6    2    1    2    0  503  0.14701670878E+03  0.37057106430E+02 -0.76222707177E+03  0.79618524931E+03  0.17301358468E+03 0.  0.
        -24    2    3    3    0    0  0.74456403321E+02  0.20901204251E+02 -0.66160833868E+03  0.67099646965E+03  0.80808738005E+02 0.  0.
          6    2    1    2  501    0 -0.14701670878E+03 -0.37057106430E+02  0.36316080079E+02  0.23319807288E+03  0.17342243720E+03 0.  0.
         24    2    5    5    0    0 -0.48408917567E+01  0.46330953515E+01  0.21722794875E+02  0.84244758569E+02  0.81119662990E+02 0.  0.
          5    1    5    5  501    0 -0.14217581703E+03 -0.41690201781E+02  0.14593285204E+02  0.14895331431E+03  0.47000000000E+01 0. -1.
        -13    1    6    6    0    0  0.13392835215E+02 -0.26636736370E+01 -0.27798468702E+02  0.30971245608E+02  0.00000000000E+00 0.  1.
         14    1    6    6    0    0 -0.18233726972E+02  0.72967689885E+01  0.49521263576E+02  0.53273512961E+02  0.00000000000E+00 0. -1.
         -5    1    3    3    0  503  0.72560305462E+02  0.16155902179E+02 -0.10061873308E+03  0.12518877965E+03  0.47000000000E+01 0.  1.
         11    1    4    4    0    0  0.50707316314E+02  0.50437517957E+02 -0.36173223764E+03  0.36873484632E+03  0.00000000000E+00 0. -1.
        -12    1    4    4    0    0  0.23749087006E+02 -0.29536313707E+02 -0.29987610105E+03  0.30226162333E+03  0.00000000000E+00 0.  1.
</event>
<event>
12    1  0.8493057E-002  0.3202900E+03  0.7818608E-02  0.1075863E+00
         21   -1    0    0  501  502  0.00000000000E+00  0.00000000000E+00  0.11143981103E+03  0.11143981103E+03  0.00000000000E+00 0.  1.
         21   -1    0    0  502  503 -0.00000000000E+00 -0.00000000000E+00 -0.94754643826E+03  0.94754643826E+03  0.00000000000E+00 0. -1.
         -6    2    1    2    0  503  0.26407438762E+03 -0.38241257891E+02 -0.51880491564E+03  0.60813586083E+03  0.17167704779E+03 0.  0.
        -24    2    3    3    0    0  0.25044074788E+03 -0.76059622356E+02 -0.47872567726E+03  0.55117499556E+03  0.78166279895E+02 0.  0.
          6    2    1    2  501    0 -0.26407438762E+03  0.38241257891E+02 -0.31730171159E+03  0.45085038846E+03  0.17716664639E+03 0.  0.
         24    2    5    5    0    0 -0.23365528256E+03  0.82964566683E+02 -0.28431550369E+03  0.38732341613E+03  0.87785036594E+02 0.  0.
          5    1    5    5  501    0 -0.30419105058E+02 -0.44723308793E+02 -0.32986207900E+02  0.63526972331E+02  0.47000000000E+01 0. -1.
        -13    1    6    6    0    0 -0.68194431369E+02  0.38145684928E+02 -0.37124872525E+02  0.86509131936E+02  0.00000000000E+00 0.  1.
         14    1    6    6    0    0 -0.16546085119E+03  0.44818881755E+02 -0.24719063116E+03  0.30081428419E+03  0.00000000000E+00 0. -1.
         -5    1    3    3    0  503  0.13633639741E+02  0.37818364466E+02 -0.40079238385E+02  0.56960865276E+02  0.47000000000E+01 0.  1.
         11    1    4    4    0    0  0.17415656763E+03 -0.40390025360E+02 -0.24926006966E+03  0.30674492094E+03  0.00000000000E+00 0. -1.
        -12    1    4    4    0    0  0.76284180245E+02 -0.35669596996E+02 -0.22946560760E+03  0.24443007462E+03  0.00000000000E+00 0.  1.
</event>
<event>
12    1  0.8493057E-002  0.2380465E+03  0.7818608E-02  0.1121618E+00
         21   -1    0    0  501  502  0.00000000000E+00  0.00000000000E+00  0.34279854511E+03  0.34279854511E+03  0.00000000000E+00 0. -1.
         21   -1    0    0  502  503 -0.00000000000E+00 -0.00000000000E+00 -0.16472266172E+03  0.16472266172E+03  0.00000000000E+00 0. -1.
         -6    2    1    2    0  503  0.14608127120E+03  0.73419457146E+02  0.11404929436E+03  0.26395717296E+03  0.17302021018E+03 0.  0.
        -24    2    3    3    0    0  0.80612993388E+02  0.11025002999E+03  0.10025169000E+03  0.18743887200E+03  0.80183574218E+02 0.  0.
          6    2    1    2  501    0 -0.14608127120E+03 -0.73419457146E+02  0.64026589032E+02  0.24356403387E+03  0.16880130334E+03 0.  0.
         24    2    5    5    0    0 -0.13446997136E+03 -0.53416678875E+02 -0.12290310774E+02  0.16368104057E+03  0.75530897813E+02 0.  0.
          5    1    5    5  501    0 -0.11611299842E+02 -0.20002778271E+02  0.76316899806E+02  0.79882993300E+02  0.47000000000E+01 0. -1.
        -11    1    6    6    0    0 -0.23852780334E+02  0.19052352552E+02 -0.70717937790E+01  0.31336201663E+02  0.00000000000E+00 0.  1.
         12    1    6    6    0    0 -0.11061719102E+03 -0.72469031427E+02 -0.52185169949E+01  0.13234483891E+03  0.00000000000E+00 0. -1.
         -5    1    3    3    0  503  0.65468277810E+02 -0.36830572843E+02  0.13797604364E+02  0.76518300958E+02  0.47000000000E+01 0.  1.
         11    1    4    4    0    0  0.60858910787E+02  0.49695447178E+02  0.13355436793E+02  0.79698257097E+02  0.00000000000E+00 0. -1.
        -12    1    4    4    0    0  0.19754082601E+02  0.60554582811E+02  0.86896253208E+02  0.10774061491E+03  0.00000000000E+00 0.  1.
</event>
<event>
12    1  0.8493057E-002  0.2292985E+03  0.7818608E-02  0.1127143E+00
         21   -1    0    0  501  502  0.00000000000E+00  0.00000000000E+00  0.30979011642E+03  0.30979011642E+03  0.00000000000E+00 0. -1.
         21   -1    0    0  502  503 -0.00000000000E+00 -0.00000000000E+00 -0.19173574619E+03  0.19173574619E+03  0.00000000000E+00 0. -1.
         -6    2    1    2    0  503  0.14633457908E+03 -0.40041864040E+02 -0.26019600590E+02  0.23072131657E+03  0.17186665295E+03 0.  0.
        -24    2    3    3    0    0  0.13197177094E+02  0.16275390192E+02 -0.27463118762E+02  0.86079086652E+02  0.78843721738E+02 0.  0.
          6    2    1    2  501    0 -0.14633457908E+03  0.40041864040E+02  0.14407397082E+03  0.27080454605E+03  0.17193205979E+03 0.  0.
         24    2    5    5    0    0 -0.79724526509E+02 -0.21065568777E+02  0.17058960691E+02  0.11483685630E+03  0.78081605449E+02 0.  0.
          5    1    5    5  501    0 -0.66610052567E+02  0.61107432817E+02  0.12701501012E+03  0.15596768975E+03  0.47000000000E+01 0. -1.
        -13    1    6    6    0    0 -0.82739613613E+02  0.90056719026E+01  0.14765939792E+02  0.84527976228E+02  0.00000000000E+00 0.  1.
         14    1    6    6    0    0  0.30150871034E+01 -0.30071240680E+02  0.22930208994E+01  0.30308880070E+02  0.00000000000E+00 0. -1.
         -5    1    3    3    0  503  0.13313740198E+03 -0.56317254232E+02  0.14435181727E+01  0.14464222992E+03  0.47000000000E+01 0.  1.
         13    1    4    4    0    0  0.35632849427E+01 -0.29680287610E+02 -0.25152856440E+02  0.39067667697E+02  0.00000000000E+00 0. -1.
        -14    1    4    4    0    0  0.96338921510E+01  0.45955677801E+02 -0.23102623222E+01  0.47011418955E+02  0.00000000000E+00 0.  1.
</event>
<event>
12    1  0.8493057E-002  0.3637356E+03  0.7818608E-02  0.1057195E+00
         21   -1    0    0  503  502  0.00000000000E+00  0.00000000000E+00  0.71608430454E+03  0.71608430454E+03  0.00000000000E+00 0. -1.
         21   -1    0    0  501  503 -0.00000000000E+00 -0.00000000000E+00 -0.32048856531E+03  0.32048856531E+03  0.00000000000E+00 0.  1.
          6    2    1    2  501    0 -0.23708243896E+03 -0.21402111771E+03 -0.14013404032E+03  0.38903139692E+03  0.17232166677E+03 0.  0.
         24    2    3    3    0    0 -0.11384872085E+03 -0.18759437865E+03 -0.71267949464E+02  0.24533188304E+03  0.83399221067E+02 0.  0.
         -6    2    1    2    0  502  0.23708243896E+03  0.21402111771E+03  0.53572977956E+03  0.64754147293E+03  0.17404149150E+03 0.  0.
        -24    2    5    5    0    0  0.48314882992E+02  0.11572475617E+03  0.18336592050E+03  0.23586472589E+03  0.79262607894E+02 0.  0.
          5    1    3    3  501    0 -0.12323371811E+03 -0.26426739059E+02 -0.68866090860E+02  0.14369951387E+03  0.47000000000E+01 0. -1.
        -13    1    4    4    0    0 -0.11287188666E+03 -0.13103668380E+03 -0.30524908353E+02  0.17562017347E+03  0.00000000000E+00 0.  1.
         14    1    4    4    0    0 -0.97683418637E+00 -0.56557694858E+02 -0.40743041111E+02  0.69711709573E+02  0.00000000000E+00 0. -1.
         -5    1    5    5    0  502  0.18876755597E+03  0.98296361544E+02  0.35236385906E+03  0.41167674704E+03  0.47000000000E+01 0.  1.
         11    1    6    6    0    0  0.56336580258E+02  0.12077567367E+03  0.18299292926E+03  0.22637797107E+03  0.00000000000E+00 0. -1.
        -12    1    6    6    0    0 -0.80216972659E+01 -0.50509175027E+01  0.37299124276E+00  0.94867548251E+01  0.00000000000E+00 0.  1.
</event>
<event>
12    1  0.8493057E-002  0.1800548E+03  0.7818608E-02  0.1168402E+00
         21   -1    0    0  501  502  0.00000000000E+00  0.00000000000E+00  0.40861301095E+03  0.40861301095E+03  0.00000000000E+00 0. -1.
         21   -1    0    0  502  503 -0.00000000000E+00 -0.00000000000E+00 -0.94088565390E+02  0.94088565390E+02  0.00000000000E+00 0. -1.
         -6    2    1    2    0  503  0.27034633794E+02 -0.32229733931E+02  0.54845644251E+02  0.18822271387E+03  0.17507175143E+03 0.  0.
        -24    2    3    3    0    0  0.53731772311E+01  0.51788418069E+02  0.38212966720E+02  0.99752354268E+02  0.76022299866E+02 0.  0.
          6    2    1    2  501    0 -0.27034633794E+02  0.32229733931E+02  0.25967880131E+03  0.31447886247E+03  0.17232019011E+03 0.  0.
         24    2    5    5    0    0  0.53705571063E+02  0.17343727188E+02  0.12058627992E+03  0.15289484908E+03  0.75171076451E+02 0.  0.
          5    1    5    5  501    0 -0.80740204857E+02  0.14886006743E+02  0.13909252139E+03  0.16158401339E+03  0.47000000000E+01 0. -1.
        -13    1    6    6    0    0  0.12765257961E+02  0.60357260574E+01 -0.88524471420E+01  0.16665761917E+02  0.00000000000E+00 0.  1.
         14    1    6    6    0    0  0.40940313102E+02  0.11308001131E+02  0.12943872706E+03  0.13622908716E+03  0.00000000000E+00 0. -1.
         -5    1    3    3    0  503  0.21661456563E+02 -0.84018152000E+02  0.16632677531E+02  0.88470359600E+02  0.47000000000E+01 0.  1.
         11    1    4    4    0    0  0.23425736130E+02  0.15117495503E+02 -0.15777699799E+02  0.32034974550E+02  0.00000000000E+00 0. -1.
        -12    1    4    4    0    0 -0.18052558899E+02  0.36670922566E+02  0.53990666519E+02  0.67717379718E+02  0.00000000000E+00 0.  1.
</event>
<event>
12    1  0.8493057E-002  0.1765744E+03  0.7818608E-02  0.1171188E+00
         21   -1    0    0  503  502  0.00000000000E+00  0.00000000000E+00  0.20641753850E+03  0.20641753850E+03  0.00000000000E+00 0. -1.
         21   -1    0    0  501  503 -0.00000000000E+00 -0.00000000000E+00 -0.32016796101E+03  0.32016796101E+03  0.00000000000E+00 0. -1.
          6    2    1    2  501    0  0.34062200056E+01 -0.41241347875E+02 -0.24829773113E+03  0.30468064188E+03  0.17165686454E+03 0.  0.
         24    2    3    3    0    0  0.29381087226E+02 -0.25784035248E+02 -0.25765276315E+03  0.27269269313E+03  0.80301268772E+02 0.  0.
         -6    2    1    2    0  502 -0.34062200056E+01  0.41241347875E+02  0.13454730862E+03  0.22190485764E+03  0.17154106353E+03 0.  0.
        -24    2    5    5    0    0 -0.60038693429E+02 -0.80907612476E+00  0.45016765343E+02  0.10782907851E+03  0.77429333576E+02 0.  0.
          5    1    3    3  501    0 -0.25974867221E+02 -0.15457312627E+02  0.93550320262E+01  0.31987948746E+02  0.47000000000E+01 0. -1.
        -11    1    4    4    0    0  0.36509534760E+02  0.99513389124E+01 -0.54817915741E+02  0.66610653508E+02  0.00000000000E+00 0.  1.
         12    1    4    4    0    0 -0.71284475339E+01 -0.35735374160E+02 -0.20283484741E+03  0.20608203962E+03  0.00000000000E+00 0. -1.
         -5    1    5    5    0  502  0.56632473423E+02  0.42050424000E+02  0.89530543274E+02  0.11407577913E+03  0.47000000000E+01 0.  1.
         11    1    6    6    0    0 -0.65101839581E+02  0.26131010964E+02  0.27794153770E+02  0.75455909209E+02  0.00000000000E+00 0. -1.
        -12    1    6    6    0    0  0.50631461523E+01 -0.26940087089E+02  0.17222611574E+02  0.32373169303E+02  0.00000000000E+00 0.  1.
</event>
<event>
12    1  0.8493057E-002  0.1997487E+03  0.7818608E-02  0.1150010E+00
         21   -1    0    0  501  502  0.00000000000E+00  0.00000000000E+00  0.15779478882E+04  0.15779478882E+04  0.00000000000E+00 0.  1.
         21   -1    0    0  502  503 -0.00000000000E+00 -0.00000000000E+00 -0.48768342866E+02  0.48768342866E+02  0.00000000000E+00 0.  1.
         -6    2    1    2    0  503 -0.92478737928E+02 -0.39548242512E+02  0.20004290064E+03  0.28269544647E+03  0.17257801976E+03 0.  0.
        -24    2    3    3    0    0 -0.12089078751E+03 -0.24173647189E+02  0.20327328092E+03  0.24989075017E+03  0.76983196636E+02 0.  0.
          6    2    1    2  501    0  0.92478737928E+02  0.39548242512E+02  0.13291366446E+04  0.13440207846E+04  0.17225350128E+03 0.  0.
         24    2    5    5    0    0  0.59044969072E+02 -0.81445584933E+01  0.35988322427E+03  0.37300754928E+03  0.77884879786E+02 0.  0.
          5    1    5    5  501    0  0.33433768857E+02  0.47692801005E+02  0.96925342037E+03  0.97101323527E+03  0.47000000000E+01 0. -1.
        -13    1    6    6    0    0  0.38391921592E+02  0.33631418599E+01  0.33982283313E+03  0.34200118170E+03  0.00000000000E+00 0.  1.
         14    1    6    6    0    0  0.20653047479E+02 -0.11507700353E+02  0.20060391141E+02  0.31006367578E+02  0.00000000000E+00 0. -1.
         -5    1    3    3    0  503  0.28412049578E+02 -0.15374595323E+02 -0.32303802735E+01  0.32804696299E+02  0.47000000000E+01 0.  1.
         13    1    4    4    0    0 -0.86345603547E+02 -0.46307807990E+01  0.18877310700E+03  0.20763500021E+03  0.00000000000E+00 0. -1.
        -14    1    4    4    0    0 -0.34545183959E+02 -0.19542866389E+02  0.14500173910E+02  0.42255749963E+02  0.00000000000E+00 0.  1.
</event>
<event>
12    1  0.8493057E-002  0.2216685E+03  0.7818608E-02  0.1133584E+00
         21   -1    0    0  501  502  0.00000000000E+00  0.00000000000E+00  0.22303080301E+03  0.22303080301E+03  0.00000000000E+00 0.  1.
         21   -1    0    0  502  503 -0.00000000000E+00 -0.00000000000E+00 -0.23447624911E+03  0.23447624911E+03  0.00000000000E+00 0. -1.
         -6    2    1    2    0  503  0.10569266051E+03  0.83128903288E+02 -0.71110199483E+02  0.23279517968E+03  0.17622594066E+03 0.  0.
        -24    2    3    3    0    0  0.50598212643E+02  0.20782274461E+02 -0.10407356379E+03  0.14317836374E+03  0.81710801660E+02 0.  0.
          6    2    1    2  501    0 -0.10569266051E+03 -0.83128903288E+02  0.59664753383E+02  0.22471187245E+03  0.16986521061E+03 0.  0.
         24    2    5    5    0    0 -0.77300612902E+02 -0.38940354432E+02 -0.28637596568E+02  0.12186183004E+03  0.80860730420E+02 0.  0.
          5    1    5    5  501    0 -0.28392047610E+02 -0.44188548856E+02  0.88302349951E+02  0.10285004241E+03  0.47000000000E+01 0. -1.
        -13    1    6    6    0    0 -0.69084649048E+02 -0.57000075692E+02 -0.32259742863E+01  0.89622007749E+02  0.00000000000E+00 0.  1.
         14    1    6    6    0    0 -0.82159638543E+01  0.18059721260E+02 -0.25411622282E+02  0.32239822286E+02  0.00000000000E+00 0. -1.
         -5    1    3    3    0  503  0.55094447869E+02  0.62346628828E+02  0.32963364309E+02  0.89616815937E+02  0.47000000000E+01 0.  1.
         13    1    4    4    0    0  0.63236716565E+02  0.39810921941E+02 -0.71726066328E+02  0.10357808851E+03  0.00000000000E+00 0. -1.
        -14    1    4    4    0    0 -0.12638503922E+02 -0.19028647480E+02 -0.32347497464E+02  0.39600275232E+02  0.00000000000E+00 0.  1.
</event>
<event>
12    1  0.8493057E-002  0.1805397E+03  0.7818608E-02  0.1167475E+00
         21   -1    0    0  503  502  0.00000000000E+00  0.00000000000E+00  0.14973205417E+02  0.14973205417E+02  0.00000000000E+00 0. -1.
         21   -1    0    0  501  503 -0.00000000000E+00 -0.00000000000E+00 -0.21919785957E+04  0.21919785957E+04  0.00000000000E+00 0.  1.
          6    2    1    2  501    0  0.48051601659E+02 -0.17306530407E+02 -0.96884221769E+03  0.98537378976E+03  0.17233046848E+03 0.  0.
         24    2    3    3    0    0  0.50941817626E+02  0.50164368491E+02 -0.47968268712E+03  0.49155215000E+03  0.80103078636E+02 0.  0.
         -6    2    1    2    0  502 -0.48051601659E+02  0.17306530407E+02 -0.12081631726E+04  0.12215780114E+04  0.17316499006E+03 0.  0.
        -24    2    5    5    0    0 -0.28529566568E+02  0.24468273760E+02 -0.11908824077E+04  0.11941350658E+04  0.79655596111E+02 0.  0.
          5    1    3    3  501    0 -0.28902159662E+01 -0.67470898898E+02 -0.48915953057E+03  0.49382163976E+03  0.47000000000E+01 0. -1.
        -11    1    4    4    0    0  0.12411949330E+01 -0.19750860997E+02 -0.13023532048E+03  0.13173031456E+03  0.00000000000E+00 0.  1.
         12    1    4    4    0    0  0.49700622693E+02  0.69915229489E+02 -0.34944736664E+03  0.35982183544E+03  0.00000000000E+00 0. -1.
         -5    1    5    5    0  502 -0.19522035092E+02 -0.71617433527E+01 -0.17280764940E+02  0.27442945522E+02  0.47000000000E+01 0.  1.
         11    1    6    6    0    0 -0.29908128661E+02  0.45214741162E+01 -0.14791954928E+03  0.15098057143E+03  0.00000000000E+00 0. -1.
        -12    1    6    6    0    0  0.13785620930E+01  0.19946799644E+02 -0.10429628584E+04  0.10431544944E+04  0.00000000000E+00 0.  1.
</event>
<event>
12    1  0.8493057E-002  0.2017316E+03  0.7818608E-02  0.1148345E+00
         21   -1    0    0  501  502  0.00000000000E+00  0.00000000000E+00  0.12563260398E+03  0.12563260398E+03  0.00000000000E+00 0.  1.
         21   -1    0    0  502  503 -0.00000000000E+00 -0.00000000000E+00 -0.12643063307E+04  0.12643063307E+04  0.00000000000E+00 0. -1.
         -6    2    1    2    0  503  0.10433296515E+03 -0.18303206987E+02 -0.11687443286E+04  0.11859784054E+04  0.17135080247E+03 0.  0.
        -24    2    3    3    0    0  0.11263161928E+02 -0.60212508240E+01 -0.84486161477E+03  0.84873229791E+03  0.79951554872E+02 0.  0.
          6    2    1    2  501    0 -0.10433296515E+03  0.18303206987E+02  0.30070601864E+02  0.20396052926E+03  0.17168366665E+03 0.  0.
         24    2    5    5    0    0  0.42088475043E+01  0.15917645891E+02 -0.19970594297E+02  0.84322628451E+02  0.80252072772E+02 0.  0.
          5    1    5    5  501    0 -0.10854181266E+03  0.23855610961E+01  0.50041196161E+02  0.11963790081E+03  0.47000000000E+01 0. -1.
        -11    1    6    6    0    0 -0.23723079523E+02 -0.21148682700E+02 -0.20657996198E+02  0.37905198706E+02  0.00000000000E+00 0.  1.
         12    1    6    6    0    0  0.27931927028E+02  0.37066328591E+02  0.68740190092E+00  0.46417429745E+02  0.00000000000E+00 0. -1.
         -5    1    3    3    0  503  0.93069803226E+02 -0.12281956163E+02 -0.32388271385E+03  0.33724610754E+03  0.47000000000E+01 0.  1.
         11    1    4    4    0    0  0.91214475277E+01  0.33137562567E+02 -0.57611591357E+03  0.57714022969E+03  0.00000000000E+00 0. -1.
        -12    1    4    4    0    0  0.21417144007E+01 -0.39158813392E+02 -0.26874570120E+03  0.27159206822E+03  0.00000000000E+00 0.  1.
</event>
<event>
12    1  0.8493057E-002  0.2920940E+03  0.7818608E-02  0.1090381E+00
         21   -1    0    0  503  502  0.00000000000E+00  0.00000000000E+00  0.10580243296E+04  0.10580243296E+04  0.00000000000E+00 0.  1.
         21   -1    0    0  501  503 -0.00000000000E+00 -0.00000000000E+00 -0.78746703837E+02  0.78746703837E+02  0.00000000000E+00 0. -1.
          6    2    1    2  501    0 -0.85766644429E+02  0.21812266792E+03  0.43975935339E+03  0.52325748845E+03  0.15961420603E+03 0.  0.
         24    2    3    3    0    0  0.13078131948E+02  0.11630868619E+03  0.21304003456E+03  0.25575026196E+03  0.79519759486E+02 0.  0.
         -6    2    1    2    0  502  0.85766644429E+02 -0.21812266792E+03  0.53951827240E+03  0.61351354502E+03  0.17431433706E+03 0.  0.
        -24    2    5    5    0    0  0.26952678220E+02 -0.26152875169E+02  0.13283368206E+03  0.15994334100E+03  0.80787780617E+02 0.  0.
          5    1    3    3  501    0 -0.98844776377E+02  0.10181398174E+03  0.22671931883E+03  0.26750722649E+03  0.47000000000E+01 0. -1.
        -11    1    4    4    0    0 -0.94491721649E+00  0.11521034648E+03  0.21244007530E+03  0.24167147618E+03  0.00000000000E+00 0.  1.
         12    1    4    4    0    0  0.14023049164E+02  0.10983397058E+01  0.59995926217E+00  0.14078785782E+02  0.00000000000E+00 0. -1.
         -5    1    5    5    0  502  0.58813966209E+02 -0.19196979275E+03  0.40668459034E+03  0.45357020402E+03  0.47000000000E+01 0.  1.
         11    1    6    6    0    0  0.34877950196E+02 -0.43655861466E+02  0.50233474267E+02  0.75137923761E+02  0.00000000000E+00 0. -1.
        -12    1    6    6    0    0 -0.79252719759E+01  0.17502986297E+02  0.82600207794E+02  0.84805417237E+02  0.00000000000E+00 0.  1.
</event>
<event>
12    1  0.8493057E-002  0.1798352E+03  0.7818608E-02  0.1169226E+00
         21   -1    0    0  501  502  0.00000000000E+00  0.00000000000E+00  0.61634270935E+02  0.61634270935E+02  0.00000000000E+00 0. -1.
         21   -1    0    0  502  503 -0.00000000000E+00 -0.00000000000E+00 -0.87579783083E+03  0.87579783083E+03  0.00000000000E+00 0. -1.
         -6    2    1    2    0  503  0.27805381665E+02  0.49986174122E+02 -0.70661637582E+03  0.72789193662E+03  0.16507032430E+03 0.  0.
        -24    2    3    3    0    0  0.75798516268E+02  0.91744456098E+01 -0.42625752484E+03  0.44050350004E+03  0.80735807106E+02 0.  0.
          6    2    1    2  501    0 -0.27805381665E+02 -0.49986174122E+02 -0.10754718407E+03  0.20954016514E+03  0.17049612064E+03 0.  0.
         24    2    5    5    0    0  0.34817021267E+02 -0.42218829456E+02 -0.13939903994E+02  0.96552068975E+02  0.78315557646E+02 0.  0.
          5    1    5    5  501    0 -0.62622402932E+02 -0.77673446657E+01 -0.93607280079E+02  0.11298809617E+03  0.47000000000E+01 0. -1.
        -11    1    6    6    0    0  0.29471702322E+02  0.12248508539E+02  0.14292979322E+02  0.34969936475E+02  0.00000000000E+00 0.  1.
         12    1    6    6    0    0  0.53453189449E+01 -0.54467337995E+02 -0.28232883316E+02  0.61582132500E+02  0.00000000000E+00 0. -1.
         -5    1    3    3    0  503 -0.47993134603E+02  0.40811728512E+02 -0.28035885099E+03  0.28738843658E+03  0.47000000000E+01 0.  1.
         11    1    4    4    0    0  0.44722084662E+02  0.28255268799E+02 -0.36793740180E+03  0.37172080479E+03  0.00000000000E+00 0. -1.
        -12    1    4    4    0    0  0.31076431606E+02 -0.19080823189E+02 -0.58320123035E+02  0.68782695249E+02  0.00000000000E+00 0.  1.
</event>
<event>
12    1  0.8493057E-002  0.1740605E+03  0.7818608E-02  0.1173916E+00
         21   -1    0    0  501  502  0.00000000000E+00  0.00000000000E+00  0.67938161981E+03  0.67938161981E+03  0.00000000000E+00 0. -1.
         21   -1    0    0  502  503 -0.00000000000E+00 -0.00000000000E+00 -0.44426988008E+02  0.44426988008E+02  0.00000000000E+00 0. -1.
         -6    2    1    2    0  503  0.77649755021E+01  0.20135603554E+02  0.30373957989E+03  0.35007824328E+03  0.17271741851E+03 0.  0.
        -24    2    3    3    0    0 -0.17689576204E+02  0.20528976497E+02  0.61704701611E+02  0.10666283447E+03  0.82674845475E+02 0.  0.
          6    2    1    2  501    0 -0.77649755021E+01 -0.20135603554E+02  0.33121505191E+03  0.37373036453E+03  0.17177088631E+03 0.  0.
         24    2    5    5    0    0 -0.51123659357E+02 -0.43926277538E+02  0.29266480747E+03  0.31084806988E+03  0.80191561963E+02 0.  0.
          5    1    5    5  501    0  0.43358683855E+02  0.23790673984E+02  0.38550244437E+02  0.62882294650E+02  0.47000000000E+01 0. -1.
        -13    1    6    6    0    0  0.21361330719E+02 -0.40636796513E+01  0.52012299010E+02  0.56374632510E+02  0.00000000000E+00 0.  1.
         14    1    6    6    0    0 -0.72484990077E+02 -0.39862597886E+02  0.24065250846E+03  0.25447343737E+03  0.00000000000E+00 0. -1.
         -5    1    3    3    0  503  0.25454551706E+02 -0.39337294348E+00  0.24203487828E+03  0.24341540881E+03  0.47000000000E+01 0.  1.
         13    1    4    4    0    0  0.32946829577E+02  0.41099019164E+01  0.29720647101E+02  0.44561213370E+02  0.00000000000E+00 0. -1.
        -14    1    4    4    0    0 -0.50636405781E+02  0.16419074581E+02  0.31984054510E+02  0.62101621101E+02  0.00000000000E+00 0.  1.
</event>
<event>
12    1  0.8493057E-002  0.2245929E+03  0.7818608E-02  0.1130625E+00
         21   -1    0    0  501  502  0.00000000000E+00  0.00000000000E+00  0.79913064098E+03  0.79913064098E+03  0.00000000000E+00 0. -1.
         21   -1    0    0  502  503 -0.00000000000E+00 -0.00000000000E+00 -0.22330957511E+03  0.22330957511E+03  0.00000000000E+00 0. -1.
         -6    2    1    2    0  503  0.74752755070E+02  0.12207056849E+03 -0.14520363157E+03  0.26744361228E+03  0.17306875237E+03 0.  0.
        -24    2    3    3    0    0  0.99064281961E+02  0.96967558329E+02 -0.16435083655E+03  0.22731984229E+03  0.73801584638E+02 0.  0.
          6    2    1    2  501    0 -0.74752755070E+02 -0.12207056849E+03  0.72102469744E+03  0.75499660382E+03  0.17220354054E+03 0.  0.
         24    2    5    5    0    0 -0.45437083245E+02 -0.17209443983E+02  0.18345307320E+03  0.20648898743E+03  0.81375539121E+02 0.  0.
          5    1    5    5  501    0 -0.29315671825E+02 -0.10486112451E+03  0.53757162424E+03  0.54850761639E+03  0.47000000000E+01 0. -1.
        -13    1    6    6    0    0  0.45354364410E+01  0.20324861003E+02  0.10045690584E+03  0.10259269023E+03  0.00000000000E+00 0.  1.
         14    1    6    6    0    0 -0.49972519686E+02 -0.37534304987E+02  0.82996167362E+02  0.10389629720E+03  0.00000000000E+00 0. -1.
         -5    1    3    3    0  503 -0.24311526890E+02  0.25103010165E+02  0.19147204988E+02  0.40123769986E+02  0.47000000000E+01 0.  1.
         11    1    4    4    0    0  0.76276697892E+02  0.41541785415E+02 -0.55530898809E+02  0.10308993791E+03  0.00000000000E+00 0. -1.
        -12    1    4    4    0    0  0.22787584069E+02  0.55425772915E+02 -0.10881993774E+03  0.12422990438E+03  0.00000000000E+00 0.  1.
</event>
<event>
12    1  0.8493057E-002  0.2007414E+03  0.7818608E-02  0.1149326E+00
         21   -1    0    0  501  502  0.00000000000E+00  0.00000000000E+00  0.55360409037E+02  0.55360409037E+02  0.00000000000E+00 0. -1.
         21   -1    0    0  502  503 -0.00000000000E+00 -0.00000000000E+00 -0.87032084392E+03  0.87032084392E+03  0.00000000000E+00 0. -1.
         -6    2    1    2    0  503 -0.43369307790E+01  0.10341720308E+03 -0.21872670809E+03  0.29688129044E+03  0.17199767707E+03 0.  0.
        -24    2    3    3    0    0  0.97336156293E+01  0.72008702366E+02 -0.38153022714E+02  0.11299703324E+03  0.77670328246E+02 0.  0.
          6    2    1    2  501    0  0.43369307790E+01 -0.10341720308E+03 -0.59623372679E+03  0.62879996252E+03  0.17082391237E+03 0.  0.
         24    2    5    5    0    0  0.17618622793E+02 -0.25518891659E+02 -0.12418199371E+03  0.15015658905E+03  0.78512444691E+02 0.  0.
          5    1    5    5  501    0 -0.13281692014E+02 -0.77898311426E+02 -0.47205173308E+03  0.47864337347E+03  0.47000000000E+01 0. -1.
        -13    1    6    6    0    0  0.97931695477E+01 -0.53532382302E+02 -0.70050115855E+02  0.88705359793E+02  0.00000000000E+00 0.  1.
         14    1    6    6    0    0  0.78254532455E+01  0.28013490643E+02 -0.54131877855E+02  0.61451229252E+02  0.00000000000E+00 0. -1.
         -5    1    3    3    0  503 -0.14070546408E+02  0.31408500719E+02 -0.18057368538E+03  0.18388425719E+03  0.47000000000E+01 0.  1.
         13    1    4    4    0    0  0.26477162069E+01  0.80024583450E+02 -0.52019573731E+02  0.95482880186E+02  0.00000000000E+00 0. -1.
        -14    1    4    4    0    0  0.70858994224E+01 -0.80158810841E+01  0.13866551017E+02  0.17514153057E+02  0.00000000000E+00 0.  1.
</event>
<event>
12    1  0.8493057E-002  0.2899903E+03  0.7818608E-02  0.1090642E+00
         21   -1    0    0  503  502  0.00000000000E+00  0.00000000000E+00  0.53697621759E+02  0.53697621759E+02  0.00000000000E+00 0.  1.
         21   -1    0    0  501  503 -0.00000000000E+00 -0.00000000000E+00 -0.19111754774E+04  0.19111754774E+04  0.00000000000E+00 0. -1.
          6    2    1    2  501    0 -0.16755285819E+03 -0.16147595619E+03 -0.13561767002E+04  0.13868343964E+04  0.17304899993E+03 0.  0.
         24    2    3    3    0    0 -0.67531603445E+02 -0.73057656720E+01 -0.54744865903E+03  0.55747570832E+03  0.80406712529E+02 0.  0.
         -6    2    1    2    0  502  0.16755285819E+03  0.16147595619E+03 -0.50130115552E+03  0.57803870276E+03  0.16934417216E+03 0.  0.
        -24    2    5    5    0    0  0.10035937190E+03  0.71852810101E+02 -0.15839330450E+03  0.21726847504E+03  0.82959758248E+02 0.  0.
          5    1    3    3  501    0 -0.10002125475E+03 -0.15417019052E+03 -0.80872804113E+03  0.82935868812E+03  0.47000000000E+01 0. -1.
        -11    1    4    4    0    0 -0.62721359223E+02  0.25509435205E+02 -0.28464541767E+03  0.29258795940E+03  0.00000000000E+00 0.  1.
         12    1    4    4    0    0 -0.48102442222E+01 -0.32815200877E+02 -0.26280324136E+03  0.26488774892E+03  0.00000000000E+00 0. -1.
         -5    1    5    5    0  502  0.67193486290E+02  0.89623146093E+02 -0.34290785102E+03  0.36077022772E+03  0.47000000000E+01 0.  1.
         13    1    6    6    0    0 -0.11883930161E+02  0.46788012336E-01 -0.29835003787E+02  0.32114754182E+02  0.00000000000E+00 0. -1.
        -14    1    6    6    0    0  0.11224330206E+03  0.71806022088E+02 -0.12855830071E+03  0.18515372086E+03  0.00000000000E+00 0.  1.
</event>
<event>
12    1  0.8493057E-002  0.2445665E+03  0.7818608E-02  0.1117183E+00
         21   -1    0    0  501  502  0.00000000000E+00  0.00000000000E+00  0.13932602737E+03  0.13932602737E+03  0.00000000000E+00 0.  1.
         21   -1    0    0  502  503 -0.00000000000E+00 -0.00000000000E+00 -0.84466450648E+03  0.84466450648E+03  0.00000000000E+00 0.  1.
         -6    2    1    2    0  503  0.16470691442E+03  0.55409296096E+02 -0.70031294392E+03  0.74178906040E+03  0.17208786405E+03 0.  0.
        -24    2    3    3    0    0  0.10350141303E+03 -0.32798413508E+02 -0.33642555755E+03  0.36236471564E+03  0.79610005297E+02 0.  0.
          6    2    1    2  501    0 -0.16470691442E+03 -0.55409296096E+02 -0.50255351817E+01  0.24220147345E+03  0.16863493109E+03 0.  0.
         24    2    5    5    0    0 -0.14328848643E+03 -0.70479338485E+02 -0.53748659752E+02  0.18668671772E+03  0.80399531420E+02 0.  0.
          5    1    5    5  501    0 -0.21418427992E+02  0.15070042388E+02  0.48723124570E+02  0.55514755724E+02  0.47000000000E+01 0. -1.
        -11    1    6    6    0    0 -0.15011144341E+03 -0.51698559926E+02 -0.46555803957E+02  0.16544977916E+03  0.00000000000E+00 0.  1.
         12    1    6    6    0    0  0.68229569795E+01 -0.18780778558E+02 -0.71928557944E+01  0.21236938566E+02  0.00000000000E+00 0. -1.
         -5    1    3    3    0  503  0.61205501397E+02  0.88207709604E+02 -0.36388738637E+03  0.37942434476E+03  0.47000000000E+01 0.  1.
         11    1    4    4    0    0  0.47059588184E+02 -0.55344214844E+02 -0.20702832048E+03  0.21940444945E+03  0.00000000000E+00 0. -1.
        -12    1    4    4    0    0  0.56441824842E+02  0.22545801336E+02 -0.12939723707E+03  0.14296026620E+03  0.00000000000E+00 0.  1.
</event>
<event>
12    1  0.8493057E-002  0.2324550E+03  0.7818608E-02  0.1125489E+00
         21   -1    0    0  501  502  0.00000000000E+00  0.00000000000E+00  0.33552336247E+03  0.33552336247E+03  0.00000000000E+00 0.  1.
         21   -1    0    0  502  503 -0.00000000000E+00 -0.00000000000E+00 -0.16209611434E+03  0.16209611434E+03  0.00000000000E+00 0. -1.
         -6    2    1    2    0  503  0.10591638316E+03  0.11343296547E+03  0.51910485002E+02  0.23818065020E+03  0.17306069976E+03 0.  0.
        -24    2    3    3    0    0  0.10656619944E+03  0.38540377952E+02  0.77703725215E+02  0.15882888169E+03  0.79668244301E+02 0.  0.
          6    2    1    2  501    0 -0.10591638316E+03 -0.11343296547E+03  0.12151676313E+03  0.25943882660E+03  0.16869162146E+03 0.  0.
         24    2    5    5    0    0 -0.73556763967E+02 -0.64141235930E+02  0.19516999233E+01  0.12604199795E+03  0.79737572345E+02 0.  0.
          5    1    5    5  501    0 -0.32359619196E+02 -0.49291729539E+02  0.11956506320E+03  0.13339682865E+03  0.47000000000E+01 0. -1.
        -11    1    6    6    0    0 -0.52072011845E+02 -0.75290763250E+02  0.22525790918E+02  0.94274093498E+02  0.00000000000E+00 0.  1.
         12    1    6    6    0    0 -0.21484752122E+02  0.11149527320E+02 -0.20574090995E+02  0.31767904455E+02  0.00000000000E+00 0. -1.
         -5    1    3    3    0  503 -0.64981627472E+00  0.74892587516E+02 -0.25793240213E+02  0.79351768516E+02  0.47000000000E+01 0.  1.
         13    1    4    4    0    0  0.88591524209E+02  0.51014197134E+02  0.30309287303E+02  0.10662813591E+03  0.00000000000E+00 0. -1.
        -14    1    4    4    0    0  0.17974675228E+02 -0.12473819181E+02  0.47394437912E+02  0.52200745776E+02  0.00000000000E+00 0.  1.
</event>
<event>
12    1  0.8493057E-002  0.2294340E+03  0.7818608E-02  0.1127409E+00
         21   -1    0    0  503  502  0.00000000000E+00  0.00000000000E+00  0.34340167270E+03  0.34340167270E+03  0.00000000000E+00 0.  1.
         21   -1    0    0  501  503 -0.00000000000E+00 -0.00000000000E+00 -0.16201142698E+03  0.16201142698E+03  0.00000000000E+00 0.  1.
          6    2    1    2  501    0  0.27571069093E+02  0.14856548424E+03  0.27165362241E+02  0.22896190280E+03  0.16986385452E+03 0.  0.
         24    2    3    3    0    0  0.50738264009E+02  0.11085793520E+03  0.77819047666E+02  0.16153443049E+03  0.71928539699E+02 0.  0.
         -6    2    1    2    0  502 -0.27571069093E+02 -0.14856548424E+03  0.15422488347E+03  0.27645119688E+03  0.17265017409E+03 0.  0.
        -24    2    5    5    0    0 -0.39042850462E+02 -0.16062507002E+03  0.17205509195E+03  0.25161087257E+03  0.79876900522E+02 0.  0.
          5    1    3    3  501    0 -0.23167194916E+02  0.37707549037E+02 -0.50653685425E+02  0.67427472308E+02  0.47000000000E+01 0. -1.
        -13    1    4    4    0    0  0.54540811189E+02  0.35477982562E+02  0.26445134596E+02  0.70233414239E+02  0.00000000000E+00 0.  1.
         14    1    4    4    0    0 -0.38025471793E+01  0.75379952641E+02  0.51373913070E+02  0.91301016256E+02  0.00000000000E+00 0. -1.
         -5    1    5    5    0  502  0.11471781369E+02  0.12059585782E+02 -0.17830208482E+02  0.24840324304E+02  0.47000000000E+01 0.  1.
         11    1    6    6    0    0  0.23005963565E+02 -0.23010374291E+02  0.33650794743E+02  0.46809482708E+02  0.00000000000E+00 0. -1.
        -12    1    6    6    0    0 -0.62048814027E+02 -0.13761469573E+03  0.13840429721E+03  0.20480138986E+03  0.00000000000E+00 0.  1.
</event>
<event>
12    1  0.8493057E-002  0.2185220E+03  0.7818608E-02  0.1135159E+00
         21   -1    0    0  503  502  0.00000000000E+00  0.00000000000E+00  0.28785476976E+03  0.28785476976E+03  0.00000000000E+00 0. -1.
         21   -1    0    0  501  503 -0.00000000000E+00 -0.00000000000E+00 -0.32492069031E+03  0.32492069031E+03  0.00000000000E+00 0. -1.
          6    2    1    2  501    0  0.98025078916E+02  0.90954756946E+02 -0.23336185612E+03  0.31970239314E+03  0.17282991749E+03 0.  0.
         24    2    3    3    0    0  0.16836081353E+02  0.12089629329E+02 -0.17383188218E+03  0.19172868695E+03  0.78184099173E+02 0.  0.
         -6    2    1    2    0  502 -0.98025078916E+02 -0.90954756946E+02  0.19629593557E+03  0.29307306693E+03  0.17169171305E+03 0.  0.
        -24    2    5    5    0    0 -0.30863765378E+02 -0.40531086076E+02  0.18604818381E+03  0.20833644535E+03  0.78707095042E+02 0.  0.
          5    1    3    3  501    0  0.81188997562E+02  0.78865127617E+02 -0.59529973944E+02  0.12797370619E+03  0.47000000000E+01 0. -1.
        -13    1    4    4    0    0  0.85841973827E+01 -0.27021331540E+01  0.61829641921E+01  0.10918746013E+02  0.00000000000E+00 0.  1.
         14    1    4    4    0    0  0.82518839706E+01  0.14791762483E+02 -0.18001484637E+03  0.18080994093E+03  0.00000000000E+00 0. -1.
         -5    1    5    5    0  502 -0.67161313538E+02 -0.50423670870E+02  0.10247751761E+02  0.84736621577E+02  0.47000000000E+01 0.  1.
         13    1    6    6    0    0  0.12676491250E+02 -0.47630055565E+02  0.10714828467E+03  0.11794096205E+03  0.00000000000E+00 0. -1.
        -14    1    6    6    0    0 -0.43540256628E+02  0.70989694899E+01  0.78899899145E+02  0.90395483295E+02  0.00000000000E+00 0.  1.
</event>
<event>
12    1  0.8493057E-002  0.2311482E+03  0.7818608E-02  0.1125899E+00
         21   -1    0    0  503  502  0.00000000000E+00  0.00000000000E+00  0.16050777689E+03  0.16050777689E+03  0.00000000000E+00 0. -1.
         21   -1    0    0  501  503 -0.00000000000E+00 -0.00000000000E+00 -0.58225183961E+03  0.58225183961E+03  0.00000000000E+00 0. -1.
          6    2    1    2  501    0  0.16711158093E+02  0.15267639313E+03 -0.45408112103E+03  0.50936048570E+03  0.17224719472E+03 0.  0.
         24    2    3    3    0    0 -0.54095897112E+02  0.10034893143E+03 -0.21095275471E+03  0.25073857088E+03  0.73297285649E+02 0.  0.
         -6    2    1    2    0  502 -0.16711158093E+02 -0.15267639313E+03  0.32337058315E+02  0.23339913080E+03  0.17274294514E+03 0.  0.
        -24    2    5    5    0    0 -0.73402233608E+02 -0.64887607107E+02  0.45180190939E+01  0.12515524904E+03  0.77750462456E+02 0.  0.
          5    1    3    3  501    0  0.70807055204E+02  0.52327461705E+02 -0.24312836632E+03  0.25862191482E+03  0.47000000000E+01 0. -1.
        -11    1    4    4    0    0 -0.57737725838E+02  0.42506006518E+02 -0.79374429848E+02  0.10696123451E+03  0.00000000000E+00 0.  1.
         12    1    4    4    0    0  0.36418287264E+01  0.57842924911E+02 -0.13157832486E+03  0.14377733637E+03  0.00000000000E+00 0. -1.
         -5    1    5    5    0  502  0.56691075515E+02 -0.87788786027E+02  0.27819039222E+02  0.10824388176E+03  0.47000000000E+01 0.  1.
         11    1    6    6    0    0 -0.57463753006E+02 -0.82835730241E+02  0.49616663602E+00  0.10081709823E+03  0.00000000000E+00 0. -1.
        -12    1    6    6    0    0 -0.15938480601E+02  0.17948123133E+02  0.40218524578E+01  0.24338150815E+02  0.00000000000E+00 0.  1.
</event>
<event>
12    1  0.8493057E-002  0.1773910E+03  0.7818608E-02  0.1170575E+00
         21   -1    0    0  501  502  0.00000000000E+00  0.00000000000E+00  0.16554954659E+03  0.16554954659E+03  0.00000000000E+00 0.  1.
         21   -1    0    0  502  503 -0.00000000000E+00 -0.00000000000E+00 -0.25462063626E+03  0.25462063626E+03  0.00000000000E+00 0.  1.
         -6    2    1    2    0  503  0.19422556162E+02 -0.28225016845E+02 -0.15117939165E+03  0.23307250511E+03  0.17405084577E+03 0.  0.
        -24    2    3    3    0    0 -0.30835091639E+02 -0.50828157471E+02 -0.14774460270E+03  0.17765932163E+03  0.78740475390E+02 0.  0.
          6    2    1    2  501    0 -0.19422556162E+02  0.28225016845E+02  0.62108301982E+02  0.18709767774E+03  0.17313062287E+03 0.  0.
         24    2    5    5    0    0 -0.89193004863E+01  0.10991022011E+02  0.11032876698E+03  0.13461308760E+03  0.75814840530E+02 0.  0.
          5    1    5    5  501    0 -0.10503255676E+02  0.17233994834E+02 -0.48220464996E+02  0.52484590140E+02  0.47000000000E+01 0. -1.
        -13    1    6    6    0    0 -0.95205062832E+01 -0.30938850072E+02  0.30678722658E+02  0.44598615534E+02  0.00000000000E+00 0.  1.
         14    1    6    6    0    0  0.60120579688E+00  0.41929872082E+02  0.79650044320E+02  0.90014472066E+02  0.00000000000E+00 0. -1.
         -5    1    3    3    0  503  0.50257647801E+02  0.22603140626E+02 -0.34347889528E+01  0.55413183483E+02  0.47000000000E+01 0.  1.
         11    1    4    4    0    0 -0.57312409165E+02 -0.36598396891E+02 -0.93056232237E+02  0.11525457586E+03  0.00000000000E+00 0. -1.
        -12    1    4    4    0    0  0.26477317526E+02 -0.14229760580E+02 -0.54688370465E+02  0.62404745762E+02  0.00000000000E+00 0.  1.
</event>
<event>
12    1  0.8493057E-002  0.1744965E+03  0.7818608E-02  0.1174338E+00
         21   -1    0    0  503  502  0.00000000000E+00  0.00000000000E+00  0.34960319806E+03  0.34960319806E+03  0.00000000000E+00 0. -1.
         21   -1    0    0  501  503 -0.00000000000E+00 -0.00000000000E+00 -0.20263497702E+03  0.20263497702E+03  0.00000000000E+00 0. -1.
          6    2    1    2  501    0  0.27944729455E+02  0.59835620837E+01 -0.13654204931E+03  0.22156886407E+03  0.17214040600E+03 0.  0.
         24    2    3    3    0    0  0.52267000304E+02  0.60721825389E+02 -0.97252380062E+02  0.14978015717E+03  0.80975864643E+02 0.  0.
         -6    2    1    2    0  502 -0.27944729455E+02 -0.59835620837E+01  0.28351027036E+03  0.33066931101E+03  0.16777189552E+03 0.  0.
        -24    2    5    5    0    0 -0.10218538119E+01  0.56171332852E+02  0.12897250206E+03  0.16187332756E+03  0.80079991687E+02 0.  0.
          5    1    3    3  501    0 -0.24322270849E+02 -0.54738263306E+02 -0.39289669248E+02  0.71788706901E+02  0.47000000000E+01 0. -1.
        -13    1    4    4    0    0  0.51030815951E+02 -0.20891842725E+01 -0.42369954909E+02  0.66360545105E+02  0.00000000000E+00 0.  1.
         14    1    4    4    0    0  0.12361843530E+01  0.62811009662E+02 -0.54882425153E+02  0.83419612065E+02  0.00000000000E+00 0. -1.
         -5    1    5    5    0  502 -0.26922875643E+02 -0.62154894935E+02  0.15453776830E+03  0.16879598345E+03  0.47000000000E+01 0.  1.
         11    1    6    6    0    0 -0.40488625272E+01  0.29248110748E+02  0.13139555976E+03  0.13467233716E+03  0.00000000000E+00 0. -1.
        -12    1    6    6    0    0  0.30270087153E+01  0.26923222103E+02 -0.24230577053E+01  0.27200990402E+02  0.00000000000E+00 0.  1.
</event>
<event>
12    1  0.8493057E-002  0.2232421E+03  0.7818608E-02  0.1131520E+00
         21   -1    0    0  503  502  0.00000000000E+00  0.00000000000E+00  0.16373742801E+04  0.16373742801E+04  0.00000000000E+00 0.  1.
         21   -1    0    0  501  503 -0.00000000000E+00 -0.00000000000E+00 -0.50711393898E+02  0.50711393898E+02  0.00000000000E+00 0.  1.
          6    2    1    2  501    0  0.13679963912E+03  0.39974518533E+02  0.25952233618E+03  0.34232861932E+03  0.17182822014E+03 0.  0.
         24    2    3    3    0    0  0.43542757928E+02  0.65547544999E+02  0.81513940392E+02  0.13969618228E+03  0.81719327220E+02 0.  0.
         -6    2    1    2    0  502 -0.13679963912E+03 -0.39974518533E+02  0.13271405500E+04  0.13457570547E+04  0.17160392567E+03 0.  0.
        -24    2    5    5    0    0 -0.83588389365E+02 -0.42680543880E+02  0.12189208897E+04  0.12250410882E+04  0.78414825530E+02 0.  0.
          5    1    3    3  501    0  0.93256881187E+02 -0.25573026466E+02  0.17800839579E+03  0.20263243704E+03  0.47000000000E+01 0. -1.
        -11    1    4    4    0    0  0.48050208871E+02  0.12461253357E+01  0.43712419744E+02  0.64970385875E+02  0.00000000000E+00 0.  1.
         12    1    4    4    0    0 -0.45074509425E+01  0.64301419664E+02  0.37801520648E+02  0.74725796403E+02  0.00000000000E+00 0. -1.
         -5    1    5    5    0  502 -0.53211249750E+02  0.27060253465E+01  0.10821966033E+03  0.12071596645E+03  0.47000000000E+01 0.  1.
         13    1    6    6    0    0 -0.34204462851E+02 -0.51143915673E+02  0.41230371393E+03  0.41686928156E+03  0.00000000000E+00 0. -1.
        -14    1    6    6    0    0 -0.49383926514E+02  0.84633717933E+01  0.80661717576E+03  0.80817180667E+03  0.00000000000E+00 0.  1.
</event>
<event>
12    1  0.8493057E-002  0.1983360E+03  0.7818608E-02  0.1152359E+00
         21   -1    0    0  503  502  0.00000000000E+00  0.00000000000E+00  0.17838728065E+03  0.17838728065E+03  0.00000000000E+00 0. -1.
         21   -1    0    0  501  503 -0.00000000000E+00 -0.00000000000E+00 -0.49677730994E+03  0.49677730994E+03  0.00000000000E+00 0. -1.
          6    2    1    2  501    0  0.90405807666E+02 -0.37671523624E+02 -0.41273986398E+03  0.45553068824E+03  0.16601704388E+03 0.  0.
         24    2    3    3    0    0 -0.21591834737E+01  0.64147544724E+01 -0.25554965851E+03  0.26780022136E+03  0.79784205488E+02 0.  0.
         -6    2    1    2    0  502 -0.90405807666E+02  0.37671523624E+02  0.94349834691E+02  0.21963390235E+03  0.17246682581E+03 0.  0.
        -24    2    5    5    0    0 -0.12292467820E+03  0.51671218306E+02  0.53928209383E+02  0.16569443457E+03  0.82255714512E+02 0.  0.
          5    1    3    3  501    0  0.92564991139E+02 -0.44086278096E+02 -0.15719020546E+03  0.18773046688E+03  0.47000000000E+01 0. -1.
        -13    1    4    4    0    0  0.23574845504E+02  0.30703960329E+02 -0.81978399611E+02  0.90658504969E+02  0.00000000000E+00 0.  1.
         14    1    4    4    0    0 -0.25734028978E+02 -0.24289205856E+02 -0.17357125890E+03  0.17714171639E+03  0.00000000000E+00 0. -1.
         -5    1    5    5    0  502  0.32518870530E+02 -0.13999694683E+02  0.40421625308E+02  0.53939467779E+02  0.47000000000E+01 0.  1.
         13    1    6    6    0    0 -0.64886739488E+02  0.69226585388E+02  0.23012587201E+02  0.97632926083E+02  0.00000000000E+00 0. -1.
        -14    1    6    6    0    0 -0.58037938708E+02 -0.17555367081E+02  0.30915622182E+02  0.68061508489E+02  0.00000000000E+00 0.  1.
</event>
<event>
12    1  0.8493057E-002  0.1920381E+03  0.7818608E-02  0.1156713E+00
         21   -1    0    0  503  502  0.00000000000E+00  0.00000000000E+00  0.64756684403E+03  0.64756684403E+03  0.00000000000E+00 0.  1.
         21   -1    0    0  501  503 -0.00000000000E+00 -0.00000000000E+00 -0.60812388272E+02  0.60812388272E+02  0.00000000000E+00 0.  1.
          6    2    1    2  501    0 -0.74506818526E+02 -0.41787222965E+02  0.38407310670E+03  0.42940748559E+03  0.17199185847E+03 0.  0.
         24    2    3    3    0    0 -0.35424932639E+01 -0.56621231682E+02  0.11823339864E+03  0.15381934424E+03  0.80391174708E+02 0.  0.
         -6    2    1    2    0  502  0.74506818526E+02  0.41787222965E+02  0.20268134906E+03  0.27897174671E+03  0.17160439446E+03 0.  0.
        -24    2    5    5    0    0 -0.21788655074E+00  0.58896431889E+02  0.51654920078E+02  0.10953863652E+03  0.76561380335E+02 0.  0.
          5    1    3    3  501    0 -0.70964325262E+02  0.14834008717E+02  0.26583970806E+03  0.27558814135E+03  0.47000000000E+01 0. -1.
        -11    1    4    4    0    0 -0.18475531513E+02  0.52669153155E+01 -0.36331740191E+00  0.19215037371E+02  0.00000000000E+00 0.  1.
         12    1    4    4    0    0  0.14933038249E+02 -0.61888146998E+02  0.11859671604E+03  0.13460430687E+03  0.00000000000E+00 0. -1.
         -5    1    5    5    0  502  0.74724705076E+02 -0.17109208924E+02  0.15102642898E+03  0.16943311019E+03  0.47000000000E+01 0.  1.
         13    1    6    6    0    0 -0.27959246988E+02 -0.39742229494E+00  0.28953679002E+02  0.40251620642E+02  0.00000000000E+00 0. -1.
        -14    1    6    6    0    0  0.27741360437E+02  0.59293854184E+02  0.22701241077E+02  0.69287015879E+02  0.00000000000E+00 0.  1.
</event>
<event>
12    1  0.8493057E-002  0.1792838E+03  0.7818608E-02  0.1170275E+00
         21   -1    0    0  501  502  0.00000000000E+00  0.00000000000E+00  0.11623094146E+04  0.11623094146E+04  0.00000000000E+00 0. -1.
         21   -1    0    0  502  503 -0.00000000000E+00 -0.00000000000E+00 -0.31902877407E+03  0.31902877407E+03  0.00000000000E+00 0. -1.
         -6    2    1    2    0  503 -0.41338458764E+02  0.27650128605E+02 -0.28822685329E+03  0.33571526847E+03  0.16479267199E+03 0.  0.
        -24    2    3    3    0    0 -0.68069140218E+02  0.61139824183E+02 -0.25000696438E+03  0.27810503544E+03  0.80420411283E+02 0.  0.
          6    2    1    2  501    0  0.41338458764E+02 -0.27650128605E+02  0.11315074938E+04  0.11456229202E+04  0.17224769645E+03 0.  0.
         24    2    5    5    0    0  0.32113549244E+02  0.35484783265E+02  0.90194068180E+03  0.90730773555E+03  0.86138746324E+02 0.  0.
          5    1    5    5  501    0  0.92249095199E+01 -0.63134911870E+02  0.22956681200E+03  0.23831518463E+03  0.47000000000E+01 0. -1.
        -13    1    6    6    0    0 -0.18837822008E+02  0.10689775717E+02  0.58097424748E+03  0.58137785568E+03  0.00000000000E+00 0.  1.
         14    1    6    6    0    0  0.50951371252E+02  0.24795007548E+02  0.32096643432E+03  0.32592987987E+03  0.00000000000E+00 0. -1.
         -5    1    3    3    0  503  0.26730681454E+02 -0.33489695578E+02 -0.38219888910E+02  0.57610233025E+02  0.47000000000E+01 0.  1.
         11    1    4    4    0    0  0.18430112127E+02  0.15088317846E+02 -0.49570662213E+02  0.54996153690E+02  0.00000000000E+00 0. -1.
        -12    1    4    4    0    0 -0.86499252345E+02  0.46051506337E+02 -0.20043630216E+03  0.22310888175E+03  0.00000000000E+00 0.  1.
</event>
<event>
12    1  0.8493057E-002  0.1876738E+03  0.7818608E-02  0.1161022E+00
         21   -1    0    0  503  502  0.00000000000E+00  0.00000000000E+00  0.86215609363E+03  0.86215609363E+03  0.00000000000E+00 0. -1.
         21   -1    0    0  501  503 -0.00000000000E+00 -0.00000000000E+00 -0.41148488164E+02  0.41148488164E+02  0.00000000000E+00 0. -1.
          6    2    1    2  501    0 -0.99668998898E+01  0.69723183043E+02  0.34886295823E+03  0.39522778441E+03  0.17186906817E+03 0.  0.
         24    2    3    3    0    0 -0.20596276557E+02  0.11090214159E+03  0.29709264989E+03  0.32806421466E+03  0.81477571798E+02 0.  0.
         -6    2    1    2    0  502  0.99668998898E+01 -0.69723183043E+02  0.47214464723E+03  0.50807679738E+03  0.17395632436E+03 0.  0.
        -24    2    5    5    0    0 -0.16597009382E+02 -0.53588718717E+02  0.46584244027E+03  0.47601794482E+03  0.80229004360E+02 0.  0.
          5    1    3    3  501    0  0.10629376667E+02 -0.41178958544E+02  0.51770308346E+02  0.67163569748E+02  0.47000000000E+01 0. -1.
        -13    1    4    4    0    0  0.27286600227E+02  0.67323260807E+02  0.13090576226E+03  0.14971071635E+03  0.00000000000E+00 0.  1.
         14    1    4    4    0    0 -0.47882876784E+02  0.43578880779E+02  0.16618688763E+03  0.17835349831E+03  0.00000000000E+00 0. -1.
         -5    1    5    5    0  502  0.26563909271E+02 -0.16134464326E+02  0.63022069537E+01  0.32058852558E+02  0.47000000000E+01 0.  1.
         13    1    6    6    0    0  0.16021737614E+02  0.77244616141E+01  0.31643002985E+02  0.36299352905E+02  0.00000000000E+00 0. -1.
        -14    1    6    6    0    0 -0.32618746996E+02 -0.61313180332E+02  0.43419943729E+03  0.43971859192E+03  0.00000000000E+00 0.  1.
</event>
<event>
12    1  0.8493057E-002  0.1922835E+03  0.7818608E-02  0.1156438E+00
         21   -1    0    0  503  502  0.00000000000E+00  0.00000000000E+00  0.11875073891E+03  0.11875073891E+03  0.00000000000E+00 0.  1.
         21   -1    0    0  501  503 -0.00000000000E+00 -0.00000000000E+00 -0.11692399383E+04  0.11692399383E+04  0.00000000000E+00 0.  1.
          6    2    1    2  501    0 -0.72255190757E+02 -0.45693852612E+02 -0.10768878528E+04  0.10939035288E+04  0.17213001501E+03 0.  0.
         24    2    3    3    0    0 -0.10113137537E+03 -0.58153544987E+01 -0.92823586131E+03  0.93723945116E+03  0.80836879993E+02 0.  0.
         -6    2    1    2    0  502  0.72255190757E+02  0.45693852612E+02  0.26398653405E+02  0.19408714840E+03  0.17223295711E+03 0.  0.
        -24    2    5    5    0    0  0.10689181367E+03  0.58915075278E+02 -0.39072913243E+01  0.14597232053E+03  0.79973780143E+02 0.  0.
          5    1    3    3  501    0  0.28876184613E+02 -0.39878498113E+02 -0.14865199154E+03  0.15666407769E+03  0.47000000000E+01 0. -1.
        -13    1    4    4    0    0 -0.49604885660E+02 -0.31210036420E+02 -0.25924945654E+03  0.26579125601E+03  0.00000000000E+00 0.  1.
         14    1    4    4    0    0 -0.51526489711E+02  0.25394681922E+02 -0.66898640476E+03  0.67144819515E+03  0.00000000000E+00 0. -1.
         -5    1    5    5    0  502 -0.34636622912E+02 -0.13221222666E+02  0.30305944729E+02  0.48114827875E+02  0.47000000000E+01 0.  1.
         11    1    6    6    0    0  0.68083578388E+02  0.50270732760E+01 -0.30068375368E+02  0.74597267437E+02  0.00000000000E+00 0. -1.
        -12    1    6    6    0    0  0.38808235281E+02  0.53888002002E+02  0.26161084043E+02  0.71375053091E+02  0.00000000000E+00 0.  1.
</event>
<event>
12    1  0.8493057E-002  0.1869192E+03  0.7818608E-02  0.1161839E+00
         21   -1    0    0  503  502  0.00000000000E+00  0.00000000000E+00  0.16110023148E+03  0.16110023148E+03  0.00000000000E+00 0. -1.
         21   -1    0    0  501  503 -0.00000000000E+00 -0.00000000000E+00 -0.31102807170E+03  0.31102807170E+03  0.00000000000E+00 0. -1.
          6    2    1    2  501    0  0.90592567755E+01 -0.64921682049E+02 -0.20644556597E+03  0.27685148256E+03  0.17242411883E+03 0.  0.
         24    2    3    3    0    0 -0.41824467435E+02 -0.24726169703E+01 -0.55854583644E+02  0.10600426111E+03  0.79760698022E+02 0.  0.
         -6    2    1    2    0  502 -0.90592567755E+01  0.64921682049E+02  0.56517725754E+02  0.19527682062E+03  0.17504824596E+03 0.  0.
        -24    2    5    5    0    0 -0.68393856613E+02  0.40149222135E+02  0.65861507494E+02  0.13013339604E+03  0.79418404267E+02 0.  0.
          5    1    3    3  501    0  0.50883724211E+02 -0.62449065079E+02 -0.15059098232E+03  0.17084722145E+03  0.47000000000E+01 0. -1.
        -11    1    4    4    0    0 -0.23936970277E+02 -0.38129481480E+02 -0.11736579769E+02  0.46525081501E+02  0.00000000000E+00 0.  1.
         12    1    4    4    0    0 -0.17887497159E+02  0.35656864510E+02 -0.44118003875E+02  0.59479179611E+02  0.00000000000E+00 0. -1.
         -5    1    5    5    0  502  0.59334599837E+02  0.24772459914E+02 -0.93437817402E+01  0.65143424574E+02  0.47000000000E+01 0.  1.
         11    1    6    6    0    0 -0.33501039612E+02 -0.13131728792E+02 -0.32758075535E+01  0.36131604881E+02  0.00000000000E+00 0. -1.
        -12    1    6    6    0    0 -0.34892817001E+02  0.53280950927E+02  0.69137315048E+02  0.94001791164E+02  0.00000000000E+00 0.  1.
</event>
<event>
12    1  0.8493057E-002  0.2122207E+03  0.7818608E-02  0.1140298E+00
         21   -1    0    0  501  502  0.00000000000E+00  0.00000000000E+00  0.44967874756E+03  0.44967874756E+03  0.00000000000E+00 0.  1.
         21   -1    0    0  502  503 -0.00000000000E+00 -0.00000000000E+00 -0.10125310515E+03  0.10125310515E+03  0.00000000000E+00 0. -1.
         -6    2    1    2    0  503  0.54071642787E+02  0.10960840478E+03  0.13417719156E+03  0.25107999331E+03  0.17349322567E+03 0.  0.
        -24    2    3    3    0    0  0.65329655455E+02  0.21493982017E+01  0.61309965442E+02  0.12067330795E+03  0.80811828312E+02 0.  0.
          6    2    1    2  501    0 -0.54071642787E+02 -0.10960840478E+03  0.21424845084E+03  0.29985185940E+03  0.17050218165E+03 0.  0.
         24    2    5    5    0    0 -0.72821216117E+02 -0.46959740736E+02  0.20123952567E+03  0.23301082604E+03  0.79300388368E+02 0.  0.
          5    1    5    5  501    0  0.18749573330E+02 -0.62648664043E+02  0.13008925175E+02  0.66841033360E+02  0.47000000000E+01 0. -1.
        -13    1    6    6    0    0 -0.75524082065E+02 -0.48720737784E+02  0.11149663838E+03  0.14320997742E+03  0.00000000000E+00 0.  1.
         14    1    6    6    0    0  0.27028659478E+01  0.17609970478E+01  0.89742887290E+02  0.89800848627E+02  0.00000000000E+00 0. -1.
         -5    1    3    3    0  503 -0.11258012668E+02  0.10745900658E+03  0.72867226120E+02  0.13040668536E+03  0.47000000000E+01 0.  1.
         11    1    4    4    0    0 -0.64905719144E+01  0.25453812214E+02  0.27219798458E+02  0.37827787513E+02  0.00000000000E+00 0. -1.
        -12    1    4    4    0    0  0.71820227369E+02 -0.23304414013E+02  0.34090166983E+02  0.82845520439E+02  0.00000000000E+00 0.  1.
</event>
<event>
12    1  0.8493057E-002  0.1964392E+03  0.7818608E-02  0.1152816E+00
         21   -1    0    0  503  502  0.00000000000E+00  0.00000000000E+00  0.88601620339E+03  0.88601620339E+03  0.00000000000E+00 0.  1.
         21   -1    0    0  501  503 -0.00000000000E+00 -0.00000000000E+00 -0.72465829569E+02  0.72465829569E+02  0.00000000000E+00 0.  1.
          6    2    1    2  501    0  0.76500602770E+02  0.52780306012E+02  0.10375115476E+03  0.22200168348E+03  0.17286509892E+03 0.  0.
         24    2    3    3    0    0  0.77520887916E+02  0.43157425186E+02  0.20779909005E+02  0.13833592920E+03  0.10408157030E+03 0.  0.
         -6    2    1    2    0  502 -0.76500602770E+02 -0.52780306012E+02  0.70979921906E+03  0.73648034948E+03  0.17306146557E+03 0.  0.
        -24    2    5    5    0    0 -0.37322170773E+02  0.62814679258E+01  0.16852720703E+03  0.19056760583E+03  0.80512058796E+02 0.  0.
          5    1    3    3  501    0 -0.10202851460E+01  0.96228808260E+01  0.82971245753E+02  0.83665754279E+02  0.47000000000E+01 0. -1.
        -11    1    4    4    0    0  0.26398958798E+02  0.62391630453E+02 -0.19467813720E+02  0.70488412858E+02  0.00000000000E+00 0.  1.
         12    1    4    4    0    0  0.51121929117E+02 -0.19234205267E+02  0.40247722724E+02  0.67847516339E+02  0.00000000000E+00 0. -1.
         -5    1    5    5    0  502 -0.39178431997E+02 -0.59061773938E+02  0.54127201203E+03  0.54591274365E+03  0.47000000000E+01 0.  1.
         13    1    6    6    0    0 -0.59726455354E+02  0.19451587884E+02  0.11385883688E+03  0.13003633521E+03  0.00000000000E+00 0. -1.
        -14    1    6    6    0    0  0.22404284581E+02 -0.13170119958E+02  0.54668370152E+02  0.60531270616E+02  0.00000000000E+00 0.  1.
</event>
<event>
12    1  0.8493057E-002  0.1932641E+03  0.7818608E-02  0.1155602E+00
         21   -1    0    0  503  502  0.00000000000E+00  0.00000000000E+00  0.14247030647E+03  0.14247030647E+03  0.00000000000E+00 0. -1.
         21   -1    0    0  501  503 -0.00000000000E+00 -0.00000000000E+00 -0.34846002037E+03  0.34846002037E+03  0.00000000000E+00 0. -1.
          6    2    1    2  501    0 -0.26772889980E+02  0.86008943679E+02 -0.22541988520E+03  0.29692617811E+03  0.17098743982E+03 0.  0.
         24    2    3    3    0    0 -0.11110773750E+02 -0.20969170149E+02 -0.76101718490E+02  0.11251461765E+03  0.79403477496E+02 0.  0.
         -6    2    1    2    0  502  0.26772889980E+02 -0.86008943679E+02  0.19430171297E+02  0.19400414872E+03  0.17072127030E+03 0.  0.
        -24    2    5    5    0    0  0.26618258264E+02 -0.12255875875E+03  0.53095900558E+00  0.15258937939E+03  0.86914071163E+02 0.  0.
          5    1    3    3  501    0 -0.15662116230E+02  0.10697811383E+03 -0.14931816670E+03  0.18441156046E+03  0.47000000000E+01 0. -1.
        -11    1    4    4    0    0 -0.34253645006E+02 -0.76509850203E+01 -0.36353683298E+01  0.35285488106E+02  0.00000000000E+00 0.  1.
         12    1    4    4    0    0  0.23142871256E+02 -0.13318185128E+02 -0.72466350160E+02  0.77229129547E+02  0.00000000000E+00 0. -1.
         -5    1    5    5    0  502  0.15463171587E+00  0.36549815075E+02  0.18899212291E+02  0.41414769325E+02  0.47000000000E+01 0.  1.
         13    1    6    6    0    0 -0.23795506053E+02 -0.20029150193E+02  0.19588514954E+02  0.36757351426E+02  0.00000000000E+00 0. -1.
        -14    1    6    6    0    0  0.50413764317E+02 -0.10252960856E+03 -0.19057555948E+02  0.11583202797E+03  0.00000000000E+00 0.  1.
</event>
<event>
12    1  0.8493057E-002  0.1909198E+03  0.7818608E-02  0.1157791E+00
         21   -1    0    0  503  502  0.00000000000E+00  0.00000000000E+00  0.21204656872E+03  0.21204656872E+03  0.00000000000E+00 0.  1.
         21   -1    0    0  501  503 -0.00000000000E+00 -0.00000000000E+00 -0.21770434015E+03  0.21770434015E+03  0.00000000000E+00 0. -1.
          6    2    1    2  501    0  0.38720486230E+02  0.71912525967E+02 -0.10206319807E+03  0.21587156290E+03  0.17179332881E+03 0.  0.
         24    2    3    3    0    0  0.27394136268E+02  0.10585909256E+03 -0.16909617626E+02  0.12338438623E+03  0.54600232747E+02 0.  0.
         -6    2    1    2    0  502 -0.38720486230E+02 -0.71912525967E+02  0.96405426641E+02  0.21387934597E+03  0.17256790229E+03 0.  0.
        -24    2    5    5    0    0 -0.52207264133E+02 -0.44549643182E+02  0.13058034041E+03  0.16782899023E+03  0.80031715726E+02 0.  0.
          5    1    3    3  501    0  0.11326349962E+02 -0.33946566596E+02 -0.85153580446E+02  0.92487176678E+02  0.47000000000E+01 0. -1.
        -11    1    4    4    0    0  0.38572811932E+02  0.83105475843E+02 -0.27868886599E+02  0.95765634628E+02  0.00000000000E+00 0.  1.
         12    1    4    4    0    0 -0.11178675663E+02  0.22753616720E+02  0.10959268973E+02  0.27618751598E+02  0.00000000000E+00 0. -1.
         -5    1    5    5    0  502  0.13486777903E+02 -0.27362882785E+02 -0.34174913773E+02  0.46050355742E+02  0.47000000000E+01 0.  1.
         11    1    6    6    0    0 -0.41762776789E+01 -0.46037469242E+02  0.26726874733E+02  0.53396776143E+02  0.00000000000E+00 0. -1.
        -12    1    6    6    0    0 -0.48030986454E+02  0.14878260607E+01  0.10385346568E+03  0.11443221408E+03  0.00000000000E+00 0.  1.
</event>
<event>
12    1  0.8493057E-002  0.2357277E+03  0.7818608E-02  0.1122770E+00
         21   -1    0    0  503  502  0.00000000000E+00  0.00000000000E+00  0.25098250657E+03  0.25098250657E+03  0.00000000000E+00 0.  1.
         21   -1    0    0  501  503 -0.00000000000E+00 -0.00000000000E+00 -0.22263510677E+03  0.22263510677E+03  0.00000000000E+00 0.  1.
          6    2    1    2  501    0 -0.11263912893E+03 -0.11498027361E+03 -0.69940564680E+01  0.23525534422E+03  0.17142964584E+03 0.  0.
         24    2    3    3    0    0  0.12875507682E+01 -0.82991184046E+02 -0.73284691905E+01  0.11682902945E+03  0.81890910635E+02 0.  0.
         -6    2    1    2    0  502  0.11263912893E+03  0.11498027361E+03  0.35341456269E+02  0.23836226912E+03  0.17221938370E+03 0.  0.
        -24    2    5    5    0    0  0.91302509544E+02  0.41325882347E+02  0.88699269374E+02  0.14482421858E+03  0.55340013548E+02 0.  0.
          5    1    3    3  501    0 -0.11392667970E+03 -0.31989089562E+02  0.33441272247E+00  0.11842631477E+03  0.47000000000E+01 0. -1.
        -11    1    4    4    0    0  0.34528463195E+02 -0.45662456624E+02 -0.26769876547E+02  0.63197318027E+02  0.00000000000E+00 0.  1.
         12    1    4    4    0    0 -0.33240912427E+02 -0.37328727423E+02  0.19441407356E+02  0.53631711421E+02  0.00000000000E+00 0. -1.
         -5    1    5    5    0  502  0.21336619383E+02  0.73654391261E+02 -0.53357813106E+02  0.93538050536E+02  0.47000000000E+01 0.  1.
         13    1    6    6    0    0  0.78418564292E+02  0.16211192478E+02  0.42426344582E+02  0.90621568635E+02  0.00000000000E+00 0. -1.
        -14    1    6    6    0    0  0.12883945252E+02  0.25114689869E+02  0.46272924793E+02  0.54202649948E+02  0.00000000000E+00 0.  1.
</event>
<event>
12    1  0.8493057E-002  0.3396570E+03  0.7818608E-02  0.1066972E+00
         21   -1    0    0  501  502  0.00000000000E+00  0.00000000000E+00  0.48146674474E+03  0.48146674474E+03  0.00000000000E+00 0.  1.
         21   -1    0    0  502  503 -0.00000000000E+00 -0.00000000000E+00 -0.53898287512E+03  0.53898287512E+03  0.00000000000E+00 0. -1.
         -6    2    1    2    0  503  0.46614329784E+02 -0.29004075947E+03 -0.40914490247E+03  0.53175787308E+03  0.17050028291E+03 0.  0.
        -24    2    3    3    0    0  0.72005633690E+02 -0.13552799243E+03 -0.27594477368E+03  0.32612889214E+03  0.81620390554E+02 0.  0.
          6    2    1    2  501    0 -0.46614329784E+02  0.29004075947E+03  0.35162877210E+03  0.48869174678E+03  0.16994202573E+03 0.  0.
         24    2    5    5    0    0 -0.24554184438E+02  0.66686499648E+02  0.16156562108E+03  0.19454915080E+03  0.81828631635E+02 0.  0.
          5    1    5    5  501    0 -0.22060145346E+02  0.22335425982E+03  0.19006315102E+03  0.29414259598E+03  0.47000000000E+01 0. -1.
        -13    1    6    6    0    0 -0.11003354923E+01  0.78292469390E+02  0.14093942821E+03  0.16122916587E+03  0.00000000000E+00 0.  1.
         14    1    6    6    0    0 -0.23453848946E+02 -0.11605969742E+02  0.20626192865E+02  0.33319984936E+02  0.00000000000E+00 0. -1.
         -5    1    3    3    0  503 -0.25391303906E+02 -0.15451276704E+03 -0.13320012880E+03  0.20562898094E+03  0.47000000000E+01 0.  1.
         13    1    4    4    0    0  0.66260125019E+02 -0.13227209301E+03 -0.19426567116E+03  0.24418325444E+03  0.00000000000E+00 0. -1.
        -14    1    4    4    0    0  0.57455086712E+01 -0.32558994244E+01 -0.81679102514E+02  0.81945637703E+02  0.00000000000E+00 0.  1.
</event>
<event>
12    1  0.8493057E-002  0.2577960E+03  0.7818608E-02  0.1108634E+00
         21   -1    0    0  503  502  0.00000000000E+00  0.00000000000E+00  0.19337167947E+03  0.19337167947E+03  0.00000000000E+00 0.  1.
         21   -1    0    0  501  503 -0.00000000000E+00 -0.00000000000E+00 -0.15598963478E+04  0.15598963478E+04  0.00000000000E+00 0.  1.
          6    2    1    2  501    0  0.15083177801E+02  0.19158136691E+03 -0.14574614740E+04  0.14799032877E+04  0.17026118270E+03 0.  0.
         24    2    3    3    0    0  0.40192130159E+02  0.20318433104E+03 -0.13739885039E+04  0.13918412924E+04  0.80489097840E+02 0.  0.
         -6    2    1    2    0  502 -0.15083177801E+02 -0.19158136691E+03  0.90936805667E+02  0.27336473957E+03  0.17183671266E+03 0.  0.
        -24    2    5    5    0    0  0.73641377678E+01 -0.20506209777E+03  0.52465565597E+02  0.22659147377E+03  0.80537978268E+02 0.  0.
          5    1    3    3  501    0 -0.25108952359E+02 -0.11602964138E+02 -0.83472970131E+02  0.88061995253E+02  0.47000000000E+01 0. -1.
        -11    1    4    4    0    0  0.14145065085E+02  0.11536753068E+03 -0.10029956101E+04  0.10097078508E+04  0.00000000000E+00 0.  1.
         12    1    4    4    0    0  0.26047065075E+02  0.87816800369E+02 -0.37099289375E+03  0.38213344167E+03  0.00000000000E+00 0. -1.
         -5    1    5    5    0  502 -0.22447315568E+02  0.13480730868E+02  0.38471240070E+02  0.46773265799E+02  0.47000000000E+01 0.  1.
         11    1    6    6    0    0 -0.18246705632E+02 -0.12447367403E+03 -0.23371461633E+01  0.12582567324E+03  0.00000000000E+00 0. -1.
        -12    1    6    6    0    0  0.25610843400E+02 -0.80588423745E+02  0.54802711760E+02  0.10076580054E+03  0.00000000000E+00 0.  1.
</event>
<event>
12    1  0.8493057E-002  0.2401275E+03  0.7818608E-02  0.1119754E+00
         21   -1    0    0  503  502  0.00000000000E+00  0.00000000000E+00  0.33021630210E+03  0.33021630210E+03  0.00000000000E+00 0. -1.
         21   -1    0    0  501  503 -0.00000000000E+00 -0.00000000000E+00 -0.18291546918E+03  0.18291546918E+03  0.00000000000E+00 0. -1.
          6    2    1    2  501    0  0.13162233119E+01 -0.16758866916E+03  0.18387121668E+02  0.24083040278E+03  0.17196948039E+03 0.  0.
         24    2    3    3    0    0  0.13151965753E+02 -0.95870658194E+02 -0.53374503511E+02  0.13857885636E+03  0.83612824972E+02 0.  0.
         -6    2    1    2    0  502 -0.13162233119E+01  0.16758866916E+03  0.12891371126E+03  0.27230136851E+03  0.17158553513E+03 0.  0.
        -24    2    5    5    0    0  0.31452141822E+02  0.85179948603E+02  0.13706344971E+03  0.18311913252E+03  0.80631052220E+02 0.  0.
          5    1    3    3  501    0 -0.11835742441E+02 -0.71718010968E+02  0.71761625179E+02  0.10225154642E+03  0.47000000000E+01 0. -1.
        -13    1    4    4    0    0  0.48811499389E+02 -0.58217331104E+02 -0.29703286806E+02  0.81572699849E+02  0.00000000000E+00 0.  1.
         14    1    4    4    0    0 -0.35659533636E+02 -0.37653327090E+02 -0.23671216705E+02  0.57006156513E+02  0.00000000000E+00 0. -1.
         -5    1    5    5    0  502 -0.32768365134E+02  0.82408720559E+02 -0.81497384505E+01  0.89182235981E+02  0.47000000000E+01 0.  1.
         13    1    6    6    0    0  0.46297908018E+02  0.13664417734E+02  0.50557708908E+02  0.69902035227E+02  0.00000000000E+00 0. -1.
        -14    1    6    6    0    0 -0.14845766196E+02  0.71515530869E+02  0.86505740798E+02  0.11321709730E+03  0.00000000000E+00 0.  1.
</event>
<event>
12    1  0.8493057E-002  0.1968380E+03  0.7818608E-02  0.1152512E+00
         21   -1    0    0  503  502  0.00000000000E+00  0.00000000000E+00  0.30040268041E+03  0.30040268041E+03  0.00000000000E+00 0.  1.
         21   -1    0    0  501  503 -0.00000000000E+00 -0.00000000000E+00 -0.17597674703E+03  0.17597674703E+03  0.00000000000E+00 0. -1.
          6    2    1    2  501    0  0.28582069016E+02  0.90802813270E+02 -0.61147309431E+02  0.20611690753E+03  0.17228784215E+03 0.  0.
         24    2    3    3    0    0  0.40348842161E+02 -0.14864513963E+02 -0.24963563537E+02  0.93709637025E+02  0.79431314529E+02 0.  0.
         -6    2    1    2    0  502 -0.28582069016E+02 -0.90802813270E+02  0.18557324281E+03  0.27026251992E+03  0.17187878187E+03 0.  0.
        -24    2    5    5    0    0 -0.22828828287E+02  0.13970660594E+02  0.10831886556E+03  0.13987498443E+03  0.84354607913E+02 0.  0.
          5    1    3    3  501    0 -0.11766773146E+02  0.10566732723E+03 -0.36183745894E+02  0.11240727050E+03  0.47000000000E+01 0. -1.
        -13    1    4    4    0    0  0.60379211316E+02  0.53298379144E+01 -0.95604502612E+01  0.61363332215E+02  0.00000000000E+00 0.  1.
         14    1    4    4    0    0 -0.20030369155E+02 -0.20194351878E+02 -0.15403113276E+02  0.32346304810E+02  0.00000000000E+00 0. -1.
         -5    1    5    5    0  502 -0.57532407285E+01 -0.10477347386E+03  0.77254377252E+02  0.13038753548E+03  0.47000000000E+01 0.  1.
         13    1    6    6    0    0 -0.54410643399E+02  0.85400444071E+01  0.79899478424E+02  0.97043171455E+02  0.00000000000E+00 0. -1.
        -14    1    6    6    0    0  0.31581815112E+02  0.54306161868E+01  0.28419387134E+02  0.42831812978E+02  0.00000000000E+00 0.  1.
</event>
<event>
12    1  0.8493057E-002  0.2471813E+03  0.7818608E-02  0.1115330E+00
         21   -1    0    0  501  502  0.00000000000E+00  0.00000000000E+00  0.95400520870E+03  0.95400520870E+03  0.00000000000E+00 0. -1.
         21   -1    0    0  502  503 -0.00000000000E+00 -0.00000000000E+00 -0.13076666498E+03  0.13076666498E+03  0.00000000000E+00 0. -1.
         -6    2    1    2    0  503 -0.68180141323E+02  0.16309726820E+03  0.22527188240E+02  0.24677588994E+03  0.17070915347E+03 0.  0.
        -24    2    3    3    0    0 -0.53133498987E+02  0.18979781052E+03  0.33779362425E+02  0.21379071403E+03  0.75624377596E+02 0.  0.
          6    2    1    2  501    0  0.68180141323E+02 -0.16309726820E+03  0.80071135548E+03  0.83799598374E+03  0.17276962523E+03 0.  0.
         24    2    5    5    0    0 -0.12538576487E+02 -0.13305055080E+03  0.43382064997E+03  0.46110183889E+03  0.80962241312E+02 0.  0.
          5    1    5    5  501    0  0.80718717810E+02 -0.30046717398E+02  0.36689070552E+03  0.37689414486E+03  0.47000000000E+01 0. -1.
        -11    1    6    6    0    0  0.21955609009E+02 -0.10172104303E+03  0.35066281428E+03  0.36577811400E+03  0.00000000000E+00 0.  1.
         12    1    6    6    0    0 -0.34494185496E+02 -0.31329507771E+02  0.83157835681E+02  0.95323724882E+02  0.00000000000E+00 0. -1.
         -5    1    3    3    0  503 -0.15046642336E+02 -0.26700542320E+02 -0.11252174185E+02  0.32985175908E+02  0.47000000000E+01 0.  1.
         11    1    4    4    0    0 -0.53012777233E+02  0.12380702258E+03  0.53499548411E+02  0.14491630367E+03  0.00000000000E+00 0. -1.
        -12    1    4    4    0    0 -0.12072175375E+00  0.65990787943E+02 -0.19720185985E+02  0.68874410360E+02  0.00000000000E+00 0.  1.
</event>
<event>
12    1  0.8493057E-002  0.1766610E+03  0.7818608E-02  0.1171782E+00
         21   -1    0    0  503  502  0.00000000000E+00  0.00000000000E+00  0.29358104979E+03  0.29358104979E+03  0.00000000000E+00 0.  1.
         21   -1    0    0  501  503 -0.00000000000E+00 -0.00000000000E+00 -0.14142244836E+03  0.14142244836E+03  0.00000000000E+00 0.  1.
          6    2    1    2  501    0  0.12487430844E+02 -0.22836206814E+02 -0.34434536460E+02  0.17998565077E+03  0.17473313627E+03 0.  0.
         24    2    3    3    0    0 -0.17624280434E+02 -0.64516705120E+02 -0.63098859265E+02  0.12092879260E+03  0.78544804661E+02 0.  0.
         -6    2    1    2    0  502 -0.12487430844E+02  0.22836206814E+02  0.18659313788E+03  0.25501784738E+03  0.17187110026E+03 0.  0.
        -24    2    5    5    0    0 -0.51060978424E+02 -0.41589229314E+02  0.11080370688E+03  0.14822513581E+03  0.73187033779E+02 0.  0.
          5    1    3    3  501    0  0.30111711277E+02  0.41680498306E+02  0.28664322805E+02  0.59056858170E+02  0.47000000000E+01 0. -1.
        -11    1    4    4    0    0 -0.79623827036E+01 -0.17680893342E+02 -0.69977599997E+02  0.72614585512E+02  0.00000000000E+00 0.  1.
         12    1    4    4    0    0 -0.96618977299E+01 -0.46835811779E+02  0.68787407319E+01  0.48314207090E+02  0.00000000000E+00 0. -1.
         -5    1    5    5    0  502  0.38573547580E+02  0.64425436128E+02  0.75789430999E+02  0.10679271157E+03  0.47000000000E+01 0.  1.
         13    1    6    6    0    0 -0.35383307323E+02 -0.27346805002E+02  0.10802861258E+02  0.46005738688E+02  0.00000000000E+00 0. -1.
        -14    1    6    6    0    0 -0.15677671101E+02 -0.14242424312E+02  0.10000084563E+03  0.10221939712E+03  0.00000000000E+00 0.  1.
</event>
<event>
12    1  0.8493057E-002  0.2406498E+03  0.7818608E-02  0.1119494E+00
         21   -1    0    0  503  502  0.00000000000E+00  0.00000000000E+00  0.67780423010E+02  0.67780423010E+02  0.00000000000E+00 0. -1.
         21   -1    0    0  501  503 -0.00000000000E+00 -0.00000000000E+00 -0.10051454213E+04  0.10051454213E+04  0.00000000000E+00 0.  1.
          6    2    1    2  501    0  0.11561301305E+03 -0.12087333175E+03 -0.67771266435E+03  0.71890370893E+03  0.17190507898E+03 0.  0.
         24    2    3    3    0    0  0.67613421351E+02 -0.10977361037E+03 -0.28222930227E+03  0.32033584231E+03  0.79623190908E+02 0.  0.
         -6    2    1    2    0  502 -0.11561301305E+03  0.12087333175E+03 -0.25965233392E+03  0.35402213536E+03  0.17301909345E+03 0.  0.
        -24    2    5    5    0    0 -0.68519727828E+02  0.57489188250E+01 -0.16781104523E+03  0.19933431983E+03  0.82738268002E+02 0.  0.
          5    1    3    3  501    0  0.47999591696E+02 -0.11099721386E+02 -0.39548336209E+03  0.39856786662E+03  0.47000000000E+01 0. -1.
        -11    1    4    4    0    0  0.24849141999E+02 -0.23959032068E+02 -0.16653974271E+03  0.17007939610E+03  0.00000000000E+00 0.  1.
         12    1    4    4    0    0  0.42764279352E+02 -0.85814578300E+02 -0.11568955956E+03  0.15025644621E+03  0.00000000000E+00 0. -1.
         -5    1    5    5    0  502 -0.47093285219E+02  0.11512441293E+03 -0.91841288692E+02  0.15468781553E+03  0.47000000000E+01 0.  1.
         13    1    6    6    0    0 -0.77998242646E+02 -0.43268092853E+01 -0.85275618202E+02  0.11564764673E+03  0.00000000000E+00 0. -1.
        -14    1    6    6    0    0  0.94785148175E+01  0.10075728110E+02 -0.82535427026E+02  0.83686673099E+02  0.00000000000E+00 0.  1.
</event>
<event>
12    1  0.8493057E-002  0.1970469E+03  0.7818608E-02  0.1152604E+00
         21   -1    0    0  503  502  0.00000000000E+00  0.00000000000E+00  0.23577172640E+03  0.23577172640E+03  0.00000000000E+00 0.  1.
         21   -1    0    0  501  503 -0.00000000000E+00 -0.00000000000E+00 -0.24422882606E+03  0.24422882606E+03  0.00000000000E+00 0.  1.
          6    2    1    2  501    0  0.14061792670E+02 -0.92210409382E+02 -0.14236442064E+03  0.24309487865E+03  0.17357130567E+03 0.  0.
         24    2    3    3    0    0  0.46463630868E+02 -0.82821572822E+02 -0.32754246768E+02  0.12831461212E+03  0.79834310189E+02 0.  0.
         -6    2    1    2    0  502 -0.14061792670E+02  0.92210409382E+02  0.13390732098E+03  0.23690567381E+03  0.17173419596E+03 0.  0.
        -24    2    5    5    0    0 -0.34095351942E+02  0.25302409515E+01  0.17909855081E+02  0.88846975313E+02  0.80025789406E+02 0.  0.
          5    1    3    3  501    0 -0.32401838198E+02 -0.93888365595E+01 -0.10961017387E+03  0.11478026654E+03  0.47000000000E+01 0. -1.
        -11    1    4    4    0    0 -0.92064928119E+01 -0.61291208291E+02 -0.41267749758E+01  0.62116036539E+02  0.00000000000E+00 0.  1.
         12    1    4    4    0    0  0.55670123680E+02 -0.21530364531E+02 -0.28627471792E+02  0.66198575578E+02  0.00000000000E+00 0. -1.
         -5    1    5    5    0  502  0.20033559272E+02  0.89680168430E+02  0.11599746590E+03  0.14805869850E+03  0.47000000000E+01 0.  1.
         11    1    6    6    0    0 -0.24713372748E+02 -0.36682121986E+02  0.19851718604E+02  0.48481126199E+02  0.00000000000E+00 0. -1.
        -12    1    6    6    0    0 -0.93819791936E+01  0.39212362938E+02 -0.19418635235E+01  0.40365849114E+02  0.00000000000E+00 0.  1.
</event>
<event>
12    1  0.8493057E-002  0.1879404E+03  0.7818608E-02  0.1160441E+00
         21   -1    0    0  503  502  0.00000000000E+00  0.00000000000E+00  0.13963544657E+03  0.13963544657E+03  0.00000000000E+00 0. -1.
         21   -1    0    0  501  503 -0.00000000000E+00 -0.00000000000E+00 -0.32446938441E+03  0.32446938441E+03  0.00000000000E+00 0.  1.
          6    2    1    2  501    0 -0.19783011474E+02  0.71730111924E+02 -0.20193557638E+03  0.27586148768E+03  0.17258333313E+03 0.  0.
         24    2    3    3    0    0  0.26843125117E+02  0.97250334051E+02 -0.17474255393E+03  0.21597134808E+03  0.77009624063E+02 0.  0.
         -6    2    1    2    0  502  0.19783011474E+02 -0.71730111924E+02  0.17101638537E+02  0.18824334330E+03  0.17206543452E+03 0.  0.
        -24    2    5    5    0    0  0.52311441444E+02 -0.86645808610E+02  0.52615720827E+02  0.13760820921E+03  0.76965070699E+02 0.  0.
          5    1    3    3  501    0 -0.46626136591E+02 -0.25520222127E+02 -0.27193022455E+02  0.59890139598E+02  0.47000000000E+01 0. -1.
        -13    1    4    4    0    0  0.28588694691E+02  0.53119495408E+02 -0.15732818590E+03  0.16849674280E+03  0.00000000000E+00 0.  1.
         14    1    4    4    0    0 -0.17455695743E+01  0.44130838643E+02 -0.17414368033E+02  0.47474605280E+02  0.00000000000E+00 0. -1.
         -5    1    5    5    0  502 -0.32528429970E+02  0.14915696686E+02 -0.35514082291E+02  0.50635134096E+02  0.47000000000E+01 0.  1.
         13    1    6    6    0    0  0.20373458651E+02  0.11813655752E+02  0.11801813031E+02  0.26342419602E+02  0.00000000000E+00 0. -1.
        -14    1    6    6    0    0  0.31937982792E+02 -0.98459464362E+02  0.40813907796E+02  0.11126578961E+03  0.00000000000E+00 0.  1.
</event>
<event>
12    1  0.8493057E-002  0.3358990E+03  0.7818608E-02  0.1068562E+00
         21   -1    0    0  501  502  0.00000000000E+00  0.00000000000E+00  0.31414012544E+03  0.31414012544E+03  0.00000000000E+00 0. -1.
         21   -1    0    0  502  503 -0.00000000000E+00 -0.00000000000E+00 -0.39512428993E+03  0.39512428993E+03  0.00000000000E+00 0.  1.
         -6    2    1    2    0  503  0.25494729992E+03  0.13496850217E+03  0.66578482901E+02  0.34243373800E+03  0.17208587455E+03 0.  0.
        -24    2    3    3    0    0  0.23046756185E+03  0.52916741976E+02  0.47436258081E+02  0.25456870686E+03  0.81483429507E+02 0.  0.
          6    2    1    2  501    0 -0.25494729992E+03 -0.13496850217E+03 -0.14756264739E+03  0.36683067738E+03  0.17197496517E+03 0.  0.
         24    2    5    5    0    0 -0.11382604392E+03 -0.25948169395E+02 -0.15934990713E+02  0.14513590555E+03  0.84739786291E+02 0.  0.
          5    1    5    5  501    0 -0.14112125601E+03 -0.10902033277E+03 -0.13162765668E+03  0.22169477183E+03  0.47000000000E+01 0. -1.
        -11    1    6    6    0    0 -0.47737638057E+02 -0.29563173334E+02 -0.45859805696E+02  0.72498172965E+02  0.00000000000E+00 0.  1.
         12    1    6    6    0    0 -0.66088405860E+02  0.36150039386E+01  0.29924814983E+02  0.72637732580E+02  0.00000000000E+00 0. -1.
         -5    1    3    3    0  503  0.24479738075E+02  0.82051760191E+02  0.19142224820E+02  0.87865031143E+02  0.47000000000E+01 0.  1.
         11    1    4    4    0    0  0.11785087506E+03  0.67432342527E+02  0.15797786230E+02  0.13669498755E+03  0.00000000000E+00 0. -1.
        -12    1    4    4    0    0  0.11261668679E+03 -0.14515600551E+02  0.31638471851E+02  0.11787371931E+03  0.00000000000E+00 0.  1.
</event>
<event>
12    1  0.8493057E-002  0.1772239E+03  0.7818608E-02  0.1170548E+00
         21   -1    0    0  501  502  0.00000000000E+00  0.00000000000E+00  0.98175820275E+02  0.98175820275E+02  0.00000000000E+00 0.  1.
         21   -1    0    0  502  503 -0.00000000000E+00 -0.00000000000E+00 -0.32682375000E+03  0.32682375000E+03  0.00000000000E+00 0.  1.
         -6    2    1    2    0  503 -0.39660573551E+02 -0.17751661050E+02 -0.82979520261E+02  0.19568829433E+03  0.17181450810E+03 0.  0.
        -24    2    3    3    0    0  0.15718810127E+02 -0.34145559955E+02  0.72083819996E+01  0.88489489434E+02  0.79783636873E+02 0.  0.
          6    2    1    2  501    0  0.39660573551E+02  0.17751661050E+02 -0.14566840947E+03  0.22931127595E+03  0.17168661332E+03 0.  0.
         24    2    5    5    0    0  0.20106955646E+02  0.60309293724E+02 -0.33605272240E+02  0.10776403082E+03  0.80263761696E+02 0.  0.
          5    1    5    5  501    0  0.19553617905E+02 -0.42557632675E+02 -0.11206313723E+03  0.12154724512E+03  0.47000000000E+01 0. -1.
        -11    1    6    6    0    0  0.51078405029E+02  0.31553217491E+02 -0.17503701027E+02  0.62537896863E+02  0.00000000000E+00 0.  1.
         12    1    6    6    0    0 -0.30971449384E+02  0.28756076233E+02 -0.16101571213E+02  0.45226133958E+02  0.00000000000E+00 0. -1.
         -5    1    3    3    0  503 -0.55379383678E+02  0.16393898905E+02 -0.90187902261E+02  0.10719880490E+03  0.47000000000E+01 0.  1.
         13    1    4    4    0    0 -0.24900674963E+02  0.10781985232E+02 -0.20778861533E+01  0.27214195377E+02  0.00000000000E+00 0. -1.
        -14    1    4    4    0    0  0.40619485090E+02 -0.44927545187E+02  0.92862681529E+01  0.61275294057E+02  0.00000000000E+00 0.  1.
</event>
<event>
12    1  0.8493057E-002  0.1958138E+03  0.7818608E-02  0.1153638E+00
         21   -1    0    0  503  502  0.00000000000E+00  0.00000000000E+00  0.29835639645E+03  0.29835639645E+03  0.00000000000E+00 0. -1.
         21   -1    0    0  501  503 -0.00000000000E+00 -0.00000000000E+00 -0.17911200584E+03  0.17911200584E+03  0.00000000000E+00 0. -1.
          6    2    1    2  501    0  0.19036665907E+02 -0.86057135151E+02 -0.68616804110E+02  0.20611093673E+03  0.17322016994E+03 0.  0.
         24    2    3    3    0    0  0.43809537831E+02  0.21368081098E+01  0.30072881666E+01  0.89732384560E+02  0.78224136319E+02 0.  0.
         -6    2    1    2    0  502 -0.19036665907E+02  0.86057135151E+02  0.18786119472E+03  0.27135746555E+03  0.17485657114E+03 0.  0.
        -24    2    5    5    0    0  0.32607069480E+02  0.20957567650E+02  0.15971833083E+03  0.18349882977E+03  0.81605359528E+02 0.  0.
          5    1    3    3  501    0 -0.24772871923E+02 -0.88193943260E+02 -0.71624092277E+02  0.11637855217E+03  0.47000000000E+01 0. -1.
        -13    1    4    4    0    0  0.31025136436E+02 -0.36641930515E+02  0.77217589708E+01  0.48629371005E+02  0.00000000000E+00 0.  1.
         14    1    4    4    0    0  0.12784401395E+02  0.38778738624E+02 -0.47144708043E+01  0.41103013555E+02  0.00000000000E+00 0. -1.
         -5    1    5    5    0  502 -0.51643735388E+02  0.65099567500E+02  0.28142863891E+02  0.87858635782E+02  0.47000000000E+01 0.  1.
         11    1    6    6    0    0  0.17638517085E+02 -0.82323443014E+01  0.14705137939E+03  0.14833407214E+03  0.00000000000E+00 0. -1.
        -12    1    6    6    0    0  0.14968552395E+02  0.29189911952E+02  0.12666951438E+02  0.35164757632E+02  0.00000000000E+00 0.  1.
</event>
<event>
12    1  0.8493057E-002  0.1746283E+03  0.7818608E-02  0.1173179E+00
         21   -1    0    0  503  502  0.00000000000E+00  0.00000000000E+00  0.15254721366E+04  0.15254721366E+04  0.00000000000E+00 0.  1.
         21   -1    0    0  501  503 -0.00000000000E+00 -0.00000000000E+00 -0.20612492677E+02  0.20612492677E+02  0.00000000000E+00 0.  1.
          6    2    1    2  501    0  0.10246169375E+02  0.21625025127E+02  0.61519938317E+03  0.63950396846E+03  0.17298097848E+03 0.  0.
         24    2    3    3    0    0 -0.54542726132E+01  0.31681451356E+02  0.61420059349E+03  0.62024979571E+03  0.80212072629E+02 0.  0.
         -6    2    1    2    0  502 -0.10246169375E+02 -0.21625025127E+02  0.88966026076E+03  0.90658066083E+03  0.17268610054E+03 0.  0.
        -24    2    5    5    0    0 -0.68390656345E+02 -0.22198716589E+02  0.45534040381E+03  0.46836046660E+03  0.82804459076E+02 0.  0.
          5    1    3    3  501    0  0.15700441988E+02 -0.10056426229E+02  0.99878968752E+00  0.19254172741E+02  0.47000000000E+01 0. -1.
        -11    1    4    4    0    0  0.12469963732E+02  0.52125875977E+02  0.49966232696E+03  0.50252865383E+03  0.00000000000E+00 0.  1.
         12    1    4    4    0    0 -0.17924236345E+02 -0.20444424621E+02  0.11453826653E+03  0.11772114188E+03  0.00000000000E+00 0. -1.
         -5    1    5    5    0  502  0.58144486970E+02  0.57369146204E+00  0.43431985695E+03  0.43822019423E+03  0.47000000000E+01 0.  1.
         13    1    6    6    0    0 -0.74424744285E+01  0.13953191928E+02  0.26142148774E+03  0.26189936281E+03  0.00000000000E+00 0. -1.
        -14    1    6    6    0    0 -0.60948181916E+02 -0.36151908517E+02  0.19391891607E+03  0.20646110379E+03  0.00000000000E+00 0.  1.
</event>
<event>
12    1  0.8493057E-002  0.3507321E+03  0.7818608E-02  0.1062326E+00
         21   -1    0    0  501  502  0.00000000000E+00  0.00000000000E+00  0.14740477344E+03  0.14740477344E+03  0.00000000000E+00 0.  1.
         21   -1    0    0  502  503 -0.00000000000E+00 -0.00000000000E+00 -0.16873475260E+04  0.16873475260E+04  0.00000000000E+00 0.  1.
         -6    2    1    2    0  503 -0.27270558310E+03  0.13806388320E+03 -0.14223117599E+04  0.14649176619E+04  0.17199721747E+03 0.  0.
        -24    2    3    3    0    0 -0.48055155037E+02  0.62057753833E+02 -0.50642751514E+03  0.51881471487E+03  0.80866665173E+02 0.  0.
          6    2    1    2  501    0  0.27270558310E+03 -0.13806388320E+03 -0.11763099264E+03  0.36983463755E+03  0.17178660543E+03 0.  0.
         24    2    5    5    0    0  0.22813977481E+03 -0.16961475079E+03 -0.89946404506E+02  0.30843353875E+03  0.78892151748E+02 0.  0.
          5    1    5    5  501    0  0.44565808292E+02  0.31550867582E+02 -0.27684588137E+02  0.61401098803E+02  0.47000000000E+01 0. -1.
        -13    1    6    6    0    0  0.49211378616E+02 -0.39559718317E+02 -0.56480274524E+02  0.84715715832E+02  0.00000000000E+00 0.  1.
         14    1    6    6    0    0  0.17892839619E+03 -0.13005503247E+03 -0.33466129982E+02  0.22371782292E+03  0.00000000000E+00 0. -1.
         -5    1    3    3    0  503 -0.22465042806E+03  0.76006129371E+02 -0.91588424477E+03  0.94610294701E+03  0.47000000000E+01 0.  1.
         13    1    4    4    0    0 -0.43683009327E+02  0.21977873057E+02 -0.42650045682E+03  0.42929462130E+03  0.00000000000E+00 0. -1.
        -14    1    4    4    0    0 -0.43721457106E+01  0.40079880776E+02 -0.79927058324E+02  0.89520093573E+02  0.00000000000E+00 0.  1.
</event>
<event>
12    1  0.8493057E-002  0.2603794E+03  0.7818608E-02  0.1107054E+00
         21   -1    0    0  503  502  0.00000000000E+00  0.00000000000E+00  0.88557903357E+03  0.88557903357E+03  0.00000000000E+00 0.  1.
         21   -1    0    0  501  503 -0.00000000000E+00 -0.00000000000E+00 -0.80225020279E+02  0.80225020279E+02  0.00000000000E+00 0.  1.
          6    2    1    2  501    0  0.62453467295E+02  0.18524980811E+03  0.50899978435E+03  0.57131291231E+03  0.17058644825E+03 0.  0.
         24    2    3    3    0    0  0.15207547611E+02  0.93975025674E+01  0.20388578558E+03  0.21596399571E+03  0.68930771938E+02 0.  0.
         -6    2    1    2    0  502 -0.62453467295E+02 -0.18524980811E+03  0.29635422894E+03  0.39449114154E+03  0.17198693194E+03 0.  0.
        -24    2    5    5    0    0 -0.27918732947E+02 -0.62342056010E+02  0.22675446950E+03  0.24900856555E+03  0.76952509256E+02 0.  0.
          5    1    3    3  501    0  0.47245919684E+02  0.17585230554E+03  0.30511399877E+03  0.35534891661E+03  0.47000000000E+01 0. -1.
        -11    1    4    4    0    0  0.27979125695E+02  0.32638969648E+02  0.10212794945E+03  0.11080727356E+03  0.00000000000E+00 0.  1.
         12    1    4    4    0    0 -0.12771578083E+02 -0.23241467080E+02  0.10175783613E+03  0.10515672215E+03  0.00000000000E+00 0. -1.
         -5    1    5    5    0  502 -0.34534734348E+02 -0.12290775210E+03  0.69599759439E+02  0.14548257599E+03  0.47000000000E+01 0.  1.
         11    1    6    6    0    0 -0.46514923417E+01 -0.39859897202E+02  0.20752819900E+03  0.21137265945E+03  0.00000000000E+00 0. -1.
        -12    1    6    6    0    0 -0.23267240605E+02 -0.22482158807E+02  0.19226270504E+02  0.37635906094E+02  0.00000000000E+00 0.  1.
</event>
<event>
12    1  0.8493057E-002  0.2661514E+03  0.7818608E-02  0.1103543E+00
         21   -1    0    0  503  502  0.00000000000E+00  0.00000000000E+00  0.21295539110E+03  0.21295539110E+03  0.00000000000E+00 0. -1.
         21   -1    0    0  501  503 -0.00000000000E+00 -0.00000000000E+00 -0.33232465584E+03  0.33232465584E+03  0.00000000000E+00 0.  1.
          6    2    1    2  501    0  0.20780481372E+02  0.20159783817E+03 -0.62460898204E+02  0.27311256438E+03  0.17209181345E+03 0.  0.
         24    2    3    3    0    0 -0.14357442308E+02  0.20961771784E+03 -0.71516717288E+02  0.23565472128E+03  0.79200902963E+02 0.  0.
         -6    2    1    2    0  502 -0.20780481372E+02 -0.20159783817E+03 -0.56908366536E+02  0.27216748255E+03  0.17251973688E+03 0.  0.
        -24    2    5    5    0    0 -0.14704634628E+02 -0.13513946557E+03 -0.10518181434E+03  0.18966871307E+03  0.80200406574E+02 0.  0.
          5    1    3    3  501    0  0.35137923679E+02 -0.80198796668E+01  0.90558190840E+01  0.37457843099E+02  0.47000000000E+01 0. -1.
        -11    1    4    4    0    0 -0.28902934460E+02  0.75776602965E+02 -0.59307340097E+02  0.10047304995E+03  0.00000000000E+00 0.  1.
         12    1    4    4    0    0  0.14545492153E+02  0.13384111487E+03 -0.12209377191E+02  0.13518167133E+03  0.00000000000E+00 0. -1.
         -5    1    5    5    0  502 -0.60758467441E+01 -0.66458372599E+02  0.48273447807E+02  0.82498769478E+02  0.47000000000E+01 0.  1.
         13    1    6    6    0    0  0.10354208934E+01 -0.53809996991E+01  0.12588090162E+02  0.13729066542E+02  0.00000000000E+00 0. -1.
        -14    1    6    6    0    0 -0.15740055521E+02 -0.12975846587E+03 -0.11776990450E+03  0.17593964653E+03  0.00000000000E+00 0.  1.
</event>
<event>
12    1  0.8493057E-002  0.1780438E+03  0.7818608E-02  0.1169796E+00
         21   -1    0    0  503  502  0.00000000000E+00  0.00000000000E+00  0.55762473090E+02  0.55762473090E+02  0.00000000000E+00 0.  1.
         21   -1    0    0  501  503 -0.00000000000E+00 -0.00000000000E+00 -0.60846452787E+03  0.60846452787E+03  0.00000000000E+00 0.  1.
          6    2    1    2  501    0 -0.62889696055E+01 -0.44239128281E+02 -0.36293418495E+03  0.40425342310E+03  0.17234545503E+03 0.  0.
         24    2    3    3    0    0 -0.35230799247E+02 -0.88799344568E+02 -0.23676319089E+03  0.26727002220E+03  0.79056457011E+02 0.  0.
         -6    2    1    2    0  502  0.62889696055E+01  0.44239128281E+02 -0.18976786983E+03  0.25997357787E+03  0.17198187451E+03 0.  0.
        -24    2    5    5    0    0  0.52053906442E+02  0.13773565019E+02 -0.17847355806E+03  0.20365101164E+03  0.81985384943E+02 0.  0.
          5    1    3    3  501    0  0.28941829641E+02  0.44560216287E+02 -0.12617099406E+03  0.13698340089E+03  0.47000000000E+01 0. -1.
        -11    1    4    4    0    0 -0.19390869970E+02  0.14009379305E+01 -0.10513459862E+03  0.10691703462E+03  0.00000000000E+00 0.  1.
         12    1    4    4    0    0 -0.15839929277E+02 -0.90200282498E+02 -0.13162859227E+03  0.16035298758E+03  0.00000000000E+00 0. -1.
         -5    1    5    5    0  502 -0.45764936837E+02  0.30465563262E+02 -0.11294311771E+02  0.56322566231E+02  0.47000000000E+01 0.  1.
         11    1    6    6    0    0 -0.35963556857E+01  0.23895903642E+02 -0.11956759073E+03  0.12198506769E+03  0.00000000000E+00 0. -1.
        -12    1    6    6    0    0  0.55650262128E+02 -0.10122338623E+02 -0.58905967326E+02  0.81665943947E+02  0.00000000000E+00 0.  1.
</event>
<event>
12    1  0.8493057E-002  0.1810410E+03  0.7818608E-02  0.1167433E+00
         21   -1    0    0  503  502  0.00000000000E+00  0.00000000000E+00  0.11883245581E+03  0.11883245581E+03  0.00000000000E+00 0. -1.
         21   -1    0    0  501  503 -0.00000000000E+00 -0.00000000000E+00 -0.27908622766E+03  0.27908622766E+03  0.00000000000E+00 0. -1.
          6    2    1    2  501    0  0.57013413374E+02  0.15201080228E+02 -0.47502692599E+02  0.18463800428E+03  0.16838374232E+03 0.  0.
         24    2    3    3    0    0 -0.43003514327E+01 -0.29308125795E+02 -0.50219631955E+01  0.97648639724E+02  0.92911664851E+02 0.  0.
         -6    2    1    2    0  502 -0.57013413374E+02 -0.15201080228E+02 -0.11275107925E+03  0.21328067919E+03  0.17115560201E+03 0.  0.
        -24    2    5    5    0    0 -0.47820052628E-01 -0.90852279506E+01 -0.13035538619E+03  0.15316009956E+03  0.79893339749E+02 0.  0.
          5    1    3    3  501    0  0.61313764807E+02  0.44509206023E+02 -0.42480729403E+02  0.86989364558E+02  0.47000000000E+01 0. -1.
        -11    1    4    4    0    0  0.13047194178E+02 -0.49874896134E+02 -0.31076264617E+02  0.60195255318E+02  0.00000000000E+00 0.  1.
         12    1    4    4    0    0 -0.17347545611E+02  0.20566770338E+02  0.26054301422E+02  0.37453384406E+02  0.00000000000E+00 0. -1.
         -5    1    5    5    0  502 -0.56965593321E+02 -0.61158522771E+01  0.17604306944E+02  0.60120579626E+02  0.47000000000E+01 0.  1.
         13    1    6    6    0    0 -0.28790948216E+02 -0.30854130240E+02 -0.87569499725E+02  0.97207578584E+02  0.00000000000E+00 0. -1.
        -14    1    6    6    0    0  0.28743128163E+02  0.21768902290E+02 -0.42785886464E+02  0.55952520980E+02  0.00000000000E+00 0.  1.
</event>
<event>
12    1  0.8493057E-002  0.1932547E+03  0.7818608E-02  0.1155696E+00
         21   -1    0    0  503  502  0.00000000000E+00  0.00000000000E+00  0.41774263126E+02  0.41774263126E+02  0.00000000000E+00 0.  1.
         21   -1    0    0  501  503 -0.00000000000E+00 -0.00000000000E+00 -0.10628361171E+04  0.10628361171E+04  0.00000000000E+00 0.  1.
          6    2    1    2  501    0  0.87314336132E+02 -0.19782886926E+01 -0.73320577303E+03  0.75824671516E+03  0.17239393411E+03 0.  0.
         24    2    3    3    0    0  0.12749239075E+03  0.62312363888E+00 -0.61153078182E+03  0.62999720481E+03  0.81681595043E+02 0.  0.
         -6    2    1    2    0  502 -0.87314336132E+02  0.19782886926E+01 -0.28785608089E+03  0.34636366502E+03  0.17169437445E+03 0.  0.
        -24    2    5    5    0    0 -0.69092302077E+02 -0.11153481593E+02 -0.65043484518E+02  0.12237252899E+03  0.76460673654E+02 0.  0.
          5    1    3    3  501    0 -0.40178054614E+02 -0.26014123315E+01 -0.12167499121E+03  0.12824951035E+03  0.47000000000E+01 0. -1.
        -13    1    4    4    0    0 -0.60053312089E+01  0.84265835852E+01 -0.12487114600E+03  0.12529913974E+03  0.00000000000E+00 0.  1.
         14    1    4    4    0    0  0.13349772195E+03 -0.78034599463E+01 -0.48665963582E+03  0.50469806507E+03  0.00000000000E+00 0. -1.
         -5    1    5    5    0  502 -0.18222034054E+02  0.13131770286E+02 -0.22281259638E+03  0.22399113603E+03  0.47000000000E+01 0.  1.
         11    1    6    6    0    0 -0.33943389597E+02  0.81470315737E+01 -0.73520765255E+02  0.81386919984E+02  0.00000000000E+00 0. -1.
        -12    1    6    6    0    0 -0.35148912480E+02 -0.19300513167E+02  0.84772807373E+01  0.40985609008E+02  0.00000000000E+00 0.  1.
</event>
<event>
12    1  0.8493057E-002  0.1865534E+03  0.7818608E-02  0.1161830E+00
         21   -1    0    0  503  502  0.00000000000E+00  0.00000000000E+00  0.49497437198E+02  0.49497437198E+02  0.00000000000E+00 0. -1.
         21   -1    0    0  501  503 -0.00000000000E+00 -0.00000000000E+00 -0.81540049723E+03  0.81540049723E+03  0.00000000000E+00 0. -1.
          6    2    1    2  501    0 -0.55647108201E+02 -0.45760094672E+02 -0.54685384392E+03  0.57779867994E+03  0.17208021679E+03 0.  0.
         24    2    3    3    0    0 -0.38952815307E+02 -0.70343321908E+02 -0.53373190478E+03  0.54497628265E+03  0.75258871376E+02 0.  0.
         -6    2    1    2    0  502  0.55647108201E+02  0.45760094672E+02 -0.21904921611E+03  0.28709925449E+03  0.17103460450E+03 0.  0.
        -24    2    5    5    0    0 -0.15865971825E+02  0.81321544885E+00 -0.17258858278E+03  0.19058488760E+03  0.79267837706E+02 0.  0.
          5    1    3    3  501    0 -0.16694292894E+02  0.24583227236E+02 -0.13121939146E+02  0.32822397285E+02  0.47000000000E+01 0. -1.
        -13    1    4    4    0    0 -0.30670670691E+02  0.29424044464E+01 -0.89290707684E+02  0.94457282743E+02  0.00000000000E+00 0.  1.
         14    1    4    4    0    0 -0.82821446164E+01 -0.73285726354E+02 -0.44444119709E+03  0.45051899991E+03  0.00000000000E+00 0. -1.
         -5    1    5    5    0  502  0.71513080026E+02  0.44946879223E+02 -0.46460633331E+02  0.96514366890E+02  0.47000000000E+01 0.  1.
         11    1    6    6    0    0 -0.34434366193E+01  0.39783557165E+02 -0.86716985332E+02  0.95469493669E+02  0.00000000000E+00 0. -1.
        -12    1    6    6    0    0 -0.12422535206E+02 -0.38970341717E+02 -0.85871597446E+02  0.95115393929E+02  0.00000000000E+00 0.  1.
</event>
<event>
12    1  0.8493057E-002  0.1797294E+03  0.7818608E-02  0.1168303E+00
         21   -1    0    0  501  502  0.00000000000E+00  0.00000000000E+00  0.21131158385E+03  0.21131158385E+03  0.00000000000E+00 0.  1.
         21   -1    0    0  502  503 -0.00000000000E+00 -0.00000000000E+00 -0.15315344990E+03  0.15315344990E+03  0.00000000000E+00 0.  1.
         -6    2    1    2    0  503 -0.48366553907E+02  0.24371561955E+02  0.13428973602E+02  0.17925337683E+03  0.17034711387E+03 0.  0.
        -24    2    3    3    0    0  0.28141741458E+02  0.47338862882E+01 -0.26579768972E+02  0.90585755643E+02  0.81761407248E+02 0.  0.
          6    2    1    2  501    0  0.48366553907E+02 -0.24371561955E+02  0.44729160352E+02  0.18521165692E+03  0.17137492087E+03 0.  0.
         24    2    5    5    0    0  0.83027095500E+02 -0.56147396040E+02  0.11007652331E+02  0.12715748499E+03  0.77471471580E+02 0.  0.
          5    1    5    5  501    0 -0.34660541592E+02  0.31775834084E+02  0.33721508021E+02  0.58054171930E+02  0.47000000000E+01 0. -1.
        -13    1    6    6    0    0  0.43272226416E+02  0.14481263150E+02  0.37764952210E+01  0.45787055786E+02  0.00000000000E+00 0.  1.
         14    1    6    6    0    0  0.39754869084E+02 -0.70628659190E+02  0.72311571097E+01  0.81370429199E+02  0.00000000000E+00 0. -1.
         -5    1    3    3    0  503 -0.76508295365E+02  0.19637675667E+02  0.40008742574E+02  0.88667621191E+02  0.47000000000E+01 0.  1.
         13    1    4    4    0    0  0.69642609789E+01  0.36067692087E+02 -0.36188095903E+02  0.51565081485E+02  0.00000000000E+00 0. -1.
        -14    1    4    4    0    0  0.21177480479E+02 -0.31333805799E+02  0.96083269312E+01  0.39020674157E+02  0.00000000000E+00 0.  1.
</event>
<event>
12    1  0.8493057E-002  0.1804221E+03  0.7818608E-02  0.1167451E+00
         21   -1    0    0  503  502  0.00000000000E+00  0.00000000000E+00  0.52924499218E+03  0.52924499218E+03  0.00000000000E+00 0. -1.
         21   -1    0    0  501  503 -0.00000000000E+00 -0.00000000000E+00 -0.71529027698E+02  0.71529027698E+02  0.00000000000E+00 0. -1.
          6    2    1    2  501    0 -0.16995639399E+02  0.52747633740E+02  0.11609918434E+03  0.21454874676E+03  0.17170026065E+03 0.  0.
         24    2    3    3    0    0  0.25736650988E+02 -0.22019139046E+02  0.90130595157E+02  0.12447890398E+03  0.78893952010E+02 0.  0.
         -6    2    1    2    0  502  0.16995639399E+02 -0.52747633740E+02  0.34161678014E+03  0.38622527312E+03  0.17145487014E+03 0.  0.
        -24    2    5    5    0    0  0.51692808975E+02 -0.44061496031E+02  0.33191219884E+03  0.34886738957E+03  0.83241731334E+02 0.  0.
          5    1    3    3  501    0 -0.42732290387E+02  0.74766772785E+02  0.25968589180E+02  0.90069842780E+02  0.47000000000E+01 0. -1.
        -11    1    4    4    0    0  0.25946446986E+02  0.26329060315E+02  0.46057043125E+02  0.59056657116E+02  0.00000000000E+00 0.  1.
         12    1    4    4    0    0 -0.20979599836E+00 -0.48348199361E+02  0.44073552032E+02  0.65422246862E+02  0.00000000000E+00 0. -1.
         -5    1    5    5    0  502 -0.34697169576E+02 -0.86861377086E+01  0.97045813042E+01  0.37357883548E+02  0.47000000000E+01 0.  1.
         11    1    6    6    0    0  0.49504972887E+02 -0.38921726627E+02  0.10898685000E+03  0.12587206448E+03  0.00000000000E+00 0. -1.
        -12    1    6    6    0    0  0.21878360880E+01 -0.51397694040E+01  0.22292534884E+03  0.22299532509E+03  0.00000000000E+00 0.  1.
</event>
<event>
12    1  0.8493057E-002  0.1805895E+03  0.7818608E-02  0.1168032E+00
         21   -1    0    0  501  502  0.00000000000E+00  0.00000000000E+00  0.20202348239E+04  0.20202348239E+04  0.00000000000E+00 0. -1.
         21   -1    0    0  502  503 -0.00000000000E+00 -0.00000000000E+00 -0.19052567470E+02  0.19052567470E+02  0.00000000000E+00 0. -1.
         -6    2    1    2    0  503 -0.14155791430E+02  0.54984061597E+02  0.59025740579E+03  0.61726522683E+03  0.17143197399E+03 0.  0.
        -24    2    3    3    0    0  0.17040834527E+02  0.62202063752E+02  0.19477098391E+03  0.22045679835E+03  0.80659636668E+02 0.  0.
          6    2    1    2  501    0  0.14155791430E+02 -0.54984061597E+02  0.14109248507E+04  0.14220221646E+04  0.16797163100E+03 0.  0.
         24    2    5    5    0    0  0.69296940545E+02 -0.23448793267E+02  0.10305585017E+04  0.10363595284E+04  0.81475977394E+02 0.  0.
          5    1    5    5  501    0 -0.55141149115E+02 -0.31535268330E+02  0.38036634903E+03  0.38566263619E+03  0.47000000000E+01 0. -1.
        -11    1    6    6    0    0  0.41729962348E+02 -0.42308102460E+01  0.16835093900E+03  0.17349734343E+03  0.00000000000E+00 0.  1.
         12    1    6    6    0    0  0.27566978197E+02 -0.19217983021E+02  0.86220756265E+03  0.86286218497E+03  0.00000000000E+00 0. -1.
         -5    1    3    3    0  503 -0.31196625956E+02 -0.72180021545E+01  0.39548642187E+03  0.39680842848E+03  0.47000000000E+01 0.  1.
         11    1    4    4    0    0  0.25190109993E+02  0.70172900928E+02  0.19529761914E+03  0.20904530061E+03  0.00000000000E+00 0. -1.
        -12    1    4    4    0    0 -0.81492754659E+01 -0.79708371759E+01 -0.52663522890E+00  0.11411497736E+02  0.00000000000E+00 0.  1.
</event>
<event>
12    1  0.8493057E-002  0.2188066E+03  0.7818608E-02  0.1135686E+00
         21   -1    0    0  503  502  0.00000000000E+00  0.00000000000E+00  0.32583962801E+02  0.32583962801E+02  0.00000000000E+00 0.  1.
         21   -1    0    0  501  503 -0.00000000000E+00 -0.00000000000E+00 -0.17442834396E+04  0.17442834396E+04  0.00000000000E+00 0.  1.
          6    2    1    2  501    0 -0.18333217241E+02  0.12901775375E+03 -0.12207285280E+04  0.12393464325E+04  0.16976381557E+03 0.  0.
         24    2    3    3    0    0 -0.22675119420E+02  0.99863123225E+02 -0.46398148614E+03  0.48201095866E+03  0.81048999789E+02 0.  0.
         -6    2    1    2    0  502  0.18333217241E+02 -0.12901775375E+03 -0.49097094885E+03  0.53752096993E+03  0.17576869138E+03 0.  0.
        -24    2    5    5    0    0  0.61383664849E+02 -0.13903135878E+03 -0.42271451157E+03  0.45606764247E+03  0.78819180295E+02 0.  0.
          5    1    3    3  501    0  0.43419021784E+01  0.29154630526E+02 -0.75674704183E+03  0.75733547382E+03  0.47000000000E+01 0. -1.
        -11    1    4    4    0    0 -0.22778977022E+02 -0.37387100219E+01 -0.13933937624E+03  0.14123852703E+03  0.00000000000E+00 0.  1.
         12    1    4    4    0    0  0.10385760252E+00  0.10360183325E+03 -0.32464210991E+03  0.34077243163E+03  0.00000000000E+00 0. -1.
         -5    1    5    5    0  502 -0.43050447608E+02  0.10013605030E+02 -0.68256437282E+02  0.81453327467E+02  0.47000000000E+01 0.  1.
         11    1    6    6    0    0  0.90959195340E+00 -0.27406073372E+02 -0.18077008131E+03  0.18283802261E+03  0.00000000000E+00 0. -1.
        -12    1    6    6    0    0  0.60474072896E+02 -0.11162528541E+03 -0.24194443025E+03  0.27322961986E+03  0.00000000000E+00 0.  1.
</event>
<event>
12    1  0.8493057E-002  0.1889116E+03  0.7818608E-02  0.1159775E+00
         21   -1    0    0  503  502  0.00000000000E+00  0.00000000000E+00  0.52070222557E+03  0.52070222557E+03  0.00000000000E+00 0. -1.
         21   -1    0    0  501  503 -0.00000000000E+00 -0.00000000000E+00 -0.21948504376E+03  0.21948504376E+03  0.00000000000E+00 0. -1.
          6    2    1    2  501    0 -0.73571285934E+02 -0.10308683036E+02 -0.15666011205E+03  0.24541798831E+03  0.17369109136E+03 0.  0.
         24    2    3    3    0    0 -0.91093629106E+02 -0.19773044212E+02 -0.40716053040E+02  0.12768217616E+03  0.77174598101E+02 0.  0.
         -6    2    1    2    0  502  0.73571285934E+02  0.10308683036E+02  0.45787729386E+03  0.49476928103E+03  0.17212211410E+03 0.  0.
        -24    2    5    5    0    0  0.10287131435E+03 -0.48071047327E+01  0.43289212642E+03  0.45313603354E+03  0.85621587257E+02 0.  0.
          5    1    3    3  501    0  0.17522343172E+02  0.94643611755E+01 -0.11594405901E+03  0.11773581215E+03  0.47000000000E+01 0. -1.
        -11    1    4    4    0    0 -0.57213516908E+02  0.19058121335E+02  0.26026103250E+01  0.60360351940E+02  0.00000000000E+00 0.  1.
         12    1    4    4    0    0 -0.33880112199E+02 -0.38831165547E+02 -0.43318663365E+02  0.67321824218E+02  0.00000000000E+00 0. -1.
         -5    1    5    5    0  502 -0.29300028411E+02  0.15115787769E+02  0.24985167437E+02  0.41633247490E+02  0.47000000000E+01 0.  1.
         11    1    6    6    0    0  0.43038003122E+01 -0.11062406430E+02  0.19759166058E+03  0.19794788169E+03  0.00000000000E+00 0. -1.
        -12    1    6    6    0    0  0.98567514033E+02  0.62553016969E+01  0.23530046584E+03  0.25518815186E+03  0.00000000000E+00 0.  1.
</event>
<event>
12    1  0.8493057E-002  0.2184421E+03  0.7818608E-02  0.1135097E+00
         21   -1    0    0  501  502  0.00000000000E+00  0.00000000000E+00  0.63598547053E+02  0.63598547053E+02  0.00000000000E+00 0.  1.
         21   -1    0    0  502  503 -0.00000000000E+00 -0.00000000000E+00 -0.75162254522E+03  0.75162254522E+03  0.00000000000E+00 0.  1.
         -6    2    1    2    0  503 -0.95316412887E+02 -0.94860587755E+02 -0.32214036527E+03  0.38921893815E+03  0.17214301382E+03 0.  0.
        -24    2    3    3    0    0 -0.88898268071E+02  0.41881588336E+01 -0.17032426213E+03  0.20777455010E+03  0.78990294719E+02 0.  0.
          6    2    1    2  501    0  0.95316412887E+02  0.94860587755E+02 -0.36588363290E+03  0.42600215412E+03  0.17182331860E+03 0.  0.
         24    2    5    5    0    0 -0.15071378353E+02  0.22223328700E+02 -0.14114789115E+03  0.16525346385E+03  0.81639190063E+02 0.  0.
          5    1    5    5  501    0  0.11038779124E+03  0.72637259055E+02 -0.22473574175E+03  0.26074869027E+03  0.47000000000E+01 0. -1.
        -11    1    6    6    0    0  0.30542124208E+01  0.41841972506E+02 -0.12947816932E+03  0.13610538273E+03  0.00000000000E+00 0.  1.
         12    1    6    6    0    0 -0.18125590774E+02 -0.19618643806E+02 -0.11669721834E+02  0.29148081126E+02  0.00000000000E+00 0. -1.
         -5    1    3    3    0  503 -0.64181448163E+01 -0.99048746588E+02 -0.15181610314E+03  0.18144438805E+03  0.47000000000E+01 0.  1.
         13    1    4    4    0    0 -0.99320183540E+02  0.15682918037E+02 -0.16054541341E+03  0.18943411136E+03  0.00000000000E+00 0. -1.
        -14    1    4    4    0    0  0.10421915470E+02 -0.11494759203E+02 -0.97788487123E+01  0.18340438744E+02  0.00000000000E+00 0.  1.
</event>
<event>
12    1  0.8493057E-002  0.1874883E+03  0.7818608E-02  0.1164142E+00
         21   -1    0    0  503  502  0.00000000000E+00  0.00000000000E+00  0.22153388771E+04  0.22153388771E+04  0.00000000000E+00 0.  1.
         21   -1    0    0  501  503 -0.00000000000E+00 -0.00000000000E+00 -0.22031293457E+02  0.22031293457E+02  0.00000000000E+00 0. -1.
          6    2    1    2  501    0 -0.49149935496E+00 -0.74968140415E+02  0.42242035352E+03  0.45658566998E+03  0.15624037671E+03 0.  0.
         24    2    3    3    0    0  0.38566824455E+02 -0.90388609315E+02  0.35553561502E+03  0.37747181680E+03  0.80136747447E+02 0.  0.
         -6    2    1    2    0  502  0.49149935496E+00  0.74968140415E+02  0.17708872301E+04  0.17807845006E+04  0.17184700183E+03 0.  0.
        -24    2    5    5    0    0 -0.57901437777E+02  0.48399352944E+02  0.14034256615E+04  0.14077352679E+04  0.80124423971E+02 0.  0.
          5    1    3    3  501    0 -0.39058323810E+02  0.15420468900E+02  0.66884738501E+02  0.79113853176E+02  0.47000000000E+01 0. -1.
        -13    1    4    4    0    0  0.16303457109E+02  0.12059855039E+02  0.37940841580E+02  0.43020347244E+02  0.00000000000E+00 0.  1.
         14    1    4    4    0    0  0.22263367347E+02 -0.10244846435E+03  0.31759477344E+03  0.33445146956E+03  0.00000000000E+00 0. -1.
         -5    1    5    5    0  502  0.58392937132E+02  0.26568787471E+02  0.36746156857E+03  0.37304923261E+03  0.47000000000E+01 0.  1.
         11    1    6    6    0    0 -0.25550961606E+02  0.67182972413E+02  0.99945368268E+03  0.10020349631E+04  0.00000000000E+00 0. -1.
        -12    1    6    6    0    0 -0.32350476171E+02 -0.18783619469E+02  0.40397197885E+03  0.40570030486E+03  0.00000000000E+00 0.  1.
</event>
<event>
12    1  0.8493057E-002  0.2107533E+03  0.7818608E-02  0.1141213E+00
         21   -1    0    0  503  502  0.00000000000E+00  0.00000000000E+00  0.21199985403E+03  0.21199985403E+03  0.00000000000E+00 0. -1.
         21   -1    0    0  501  503 -0.00000000000E+00 -0.00000000000E+00 -0.21592104109E+03  0.21592104109E+03  0.00000000000E+00 0. -1.
          6    2    1    2  501    0 -0.67981617444E+02  0.98986358364E+02 -0.42166658483E+02  0.21493015962E+03  0.17319684458E+03 0.  0.
         24    2    3    3    0    0 -0.81757880911E+02  0.13160503214E+03 -0.43223634271E+02  0.17919543544E+03  0.78984086672E+02 0.  0.
         -6    2    1    2    0  502  0.67981617444E+02 -0.98986358364E+02  0.38245471425E+02  0.21299073551E+03  0.17170479864E+03 0.  0.
        -24    2    5    5    0    0 -0.18058779854E+02 -0.29742649065E+02  0.52116924852E+02  0.10158091339E+03  0.79948504712E+02 0.  0.
          5    1    3    3  501    0  0.13776263467E+02 -0.32618673778E+02  0.10569757885E+01  0.35734724177E+02  0.47000000000E+01 0. -1.
        -11    1    4    4    0    0 -0.13897538341E+02 -0.59748191554E+01  0.84416519410E+01  0.17323438555E+02  0.00000000000E+00 0.  1.
         12    1    4    4    0    0 -0.67860342570E+02  0.13757985130E+03 -0.51665286212E+02  0.16187199689E+03  0.00000000000E+00 0. -1.
         -5    1    5    5    0  502  0.86040397297E+02 -0.69243709299E+02 -0.13871453427E+02  0.11140982212E+03  0.47000000000E+01 0.  1.
         11    1    6    6    0    0 -0.73672262899E+01 -0.46362965985E+02  0.11962866384E+01  0.46959895015E+02  0.00000000000E+00 0. -1.
        -12    1    6    6    0    0 -0.10691553564E+02  0.16620316919E+02  0.50920638214E+02  0.54621018374E+02  0.00000000000E+00 0.  1.
</event>
<event>
12    1  0.8493057E-002  0.1915376E+03  0.7818608E-02  0.1157461E+00
         21   -1    0    0  503  502  0.00000000000E+00  0.00000000000E+00  0.74018895721E+02  0.74018895721E+02  0.00000000000E+00 0. -1.
         21   -1    0    0  501  503 -0.00000000000E+00 -0.00000000000E+00 -0.63363348155E+03  0.63363348155E+03  0.00000000000E+00 0. -1.
          6    2    1    2  501    0  0.74486667639E+02  0.29835460099E+02 -0.44848322125E+03  0.48767188866E+03  0.17392024871E+03 0.  0.
         24    2    3    3    0    0  0.11560549497E+03  0.20318445862E+02 -0.29286099654E+03  0.32635946402E+03  0.83459371838E+02 0.  0.
         -6    2    1    2    0  502 -0.74486667639E+02 -0.29835460099E+02 -0.11113136459E+03  0.21998048862E+03  0.17205469143E+03 0.  0.
        -24    2    5    5    0    0 -0.38030519509E+02 -0.82847329228E+02 -0.40355350131E+02  0.12421701318E+03  0.74103385249E+02 0.  0.
          5    1    3    3  501    0 -0.41118827335E+02  0.95170142372E+01 -0.15562222470E+03  0.16131242464E+03  0.47000000000E+01 0. -1.
        -11    1    4    4    0    0  0.24579426585E+01  0.12732443808E+02 -0.72780291120E+00  0.12987929185E+02  0.00000000000E+00 0.  1.
         12    1    4    4    0    0  0.11314755232E+03  0.75860020538E+01 -0.29213319363E+03  0.31337153483E+03  0.00000000000E+00 0. -1.
         -5    1    5    5    0  502 -0.36456148130E+02  0.53011869129E+02 -0.70776014455E+02  0.95763475434E+02  0.47000000000E+01 0.  1.
         13    1    6    6    0    0  0.17408627906E+02 -0.47938174836E+00 -0.10961701228E+01  0.17449691154E+02  0.00000000000E+00 0. -1.
        -14    1    6    6    0    0 -0.55439147415E+02 -0.82367947480E+02 -0.39259180008E+02  0.10676732203E+03  0.00000000000E+00 0.  1.
</event>
<event>
12    1  0.8493057E-002  0.1755157E+03  0.7818608E-02  0.1172771E+00
         21   -1    0    0  503  502  0.00000000000E+00  0.00000000000E+00  0.16330931514E+04  0.16330931514E+04  0.00000000000E+00 0. -1.
         21   -1    0    0  501  503 -0.00000000000E+00 -0.00000000000E+00 -0.66368828903E+02  0.66368828903E+02  0.00000000000E+00 0. -1.
          6    2    1    2  501    0  0.19085581959E+02  0.51284347392E+01  0.64066520503E+02  0.18684291946E+03  0.17439953332E+03 0.  0.
         24    2    3    3    0    0  0.84801686489E+01 -0.18929300025E+01  0.11038514547E+03  0.13858031103E+03  0.83331421568E+02 0.  0.
         -6    2    1    2    0  502 -0.19085581959E+02 -0.51284347392E+01  0.15026578019E+04  0.15126190608E+04  0.17217837563E+03 0.  0.
        -24    2    5    5    0    0 -0.65700967800E+02  0.18256196441E+02  0.12604131725E+04  0.12647796255E+04  0.79851298548E+02 0.  0.
          5    1    3    3  501    0  0.10605413310E+02  0.70213647417E+01 -0.46318624966E+02  0.48262608436E+02  0.47000000000E+01 0. -1.
        -11    1    4    4    0    0  0.20032394017E+02 -0.18677825991E+02  0.10992107060E+01  0.27411060869E+02  0.00000000000E+00 0.  1.
         12    1    4    4    0    0 -0.11552225368E+02  0.16784895988E+02  0.10928593476E+03  0.11116925016E+03  0.00000000000E+00 0. -1.
         -5    1    5    5    0  502  0.46615385841E+02 -0.23384631180E+02  0.24224462948E+03  0.24783943529E+03  0.47000000000E+01 0.  1.
         13    1    6    6    0    0 -0.49627550988E+02  0.48341685499E+02  0.94213820048E+03  0.94468206354E+03  0.00000000000E+00 0. -1.
        -14    1    6    6    0    0 -0.16073416812E+02 -0.30085489058E+02  0.31827497198E+03  0.32009756196E+03  0.00000000000E+00 0.  1.
</event>
<event>
12    1  0.8493057E-002  0.1811502E+03  0.7818608E-02  0.1166771E+00
         21   -1    0    0  503  502  0.00000000000E+00  0.00000000000E+00  0.14268878826E+04  0.14268878826E+04  0.00000000000E+00 0. -1.
         21   -1    0    0  501  503 -0.00000000000E+00 -0.00000000000E+00 -0.27907862820E+02  0.27907862820E+02  0.00000000000E+00 0. -1.
          6    2    1    2  501    0  0.24856701858E+02 -0.48920606122E+02  0.10053384043E+04  0.10214724165E+04  0.17230643984E+03 0.  0.
         24    2    3    3    0    0  0.78755377979E+02 -0.40214059699E+02  0.54222403441E+03  0.55512717870E+03  0.79622238588E+02 0.  0.
         -6    2    1    2    0  502 -0.24856701858E+02  0.48920606122E+02  0.39364161551E+03  0.43332332894E+03  0.17263923253E+03 0.  0.
        -24    2    5    5    0    0  0.27902073062E+02  0.12408920967E+02  0.97247705563E+02  0.13002804157E+03  0.80732077618E+02 0.  0.
          5    1    3    3  501    0 -0.53898676120E+02 -0.87065464222E+01  0.46311436985E+03  0.46634523778E+03  0.47000000000E+01 0. -1.
        -11    1    4    4    0    0  0.40588198419E+02 -0.61311916521E+02  0.38544644934E+03  0.39239714355E+03  0.00000000000E+00 0.  1.
         12    1    4    4    0    0  0.38167179560E+02  0.21097856822E+02  0.15677758507E+03  0.16273003515E+03  0.00000000000E+00 0. -1.
         -5    1    5    5    0  502 -0.52758774921E+02  0.36511685155E+02  0.29639390995E+03  0.30329528737E+03  0.47000000000E+01 0.  1.
         13    1    6    6    0    0 -0.80421479187E+01 -0.27257755906E+02  0.15662820036E+02  0.32449735464E+02  0.00000000000E+00 0. -1.
        -14    1    6    6    0    0  0.35944220981E+02  0.39666676873E+02  0.81584885526E+02  0.97578306105E+02  0.00000000000E+00 0.  1.
</event>
<event>
12    1  0.8493057E-002  0.2583098E+03  0.7818608E-02  0.1108281E+00
         21   -1    0    0  503  502  0.00000000000E+00  0.00000000000E+00  0.20777010238E+03  0.20777010238E+03  0.00000000000E+00 0. -1.
         21   -1    0    0  501  503 -0.00000000000E+00 -0.00000000000E+00 -0.33097279506E+03  0.33097279506E+03  0.00000000000E+00 0. -1.
          6    2    1    2  501    0  0.79065688143E+01 -0.19195111232E+03 -0.13043103470E+02  0.25863892848E+03  0.17267376589E+03 0.  0.
         24    2    3    3    0    0  0.98041836947E+01 -0.16896339440E+02  0.10319812859E+02  0.81959302296E+02  0.78925410300E+02 0.  0.
         -6    2    1    2    0  502 -0.79065688143E+01  0.19195111232E+03 -0.11015958920E+03  0.28010396896E+03  0.17150905219E+03 0.  0.
        -24    2    5    5    0    0 -0.35630532369E+02  0.87428805193E+02  0.31791544681E+01  0.12338354381E+03  0.79372923883E+02 0.  0.
          5    1    3    3  501    0 -0.18976148804E+01 -0.17505477288E+03 -0.23362916329E+02  0.17667962618E+03  0.47000000000E+01 0. -1.
        -13    1    4    4    0    0  0.12239957848E+02 -0.28326404374E+02 -0.28140684211E+02  0.41762421634E+02  0.00000000000E+00 0.  1.
         14    1    4    4    0    0 -0.24357741534E+01  0.11430064934E+02  0.38460497069E+02  0.40196880662E+02  0.00000000000E+00 0. -1.
         -5    1    5    5    0  502  0.27723963555E+02  0.10452230712E+03 -0.11333874367E+03  0.15672042515E+03  0.47000000000E+01 0.  1.
         11    1    6    6    0    0 -0.28158821841E+02  0.67148843089E+02  0.38203461297E+02  0.82227676793E+02  0.00000000000E+00 0. -1.
        -12    1    6    6    0    0 -0.74717105281E+01  0.20279962104E+02 -0.35024306829E+02  0.41155867018E+02  0.00000000000E+00 0.  1.
</event>
<event>
12    1  0.8493057E-002  0.1814266E+03  0.7818608E-02  0.1168450E+00
         21   -1    0    0  501  502  0.00000000000E+00  0.00000000000E+00  0.20682868660E+04  0.20682868660E+04  0.00000000000E+00 0.  1.
         21   -1    0    0  502  503 -0.00000000000E+00 -0.00000000000E+00 -0.17783870825E+02  0.17783870825E+02  0.00000000000E+00 0.  1.
         -6    2    1    2    0  503  0.82800037630E+01 -0.35131085106E+02  0.14023381512E+04  0.14129932569E+04  0.16939569743E+03 0.  0.
        -24    2    3    3    0    0  0.15939512535E+02  0.32997902704E+02  0.47624791347E+03  0.48435692046E+03  0.80290856705E+02 0.  0.
          6    2    1    2  501    0 -0.82800037630E+01  0.35131085106E+02  0.64816484403E+03  0.67307747992E+03  0.17780010498E+03 0.  0.
         24    2    5    5    0    0 -0.19562781232E+02  0.50782103897E+02  0.64595130240E+03  0.65309635825E+03  0.79499959746E+02 0.  0.
          5    1    5    5  501    0  0.11282777469E+02 -0.15651018792E+02  0.22135416312E+01  0.19981121670E+02  0.47000000000E+01 0. -1.
        -11    1    6    6    0    0  0.26224879844E+02  0.33538996584E+02  0.20076900282E+03  0.20523352823E+03  0.00000000000E+00 0.  1.
         12    1    6    6    0    0 -0.45787661077E+02  0.17243107313E+02  0.44518229957E+03  0.44786283002E+03  0.00000000000E+00 0. -1.
         -5    1    3    3    0  503 -0.76595087717E+01 -0.68128987810E+02  0.92609023768E+03  0.92863633645E+03  0.47000000000E+01 0.  1.
         13    1    4    4    0    0  0.37832472205E+02 -0.80950349068E+01  0.28005152807E+03  0.28271130843E+03  0.00000000000E+00 0. -1.
        -14    1    4    4    0    0 -0.21892959670E+02  0.41092937611E+02  0.19619638540E+03  0.20164561203E+03  0.00000000000E+00 0.  1.
</event>
<event>
12    1  0.8493057E-002  0.1860812E+03  0.7818608E-02  0.1162239E+00
         21   -1    0    0  503  502  0.00000000000E+00  0.00000000000E+00  0.58977235146E+02  0.58977235146E+02  0.00000000000E+00 0. -1.
         21   -1    0    0  501  503 -0.00000000000E+00 -0.00000000000E+00 -0.58447265512E+03  0.58447265512E+03  0.00000000000E+00 0. -1.
          6    2    1    2  501    0  0.37629674751E+02  0.59786411480E+02 -0.26331423926E+03  0.32242921454E+03  0.17215052243E+03 0.  0.
         24    2    3    3    0    0  0.81423514989E+02  0.34438289715E+02 -0.23753332048E+03  0.26544523878E+03  0.78887970332E+02 0.  0.
         -6    2    1    2    0  502 -0.37629674751E+02 -0.59786411480E+02 -0.26218118072E+03  0.32102067573E+03  0.17124513221E+03 0.  0.
        -24    2    5    5    0    0  0.42996415596E+02 -0.16571202994E+02 -0.15559801302E+03  0.18048533382E+03  0.78999478136E+02 0.  0.
          5    1    3    3  501    0 -0.43793840238E+02  0.25348121765E+02 -0.25780918781E+02  0.56983975757E+02  0.47000000000E+01 0. -1.
        -13    1    4    4    0    0  0.31012713883E+02 -0.62915226385E+01 -0.16571071880E+03  0.16870510960E+03  0.00000000000E+00 0.  1.
         14    1    4    4    0    0  0.50410801107E+02  0.40729812353E+02 -0.71822601675E+02  0.96740129181E+02  0.00000000000E+00 0. -1.
         -5    1    5    5    0  502 -0.80626090347E+02 -0.43215208485E+02 -0.10658316770E+03  0.14053534191E+03  0.47000000000E+01 0.  1.
         13    1    6    6    0    0  0.14959911268E+02 -0.33133598486E+02 -0.13950212815E+03  0.14416129180E+03  0.00000000000E+00 0. -1.
        -14    1    6    6    0    0  0.28036504329E+02  0.16562395492E+02 -0.16095884873E+02  0.36324042028E+02  0.00000000000E+00 0.  1.
</event>
<event>
12    1  0.8493057E-002  0.2706705E+03  0.7818608E-02  0.1100905E+00
         21   -1    0    0  501  502  0.00000000000E+00  0.00000000000E+00  0.12481182731E+04  0.12481182731E+04  0.00000000000E+00 0. -1.
         21   -1    0    0  502  503 -0.00000000000E+00 -0.00000000000E+00 -0.67801746000E+02  0.67801746000E+02  0.00000000000E+00 0.  1.
         -6    2    1    2    0  503 -0.18054851981E+03  0.10468790645E+03  0.34883137547E+03  0.44148874123E+03  0.17225462072E+03 0.  0.
        -24    2    3    3    0    0 -0.16343320395E+03  0.10266387979E+03  0.36311103918E+03  0.41861890266E+03  0.78370112427E+02 0.  0.
          6    2    1    2  501    0  0.18054851981E+03 -0.10468790645E+03  0.83148515162E+03  0.87443127786E+03  0.17235189751E+03 0.  0.
         24    2    5    5    0    0  0.13622046794E+03 -0.12759433759E+03  0.50703160676E+03  0.54612977993E+03  0.79626348684E+02 0.  0.
          5    1    5    5  501    0  0.44328051870E+02  0.22906431137E+02  0.32445354486E+03  0.32830149793E+03  0.47000000000E+01 0. -1.
        -13    1    6    6    0    0  0.93630743191E+02 -0.40234906364E+02  0.31204112606E+03  0.32826091469E+03  0.00000000000E+00 0.  1.
         14    1    6    6    0    0  0.42589724746E+02 -0.87359431224E+02  0.19499048070E+03  0.21786886524E+03  0.00000000000E+00 0. -1.
         -5    1    3    3    0  503 -0.17115315862E+02  0.20240266595E+01 -0.14279663706E+02  0.22869838576E+02  0.47000000000E+01 0.  1.
         13    1    4    4    0    0 -0.40729350803E+02  0.33176333694E+02  0.17996739153E+03  0.18747749504E+03  0.00000000000E+00 0. -1.
        -14    1    4    4    0    0 -0.12270385314E+03  0.69487546098E+02  0.18314364765E+03  0.23114140761E+03  0.00000000000E+00 0.  1.
</event>
<event>
12    1  0.8493057E-002  0.1834377E+03  0.7818608E-02  0.1164779E+00
         21   -1    0    0  503  502  0.00000000000E+00  0.00000000000E+00  0.24255276716E+03  0.24255276716E+03  0.00000000000E+00 0. -1.
         21   -1    0    0  501  503 -0.00000000000E+00 -0.00000000000E+00 -0.25895180161E+03  0.25895180161E+03  0.00000000000E+00 0. -1.
          6    2    1    2  501    0 -0.42164723296E+02 -0.42587878326E+02 -0.17966020239E+03  0.25676287558E+03  0.17337183936E+03 0.  0.
         24    2    3    3    0    0  0.42273978980E+00 -0.61032116750E+02 -0.18460261566E+03  0.20985446064E+03  0.78966264687E+02 0.  0.
         -6    2    1    2    0  502  0.42164723296E+02  0.42587878326E+02  0.16326116794E+03  0.24474169319E+03  0.17219958233E+03 0.  0.
        -24    2    5    5    0    0  0.58611090229E+02  0.30134129318E+02  0.18410830813E+03  0.21503862762E+03  0.89456227281E+02 0.  0.
          5    1    3    3  501    0 -0.42587463086E+02  0.18444238424E+02  0.49424132709E+01  0.46908414939E+02  0.47000000000E+01 0. -1.
        -11    1    4    4    0    0  0.33872889896E+01 -0.31059676827E+02 -0.10194669063E+02  0.32865004619E+02  0.00000000000E+00 0.  1.
         12    1    4    4    0    0 -0.29645491998E+01 -0.29972439923E+02 -0.17440794660E+03  0.17698945602E+03  0.00000000000E+00 0. -1.
         -5    1    5    5    0  502 -0.16446366933E+02  0.12453749009E+02 -0.20847140192E+02  0.29703065563E+02  0.47000000000E+01 0.  1.
         13    1    6    6    0    0  0.28521014930E+02 -0.27406520858E+02  0.10788236630E+03  0.11490505052E+03  0.00000000000E+00 0. -1.
        -14    1    6    6    0    0  0.30090075299E+02  0.57540650175E+02  0.76225941837E+02  0.10013357710E+03  0.00000000000E+00 0.  1.
</event>
<event>
12    1  0.8493057E-002  0.1955592E+03  0.7818608E-02  0.1153583E+00
         21   -1    0    0  503  502  0.00000000000E+00  0.00000000000E+00  0.47845280254E+02  0.47845280254E+02  0.00000000000E+00 0.  1.
         21   -1    0    0  501  503 -0.00000000000E+00 -0.00000000000E+00 -0.15670430596E+04  0.15670430596E+04  0.00000000000E+00 0. -1.
          6    2    1    2  501    0  0.32682188895E+02 -0.87582810140E+02 -0.13248637911E+04  0.13391908792E+04  0.17154961913E+03 0.  0.
         24    2    3    3    0    0  0.31171018709E+01 -0.65333232802E+02 -0.12609698571E+04  0.12652066723E+04  0.80154822467E+02 0.  0.
         -6    2    1    2    0  502 -0.32682188895E+02  0.87582810140E+02 -0.19433398825E+03  0.27569746067E+03  0.17176878857E+03 0.  0.
        -24    2    5    5    0    0 -0.46876681735E+02  0.68234788471E+02 -0.21525345552E+03  0.24351759615E+03  0.78187977791E+02 0.  0.
          5    1    3    3  501    0  0.29565087024E+02 -0.22249577338E+02 -0.63893934028E+02  0.73984206882E+02  0.47000000000E+01 0. -1.
        -13    1    4    4    0    0 -0.23826599601E+02  0.23754552553E+01 -0.54786996952E+03  0.54839297327E+03  0.00000000000E+00 0.  1.
         14    1    4    4    0    0  0.26943701472E+02 -0.67708688057E+02 -0.71309988754E+03  0.71681369902E+03  0.00000000000E+00 0. -1.
         -5    1    5    5    0  502  0.14194492840E+02  0.19348021669E+02  0.20919467275E+02  0.32179864521E+02  0.47000000000E+01 0.  1.
         13    1    6    6    0    0 -0.34859079005E+02  0.65843489511E+00 -0.12709630504E+03  0.13179172842E+03  0.00000000000E+00 0. -1.
        -14    1    6    6    0    0 -0.12017602730E+02  0.67576353576E+02 -0.88157150484E+02  0.11172586773E+03  0.00000000000E+00 0.  1.
</event>
<event>
12    1  0.8493057E-002  0.1931789E+03  0.7818608E-02  0.1155940E+00
         21   -1    0    0  503  502  0.00000000000E+00  0.00000000000E+00  0.21248890071E+03  0.21248890071E+03  0.00000000000E+00 0. -1.
         21   -1    0    0  501  503 -0.00000000000E+00 -0.00000000000E+00 -0.67073225875E+03  0.67073225875E+03  0.00000000000E+00 0. -1.
          6    2    1    2  501    0  0.85927796391E+02  0.18399465711E+02 -0.60881053963E+03  0.63829550413E+03  0.17043694113E+03 0.  0.
         24    2    3    3    0    0  0.66764943811E+02 -0.41099166379E+02 -0.50237646487E+03  0.51477382826E+03  0.80394543428E+02 0.  0.
         -6    2    1    2    0  502 -0.85927796391E+02 -0.18399465711E+02  0.15056718158E+03  0.24492565532E+03  0.17203480443E+03 0.  0.
        -24    2    5    5    0    0 -0.49013218384E+02 -0.53966812363E+02  0.29443263603E+02  0.11331708522E+03  0.81603576018E+02 0.  0.
          5    1    3    3  501    0  0.19162852579E+02  0.59498632090E+02 -0.10643407476E+03  0.12352167587E+03  0.47000000000E+01 0. -1.
        -13    1    4    4    0    0  0.90108064222E+01  0.12985186275E+02 -0.17902740817E+02  0.23881327930E+02  0.00000000000E+00 0.  1.
         14    1    4    4    0    0  0.57754137389E+02 -0.54084352654E+02 -0.48447372405E+03  0.49089250033E+03  0.00000000000E+00 0. -1.
         -5    1    5    5    0  502 -0.36914578007E+02  0.35567346653E+02  0.12112391798E+03  0.13160857010E+03  0.47000000000E+01 0.  1.
         11    1    6    6    0    0 -0.61098319158E+01 -0.63733519862E+02  0.26257875557E+02  0.69200922167E+02  0.00000000000E+00 0. -1.
        -12    1    6    6    0    0 -0.42903386468E+02  0.97667074986E+01  0.31853880464E+01  0.44116163056E+02  0.00000000000E+00 0.  1.
</event>
<event>
12    1  0.8493057E-002  0.1766134E+03  0.7818608E-02  0.1171198E+00
         21   -1    0    0  503  502  0.00000000000E+00  0.00000000000E+00  0.32999785625E+04  0.32999785625E+04  0.00000000000E+00 0.  1.
         21   -1    0    0  501  503 -0.00000000000E+00 -0.00000000000E+00 -0.30622956837E+02  0.30622956837E+02  0.00000000000E+00 0.  1.
          6    2    1    2  501    0  0.34544280215E+02  0.22987578119E+02  0.24993892507E+03  0.30604206531E+03  0.17166986756E+03 0.  0.
         24    2    3    3    0    0  0.13924813495E+02 -0.41915397173E+02  0.69411388216E+02  0.11303988871E+03  0.77519511566E+02 0.  0.
         -6    2    1    2    0  502 -0.34544280215E+02 -0.22987578119E+02  0.30194166806E+04  0.30245594540E+04  0.17135070439E+03 0.  0.
        -24    2    5    5    0    0 -0.47874784820E+02 -0.17885772420E+02  0.87486857482E+03  0.87995869894E+03  0.79500897825E+02 0.  0.
          5    1    3    3  501    0  0.20619466720E+02  0.64902975292E+02  0.18052753686E+03  0.19300217660E+03  0.47000000000E+01 0. -1.
        -13    1    4    4    0    0 -0.30241037968E+02 -0.41752204460E+01  0.30262910010E+02  0.42986004297E+02  0.00000000000E+00 0.  1.
         14    1    4    4    0    0  0.44165851463E+02 -0.37740176727E+02  0.39148478206E+02  0.70053884409E+02  0.00000000000E+00 0. -1.
         -5    1    5    5    0  502  0.13330504604E+02 -0.51018056984E+01  0.21445481058E+04  0.21446007551E+04  0.47000000000E+01 0.  1.
         11    1    6    6    0    0  0.17898533821E+02 -0.15412808230E+02  0.37981741192E+03  0.38055115106E+03  0.00000000000E+00 0. -1.
        -12    1    6    6    0    0 -0.65773318640E+02 -0.24729641907E+01  0.49505116290E+03  0.49940754788E+03  0.00000000000E+00 0.  1.
</event>
<event>
12    1  0.8493057E-002  0.1754127E+03  0.7818608E-02  0.1172471E+00
         21   -1    0    0  503  502  0.00000000000E+00  0.00000000000E+00  0.63245216104E+02  0.63245216104E+02  0.00000000000E+00 0.  1.
         21   -1    0    0  501  503 -0.00000000000E+00 -0.00000000000E+00 -0.50357084704E+03  0.50357084704E+03  0.00000000000E+00 0.  1.
          6    2    1    2  501    0 -0.33679070211E+02  0.68253388798E+01 -0.27521559541E+03  0.32636368392E+03  0.17201385179E+03 0.  0.
         24    2    3    3    0    0  0.50007540295E+01 -0.49723447948E+02 -0.97616507692E+02  0.13594987126E+03  0.80348964562E+02 0.  0.
         -6    2    1    2    0  502  0.33679070211E+02 -0.68253388798E+01 -0.16511003553E+03  0.24045237922E+03  0.17139182541E+03 0.  0.
        -24    2    5    5    0    0 -0.43774415350E+02  0.43027127910E+01 -0.57544538180E+02  0.10735353557E+03  0.79238216470E+02 0.  0.
          5    1    3    3  501    0 -0.38679824241E+02  0.56548786828E+02 -0.17759908771E+03  0.19041381266E+03  0.47000000000E+01 0. -1.
        -13    1    4    4    0    0 -0.32775945305E+02 -0.89003871968E+01 -0.59538097500E+02  0.68543887669E+02  0.00000000000E+00 0.  1.
         14    1    4    4    0    0  0.37776699334E+02 -0.40823060751E+02 -0.38078410192E+02  0.67405983596E+02  0.00000000000E+00 0. -1.
         -5    1    5    5    0  502  0.77453485561E+02 -0.11128051671E+02 -0.10756549735E+03  0.13309884365E+03  0.47000000000E+01 0.  1.
         11    1    6    6    0    0 -0.36944116340E+02 -0.18288308030E+02 -0.69569554789E+02  0.80865647195E+02  0.00000000000E+00 0. -1.
        -12    1    6    6    0    0 -0.68302990102E+01  0.22591020821E+02  0.12025016609E+02  0.26487888379E+02  0.00000000000E+00 0.  1.
</event>
<event>
12    1  0.8493057E-002  0.1870919E+03  0.7818608E-02  0.1161134E+00
         21   -1    0    0  503  502  0.00000000000E+00  0.00000000000E+00  0.55291861777E+03  0.55291861777E+03  0.00000000000E+00 0. -1.
         21   -1    0    0  501  503 -0.00000000000E+00 -0.00000000000E+00 -0.83808507193E+02  0.83808507193E+02  0.00000000000E+00 0. -1.
          6    2    1    2  501    0  0.43867167663E+02  0.59558297672E+02  0.39209928936E+03  0.43440546868E+03  0.17174032517E+03 0.  0.
         24    2    3    3    0    0 -0.33435902594E+02  0.22914174966E+02  0.12452769065E+03  0.15345136774E+03  0.79982232574E+02 0.  0.
         -6    2    1    2    0  502 -0.43867167663E+02 -0.59558297672E+02  0.77010821224E+02  0.20232165628E+03  0.17184838316E+03 0.  0.
        -24    2    5    5    0    0  0.41525093837E+02 -0.10223046698E+02  0.26153305468E+02  0.91261392364E+02  0.76261407327E+02 0.  0.
          5    1    3    3  501    0  0.77303070256E+02  0.36644122706E+02  0.26757159871E+03  0.28095410094E+03  0.47000000000E+01 0. -1.
        -13    1    4    4    0    0 -0.86523848865E+01 -0.52803767048E+01 -0.97263043256E+01  0.14048029691E+02  0.00000000000E+00 0.  1.
         14    1    4    4    0    0 -0.24783517707E+02  0.28194551671E+02  0.13425399497E+03  0.13940333805E+03  0.00000000000E+00 0. -1.
         -5    1    5    5    0  502 -0.85392261499E+02 -0.49335250974E+02  0.50857515756E+02  0.11106026392E+03  0.47000000000E+01 0.  1.
         11    1    6    6    0    0  0.64975020034E+01  0.11895218473E+02 -0.23173586074E+02  0.26846393544E+02  0.00000000000E+00 0. -1.
        -12    1    6    6    0    0  0.35027591833E+02 -0.22118265171E+02  0.49326891541E+02  0.64414998820E+02  0.00000000000E+00 0.  1.
</event>
<event>
12    1  0.8493057E-002  0.2704136E+03  0.7818608E-02  0.1101212E+00
         21   -1    0    0  503  502  0.00000000000E+00  0.00000000000E+00  0.89696892742E+02  0.89696892742E+02  0.00000000000E+00 0.  1.
         21   -1    0    0  501  503 -0.00000000000E+00 -0.00000000000E+00 -0.10095404800E+04  0.10095404800E+04  0.00000000000E+00 0.  1.
          6    2    1    2  501    0 -0.12126034974E+03  0.16810878177E+03 -0.70404895225E+03  0.75419390965E+03  0.17366315459E+03 0.  0.
         24    2    3    3    0    0 -0.70263421846E+02  0.18683441446E+03 -0.58889744373E+03  0.62678395757E+03  0.78828188849E+02 0.  0.
         -6    2    1    2    0  502  0.12126034974E+03 -0.16810878177E+03 -0.21579463505E+03  0.34504346313E+03  0.17182267606E+03 0.  0.
        -24    2    5    5    0    0  0.13344132764E+03 -0.16077962752E+03 -0.23241944303E+03  0.32267010923E+03  0.80252883709E+02 0.  0.
          5    1    3    3  501    0 -0.50996927898E+02 -0.18725632694E+02 -0.11515150852E+03  0.12740995208E+03  0.47000000000E+01 0. -1.
        -13    1    4    4    0    0 -0.65851674049E+02  0.71059053322E+02 -0.22750396335E+03  0.24727289657E+03  0.00000000000E+00 0.  1.
         14    1    4    4    0    0 -0.44117477969E+01  0.11577536114E+03 -0.36139348038E+03  0.37951106100E+03  0.00000000000E+00 0. -1.
         -5    1    5    5    0  502 -0.12180977893E+02 -0.73291542453E+01  0.16624807983E+02  0.22373353903E+02  0.47000000000E+01 0.  1.
         13    1    6    6    0    0  0.16992989920E+02  0.54706748646E+01 -0.65926349319E+01  0.19030313325E+02  0.00000000000E+00 0. -1.
        -14    1    6    6    0    0  0.11644833772E+03 -0.16625030238E+03 -0.22582680810E+03  0.30363979590E+03  0.00000000000E+00 0.  1.
</event>
<event>
12    1  0.8493057E-002  0.1967329E+03  0.7818608E-02  0.1152829E+00
         21   -1    0    0  503  502  0.00000000000E+00  0.00000000000E+00  0.13346885420E+03  0.13346885420E+03  0.00000000000E+00 0. -1.
         21   -1    0    0  501  503 -0.00000000000E+00 -0.00000000000E+00 -0.36453312803E+03  0.36453312803E+03  0.00000000000E+00 0. -1.
          6    2    1    2  501    0  0.46847588074E+02  0.81162560365E+02 -0.23001536537E+03  0.30267294237E+03  0.17297914332E+03 0.  0.
         24    2    3    3    0    0  0.67965320859E+02 -0.43050660356E+01 -0.14474653794E+03  0.18002084605E+03  0.82571946417E+02 0.  0.
         -6    2    1    2    0  502 -0.46847588074E+02 -0.81162560365E+02 -0.10489084579E+01  0.19532903985E+03  0.17137758280E+03 0.  0.
        -24    2    5    5    0    0 -0.81009085076E+02 -0.46939647693E+02 -0.44468998210E+02  0.13017069562E+03  0.78747163789E+02 0.  0.
          5    1    3    3  501    0 -0.21117732785E+02  0.85467626401E+02 -0.85268827435E+02  0.12265209632E+03  0.47000000000E+01 0. -1.
        -11    1    4    4    0    0 -0.15443438374E+02 -0.15797875141E+02 -0.39295379507E+02  0.45079923451E+02  0.00000000000E+00 0.  1.
         12    1    4    4    0    0  0.83408759233E+02  0.11492809105E+02 -0.10545115843E+03  0.13494092260E+03  0.00000000000E+00 0. -1.
         -5    1    5    5    0  502  0.34161497001E+02 -0.34222912672E+02  0.43420089752E+02  0.65158344233E+02  0.47000000000E+01 0.  1.
         13    1    6    6    0    0 -0.56455394329E+02  0.11763354958E+02 -0.29619463782E+02  0.64829782535E+02  0.00000000000E+00 0. -1.
        -14    1    6    6    0    0 -0.24553690746E+02 -0.58703002651E+02 -0.14849534428E+02  0.65340913081E+02  0.00000000000E+00 0.  1.
</event>
<event>
12    1  0.8493057E-002  0.2145414E+03  0.7818608E-02  0.1138298E+00
         21   -1    0    0  501  502  0.00000000000E+00  0.00000000000E+00  0.50389504896E+03  0.50389504896E+03  0.00000000000E+00 0.  1.
         21   -1    0    0  502  503 -0.00000000000E+00 -0.00000000000E+00 -0.21876852365E+03  0.21876852365E+03  0.00000000000E+00 0.  1.
         -6    2    1    2    0  503 -0.11069113073E+03  0.63276044458E+02  0.41879077132E+03  0.46989063799E+03  0.17074869634E+03 0.  0.
        -24    2    3    3    0    0 -0.95738376543E+02  0.11219670126E+03  0.35033246433E+03  0.38430182263E+03  0.56578430471E+02 0.  0.
          6    2    1    2  501    0  0.11069113073E+03 -0.63276044458E+02 -0.13366424601E+03  0.25277293463E+03  0.17254460756E+03 0.  0.
         24    2    5    5    0    0 -0.82941314857E+01 -0.38806327308E+02 -0.80020243878E+02  0.11989694491E+03  0.79983212685E+02 0.  0.
          5    1    5    5  501    0  0.11898526221E+03 -0.24469717151E+02 -0.53644002129E+02  0.13287598972E+03  0.47000000000E+01 0. -1.
        -13    1    6    6    0    0  0.31214626236E+02 -0.36626131766E+02 -0.55001411801E+02  0.73082020493E+02  0.00000000000E+00 0.  1.
         14    1    6    6    0    0 -0.39508757722E+02 -0.21801955414E+01 -0.25018832076E+02  0.46814924413E+02  0.00000000000E+00 0. -1.
         -5    1    3    3    0  503 -0.14952754183E+02 -0.48920656797E+02  0.68458306988E+02  0.85588815361E+02  0.47000000000E+01 0.  1.
         13    1    4    4    0    0 -0.23699452667E+02  0.63924436986E+02  0.19249724228E+03  0.20421357934E+03  0.00000000000E+00 0. -1.
        -14    1    4    4    0    0 -0.72038923876E+02  0.48272264270E+02  0.15783522205E+03  0.18008824329E+03  0.00000000000E+00 0.  1.
</event>
<event>
12    1  0.8493057E-002  0.1994827E+03  0.7818608E-02  0.1150346E+00
         21   -1    0    0  501  502  0.00000000000E+00  0.00000000000E+00  0.26570688481E+02  0.26570688481E+02  0.00000000000E+00 0. -1.
         21   -1    0    0  502  503 -0.00000000000E+00 -0.00000000000E+00 -0.16177757694E+04  0.16177757694E+04  0.00000000000E+00 0. -1.
         -6    2    1    2    0  503 -0.30891139837E+02 -0.94689096357E+02 -0.10266497922E+04  0.10458504379E+04  0.17283823386E+03 0.  0.
        -24    2    3    3    0    0  0.20749937471E+02 -0.10214109692E+03 -0.89530978231E+03  0.90444809922E+03  0.74722113878E+02 0.  0.
          6    2    1    2  501    0  0.30891139837E+02  0.94689096357E+02 -0.56455528869E+03  0.59849601998E+03  0.17191429393E+03 0.  0.
         24    2    5    5    0    0  0.16051684225E+01  0.48820680457E+02 -0.12641312030E+03  0.15696206951E+03  0.79188249598E+02 0.  0.
          5    1    5    5  501    0  0.29285971415E+02  0.45868415901E+02 -0.43814216839E+03  0.44153395047E+03  0.47000000000E+01 0. -1.
        -13    1    6    6    0    0 -0.21849947792E+02 -0.81510089110E+01 -0.10255205500E+02  0.25476035889E+02  0.00000000000E+00 0.  1.
         14    1    6    6    0    0  0.23455116215E+02  0.56971689368E+02 -0.11615791480E+03  0.13148603362E+03  0.00000000000E+00 0. -1.
         -5    1    3    3    0  503 -0.51641077308E+02  0.74520005656E+01 -0.13134000993E+03  0.14140233868E+03  0.47000000000E+01 0.  1.
         13    1    4    4    0    0 -0.56973697242E+01 -0.85210415041E+01 -0.37389489488E+03  0.37403537345E+03  0.00000000000E+00 0. -1.
        -14    1    4    4    0    0  0.26447307195E+02 -0.93620055419E+02 -0.52141488743E+03  0.53041272577E+03  0.00000000000E+00 0.  1.
</event>
<event>
12    1  0.8493057E-002  0.2124884E+03  0.7818608E-02  0.1139975E+00
         21   -1    0    0  501  502  0.00000000000E+00  0.00000000000E+00  0.63975058872E+02  0.63975058872E+02  0.00000000000E+00 0.  1.
         21   -1    0    0  502  503 -0.00000000000E+00 -0.00000000000E+00 -0.13491881853E+04  0.13491881853E+04  0.00000000000E+00 0.  1.
         -6    2    1    2    0  503 -0.51005883345E+02 -0.11122562684E+03 -0.11343505088E+04  0.11540807531E+04  0.17371979623E+03 0.  0.
        -24    2    3    3    0    0  0.30209269416E+02 -0.43460931983E+02 -0.72033771147E+03  0.72674406935E+03  0.80430536475E+02 0.  0.
          6    2    1    2  501    0  0.51005883345E+02  0.11122562684E+03 -0.15086261764E+03  0.25908249111E+03  0.17143939919E+03 0.  0.
         24    2    5    5    0    0 -0.64504102822E+01 -0.26853812419E+01 -0.69402296794E+02  0.10764003566E+03  0.81980969810E+02 0.  0.
          5    1    5    5  501    0  0.57456293627E+02  0.11391100809E+03 -0.81460320846E+02  0.15144245545E+03  0.47000000000E+01 0. -1.
        -13    1    6    6    0    0  0.12254558909E+02  0.31440181372E+02 -0.75731700045E+01  0.34583408199E+02  0.00000000000E+00 0.  1.
         14    1    6    6    0    0 -0.18704969191E+02 -0.34125562614E+02 -0.61829126790E+02  0.73056627459E+02  0.00000000000E+00 0. -1.
         -5    1    3    3    0  503 -0.81215152760E+02 -0.67764694860E+02 -0.41401279733E+03  0.42733668373E+03  0.47000000000E+01 0.  1.
         11    1    4    4    0    0  0.31719552742E+02 -0.55731712230E+02 -0.32789699949E+03  0.33410865904E+03  0.00000000000E+00 0. -1.
        -12    1    4    4    0    0 -0.15102833269E+01  0.12270780247E+02 -0.39244071199E+03  0.39263541031E+03  0.00000000000E+00 0.  1.
</event>
<event>
12    1  0.8493057E-002  0.2341528E+03  0.7818608E-02  0.1123877E+00
         21   -1    0    0  501  502  0.00000000000E+00  0.00000000000E+00  0.13301178456E+03  0.13301178456E+03  0.00000000000E+00 0.  1.
         21   -1    0    0  502  503 -0.00000000000E+00 -0.00000000000E+00 -0.59653638896E+03  0.59653638896E+03  0.00000000000E+00 0. -1.
         -6    2    1    2    0  503  0.13826525322E+03  0.76916309858E+02 -0.43549437294E+03  0.49445211089E+03  0.17260979732E+03 0.  0.
        -24    2    3    3    0    0  0.81495632159E+02 -0.12780051352E+02 -0.14741280357E+03  0.18739949699E+03  0.81136730542E+02 0.  0.
          6    2    1    2  501    0 -0.13826525322E+03 -0.76916309858E+02 -0.28030231454E+02  0.23509606263E+03  0.17161312834E+03 0.  0.
         24    2    5    5    0    0 -0.16654477509E+01 -0.48925869532E+02 -0.17953482802E+02  0.95215390386E+02  0.79668868425E+02 0.  0.
          5    1    5    5  501    0 -0.13659980547E+03 -0.27990440326E+02 -0.10076748651E+02  0.13988067224E+03  0.47000000000E+01 0. -1.
        -11    1    6    6    0    0 -0.24043351130E+02 -0.60264019679E+02 -0.24390830119E+02  0.69316285211E+02  0.00000000000E+00 0.  1.
         12    1    6    6    0    0  0.22377903379E+02  0.11338150148E+02  0.64373473170E+01  0.25899105176E+02  0.00000000000E+00 0. -1.
         -5    1    3    3    0  503  0.56769621059E+02  0.89696361210E+02 -0.28808156937E+03  0.30705261390E+03  0.47000000000E+01 0.  1.
         11    1    4    4    0    0 -0.12779658386E+02 -0.48623698601E+01 -0.18564223106E+01  0.13798862740E+02  0.00000000000E+00 0. -1.
        -12    1    4    4    0    0  0.94275290544E+02 -0.79176814920E+01 -0.14555638126E+03  0.17360063425E+03  0.00000000000E+00 0.  1.
</event>
<event>
12    1  0.8493057E-002  0.1912736E+03  0.7818608E-02  0.1157333E+00
         21   -1    0    0  503  502  0.00000000000E+00  0.00000000000E+00  0.61358774166E+02  0.61358774166E+02  0.00000000000E+00 0.  1.
         21   -1    0    0  501  503 -0.00000000000E+00 -0.00000000000E+00 -0.68049120869E+03  0.68049120869E+03  0.00000000000E+00 0.  1.
          6    2    1    2  501    0 -0.82801743637E+02 -0.15807129957E+02 -0.44018814194E+03  0.47992130581E+03  0.17161837128E+03 0.  0.
         24    2    3    3    0    0 -0.16699468495E+02 -0.27315689220E+02 -0.38050825421E+03  0.39000058120E+03  0.79302602037E+02 0.  0.
         -6    2    1    2    0  502  0.82801743637E+02  0.15807129957E+02 -0.17894429259E+03  0.26192867704E+03  0.17169617905E+03 0.  0.
        -24    2    5    5    0    0  0.35400542977E+02  0.14049159610E+02 -0.12428026043E+02  0.88724400806E+02  0.79164298381E+02 0.  0.
          5    1    3    3  501    0 -0.66102275142E+02  0.11508559263E+02 -0.59679887729E+02  0.89920724611E+02  0.47000000000E+01 0. -1.
        -11    1    4    4    0    0 -0.30964187166E+02 -0.20277212825E+02 -0.70862093251E+02  0.79946122525E+02  0.00000000000E+00 0.  1.
         12    1    4    4    0    0  0.14264718671E+02 -0.70384763956E+01 -0.30964616095E+03  0.31005445867E+03  0.00000000000E+00 0. -1.
         -5    1    5    5    0  502  0.47401200660E+02  0.17579703478E+01 -0.16651626654E+03  0.17320427624E+03  0.47000000000E+01 0.  1.
         13    1    6    6    0    0 -0.17142373176E+01 -0.19253639227E+02 -0.30140584720E+02  0.35806369270E+02  0.00000000000E+00 0. -1.
        -14    1    6    6    0    0  0.37114780295E+02  0.33302798837E+02  0.17712558677E+02  0.52918031535E+02  0.00000000000E+00 0.  1.
</event>
<event>
12    1  0.8493057E-002  0.3116391E+03  0.7818608E-02  0.1079743E+00
         21   -1    0    0  501  502  0.00000000000E+00  0.00000000000E+00  0.19735870508E+03  0.19735870508E+03  0.00000000000E+00 0.  1.
         21   -1    0    0  502  503 -0.00000000000E+00 -0.00000000000E+00 -0.49433660818E+03  0.49433660818E+03  0.00000000000E+00 0.  1.
         -6    2    1    2    0  503  0.25730633019E+03  0.26319581164E+02 -0.11470739370E+03  0.33066697491E+03  0.17112449918E+03 0.  0.
        -24    2    3    3    0    0  0.19485964905E+03  0.58541392196E+02 -0.13455500917E+03  0.25749696103E+03  0.82475796563E+02 0.  0.
          6    2    1    2  501    0 -0.25730633019E+03 -0.26319581164E+02 -0.18227050940E+03  0.36102833835E+03  0.17383801249E+03 0.  0.
         24    2    5    5    0    0 -0.78878580646E+02 -0.22857886173E+01 -0.13522093131E+03  0.17488366937E+03  0.77926518166E+02 0.  0.
          5    1    5    5  501    0 -0.17842774955E+03 -0.24033792547E+02 -0.47049578098E+02  0.18614466899E+03  0.47000000000E+01 0. -1.
        -11    1    6    6    0    0 -0.83851127940E+02 -0.33808815631E+01 -0.14287092043E+03  0.16569412157E+03  0.00000000000E+00 0.  1.
         12    1    6    6    0    0  0.49725472938E+01  0.10950929458E+01  0.76499891250E+01  0.91895477997E+01  0.00000000000E+00 0. -1.
         -5    1    3    3    0  503  0.62446681144E+02 -0.32221811032E+02  0.19847615470E+02  0.73170013885E+02  0.47000000000E+01 0.  1.
         11    1    4    4    0    0  0.69691458436E+02  0.25443347349E+02 -0.50322144804E+01  0.74361189378E+02  0.00000000000E+00 0. -1.
        -12    1    4    4    0    0  0.12516819061E+03  0.33098044847E+02 -0.12952279469E+03  0.18313577165E+03  0.00000000000E+00 0.  1.
</event>
<event>
12    1  0.8493057E-002  0.2721420E+03  0.7818608E-02  0.1100279E+00
         21   -1    0    0  503  502  0.00000000000E+00  0.00000000000E+00  0.93854448349E+03  0.93854448349E+03  0.00000000000E+00 0.  1.
         21   -1    0    0  501  503 -0.00000000000E+00 -0.00000000000E+00 -0.85889981637E+02  0.85889981637E+02  0.00000000000E+00 0. -1.
          6    2    1    2  501    0  0.13172921904E+03  0.16435754737E+03  0.27461908422E+03  0.38553994566E+03  0.16988059853E+03 0.  0.
         24    2    3    3    0    0  0.99632753313E+02  0.88306256253E+02  0.25700112450E+03  0.30100318149E+03  0.82635687477E+02 0.  0.
         -6    2    1    2    0  502 -0.13172921904E+03 -0.16435754737E+03  0.57803541764E+03  0.63889451947E+03  0.17232316281E+03 0.  0.
        -24    2    5    5    0    0 -0.61256327001E+02 -0.14406992496E+03  0.27122561700E+03  0.32340702383E+03  0.80748293315E+02 0.  0.
          5    1    3    3  501    0  0.32096465723E+02  0.76051291114E+02  0.17617959718E+02  0.84536764172E+02  0.47000000000E+01 0. -1.
        -11    1    4    4    0    0  0.43787472167E+02  0.90310486178E+02  0.17577954786E+03  0.20241486131E+03  0.00000000000E+00 0.  1.
         12    1    4    4    0    0  0.55845281146E+02 -0.20042299240E+01  0.81221576641E+02  0.98588320180E+02  0.00000000000E+00 0. -1.
         -5    1    5    5    0  502 -0.70472892035E+02 -0.20287622409E+02  0.30680980064E+03  0.31548749564E+03  0.47000000000E+01 0.  1.
         11    1    6    6    0    0 -0.34208927866E+02 -0.14727166899E+02  0.27968743463E+02  0.46576719523E+02  0.00000000000E+00 0. -1.
        -12    1    6    6    0    0 -0.27047399135E+02 -0.12934275806E+03  0.24325687354E+03  0.27683030431E+03  0.00000000000E+00 0.  1.
</event>
<event>
12    1  0.8493057E-002  0.2051945E+03  0.7818608E-02  0.1146917E+00
         21   -1    0    0  503  502  0.00000000000E+00  0.00000000000E+00  0.16769899802E+02  0.16769899802E+02  0.00000000000E+00 0.  1.
         21   -1    0    0  501  503 -0.00000000000E+00 -0.00000000000E+00 -0.27124669901E+04  0.27124669901E+04  0.00000000000E+00 0.  1.
          6    2    1    2  501    0 -0.76963467858E+02 -0.19943831313E+02 -0.17714857321E+04  0.17825207763E+04  0.18137664428E+03 0.  0.
         24    2    3    3    0    0 -0.10194497816E+03  0.35714721610E+02 -0.12790330642E+04  0.12862812469E+04  0.83219871431E+02 0.  0.
         -6    2    1    2    0  502  0.76963467858E+02  0.19943831313E+02 -0.92421135819E+03  0.94671611360E+03  0.18916562413E+03 0.  0.
        -24    2    5    5    0    0  0.51977345055E+02  0.24432894076E+02 -0.91349810214E+03  0.91876397822E+03  0.79685973344E+02 0.  0.
          5    1    3    3  501    0  0.24981510303E+02 -0.55658552923E+02 -0.49245266797E+03  0.49623952942E+03  0.47000000000E+01 0. -1.
        -13    1    4    4    0    0 -0.25528943317E+02  0.27163621308E+02 -0.82044500695E+03  0.82129142129E+03  0.00000000000E+00 0.  1.
         14    1    4    4    0    0 -0.76416034844E+02  0.85511003024E+01 -0.45858805723E+03  0.46498982562E+03  0.00000000000E+00 0. -1.
         -5    1    5    5    0  502  0.24986122803E+02 -0.44890627631E+01 -0.10713256048E+02  0.27952135381E+02  0.47000000000E+01 0.  1.
         13    1    6    6    0    0 -0.84329346009E+01  0.34973550874E+02 -0.40085474353E+03  0.40246588558E+03  0.00000000000E+00 0. -1.
        -14    1    6    6    0    0  0.60410279656E+02 -0.10540656799E+02 -0.51264335861E+03  0.51629809264E+03  0.00000000000E+00 0.  1.
</event>
<event>
12    1  0.8493057E-002  0.2164670E+03  0.7818608E-02  0.1136641E+00
         21   -1    0    0  503  502  0.00000000000E+00  0.00000000000E+00  0.80648940435E+03  0.80648940435E+03  0.00000000000E+00 0.  1.
         21   -1    0    0  501  503 -0.00000000000E+00 -0.00000000000E+00 -0.27722972109E+03  0.27722972109E+03  0.00000000000E+00 0.  1.
          6    2    1    2  501    0  0.77315379205E+02 -0.10626347230E+03 -0.21719872940E+03  0.30664839077E+03  0.17201265680E+03 0.  0.
         24    2    3    3    0    0 -0.48233758107E+01 -0.20660154759E+02 -0.14765119204E+03  0.16904877957E+03  0.79539351342E+02 0.  0.
         -6    2    1    2    0  502 -0.77315379205E+02  0.10626347230E+03  0.74645841266E+03  0.77707073467E+03  0.17137436051E+03 0.  0.
        -24    2    5    5    0    0  0.17196709576E+02  0.28268986819E+02  0.22165946895E+03  0.23813502792E+03  0.80501608125E+02 0.  0.
          5    1    3    3  501    0  0.82138755016E+02 -0.85603317545E+02 -0.69547537355E+02  0.13759961120E+03  0.47000000000E+01 0. -1.
        -13    1    4    4    0    0 -0.28835598988E+00  0.30718704323E+02 -0.56994137850E+02  0.64746070875E+02  0.00000000000E+00 0.  1.
         14    1    4    4    0    0 -0.45350198208E+01 -0.51378859081E+02 -0.90657054194E+02  0.10430270869E+03  0.00000000000E+00 0. -1.
         -5    1    5    5    0  502 -0.94512088781E+02  0.77994485485E+02  0.52479894371E+03  0.53893570676E+03  0.47000000000E+01 0.  1.
         11    1    6    6    0    0  0.15466560617E+02  0.56230172664E+02  0.13494351142E+03  0.14700611582E+03  0.00000000000E+00 0. -1.
        -12    1    6    6    0    0  0.17301489586E+01 -0.27961185846E+02  0.86715957532E+02  0.91128912097E+02  0.00000000000E+00 0.  1.
</event>
<event>
12    1  0.8493057E-002  0.2617480E+03  0.7818608E-02  0.1106261E+00
         21   -1    0    0  501  502  0.00000000000E+00  0.00000000000E+00  0.99538603332E+03  0.99538603332E+03  0.00000000000E+00 0. -1.
         21   -1    0    0  502  503 -0.00000000000E+00 -0.00000000000E+00 -0.10786597526E+03  0.10786597526E+03  0.00000000000E+00 0.  1.
         -6    2    1    2    0  503 -0.92992907424E+02 -0.17169432137E+03  0.11010696174E+03  0.28295746575E+03  0.17266952128E+03 0.  0.
        -24    2    3    3    0    0 -0.11528156597E+02 -0.63613247406E+02 -0.97397937000E+01  0.10211676523E+03  0.78443779354E+02 0.  0.
          6    2    1    2  501    0  0.92992907424E+02  0.17169432137E+03  0.77741309632E+03  0.82029454283E+03  0.17431406667E+03 0.  0.
         24    2    5    5    0    0  0.32742502881E+02  0.92406416116E+02  0.22095643206E+03  0.25497800108E+03  0.81123479550E+02 0.  0.
          5    1    5    5  501    0  0.60250404543E+02  0.79287905251E+02  0.55645666426E+03  0.56531654175E+03  0.47000000000E+01 0. -1.
        -11    1    6    6    0    0  0.22187949011E+02 -0.89564243670E+01  0.58475699825E+02  0.63181722743E+02  0.00000000000E+00 0.  1.
         12    1    6    6    0    0  0.10554553871E+02  0.10136284048E+03  0.16248073223E+03  0.19179627834E+03  0.00000000000E+00 0. -1.
         -5    1    3    3    0  503 -0.81464750828E+02 -0.10808107396E+03  0.11984675544E+03  0.18084070053E+03  0.47000000000E+01 0.  1.
         11    1    4    4    0    0  0.29287270038E+02 -0.40814654338E+02  0.10251612182E+02  0.51270612902E+02  0.00000000000E+00 0. -1.
        -12    1    4    4    0    0 -0.40815426635E+02 -0.22798593068E+02 -0.19991405882E+02  0.50846152327E+02  0.00000000000E+00 0.  1.
</event>
<event>
12    1  0.8493057E-002  0.2039323E+03  0.7818608E-02  0.1150891E+00
         21   -1    0    0  503  502  0.00000000000E+00  0.00000000000E+00  0.19725174019E+03  0.19725174019E+03  0.00000000000E+00 0.  1.
         21   -1    0    0  501  503 -0.00000000000E+00 -0.00000000000E+00 -0.19889470309E+03  0.19889470309E+03  0.00000000000E+00 0. -1.
          6    2    1    2  501    0 -0.34789126516E+01  0.66438839938E+02 -0.41944566701E+02  0.20820118642E+03  0.19277490777E+03 0.  0.
         24    2    3    3    0    0 -0.80660130029E+01 -0.37094991645E+02  0.12902860788E+02  0.90852875508E+02  0.81527064222E+02 0.  0.
         -6    2    1    2    0  502  0.34789126516E+01 -0.66438839938E+02  0.40301603801E+02  0.18794525686E+03  0.17109347744E+03 0.  0.
        -24    2    5    5    0    0 -0.39331907756E+01 -0.11821224724E+02 -0.39582737203E+02  0.90777252318E+02  0.80737259739E+02 0.  0.
          5    1    3    3  501    0  0.45871003513E+01  0.10353383158E+03 -0.54847427490E+02  0.11734831091E+03  0.47000000000E+01 0. -1.
        -11    1    4    4    0    0  0.32442986135E+02 -0.98402336166E+01 -0.12102506537E+02  0.35997891765E+02  0.00000000000E+00 0.  1.
         12    1    4    4    0    0 -0.40508999138E+02 -0.27254758029E+02  0.25005367326E+02  0.54854983744E+02  0.00000000000E+00 0. -1.
         -5    1    5    5    0  502  0.74121034272E+01 -0.54617615214E+02  0.79884341004E+02  0.97168004542E+02  0.47000000000E+01 0.  1.
         13    1    6    6    0    0  0.28250719423E+02  0.68492031929E+01  0.82124046756E+01  0.30206925081E+02  0.00000000000E+00 0. -1.
        -14    1    6    6    0    0 -0.32183910199E+02 -0.18670427917E+02 -0.47795141879E+02  0.60570327236E+02  0.00000000000E+00 0.  1.
</event>
<event>
12    1  0.8493057E-002  0.1919988E+03  0.7818608E-02  0.1156845E+00
         21   -1    0    0  503  502  0.00000000000E+00  0.00000000000E+00  0.19621144217E+03  0.19621144217E+03  0.00000000000E+00 0.  1.
         21   -1    0    0  501  503 -0.00000000000E+00 -0.00000000000E+00 -0.41932196036E+03  0.41932196036E+03  0.00000000000E+00 0.  1.
          6    2    1    2  501    0 -0.92684994876E+01 -0.83410339643E+02 -0.34048078687E+03  0.39050158865E+03  0.17181715475E+03 0.  0.
         24    2    3    3    0    0  0.43324035963E+02 -0.48230624824E+02 -0.29342961298E+03  0.31151114566E+03  0.82067599144E+02 0.  0.
         -6    2    1    2    0  502  0.92684994876E+01  0.83410339643E+02  0.11737026869E+03  0.22503181388E+03  0.17268568975E+03 0.  0.
        -24    2    5    5    0    0  0.39769460351E+02  0.67984214125E+02  0.10136211290E+02  0.11238410184E+03  0.79523457048E+02 0.  0.
          5    1    3    3  501    0 -0.52592535451E+02 -0.35179714820E+02 -0.47051173883E+02  0.78990442990E+02  0.47000000000E+01 0. -1.
        -11    1    4    4    0    0  0.29382261501E+02 -0.95656751515E+01 -0.24433613322E+02  0.39393157933E+02  0.00000000000E+00 0.  1.
         12    1    4    4    0    0  0.13941774463E+02 -0.38664949672E+02 -0.26899599966E+03  0.27211798772E+03  0.00000000000E+00 0. -1.
         -5    1    5    5    0  502 -0.30500960863E+02  0.15426125518E+02  0.10723405740E+03  0.11264771204E+03  0.47000000000E+01 0.  1.
         11    1    6    6    0    0  0.35346656472E+02  0.20104016898E+02  0.38965909647E+02  0.56319621215E+02  0.00000000000E+00 0. -1.
        -12    1    6    6    0    0  0.44228038785E+01  0.47880197228E+02 -0.28829698357E+02  0.56064480628E+02  0.00000000000E+00 0.  1.
</event>
<event>
12    1  0.8493057E-002  0.2208092E+03  0.7818608E-02  0.1133366E+00
         21   -1    0    0  503  502  0.00000000000E+00  0.00000000000E+00  0.19010857992E+04  0.19010857992E+04  0.00000000000E+00 0.  1.
         21   -1    0    0  501  503 -0.00000000000E+00 -0.00000000000E+00 -0.39700589685E+02  0.39700589685E+02  0.00000000000E+00 0.  1.
          6    2    1    2  501    0 -0.53144985803E+02 -0.12771619817E+03  0.35286523377E+03  0.41625784839E+03  0.17210725246E+03 0.  0.
         24    2    3    3    0    0  0.10705497308E+02 -0.64325617049E+02  0.78770446949E+02  0.12773524593E+03  0.76544869574E+02 0.  0.
         -6    2    1    2    0  502  0.53144985803E+02  0.12771619817E+03  0.15085199758E+04  0.15245285405E+04  0.17151949386E+03 0.  0.
        -24    2    5    5    0    0  0.52403837267E+02  0.36818509346E+01  0.73431265533E+03  0.74043407324E+03  0.79169582870E+02 0.  0.
          5    1    3    3  501    0 -0.63850483111E+02 -0.63390581125E+02  0.27409478682E+03  0.28852260246E+03  0.47000000000E+01 0. -1.
        -13    1    4    4    0    0 -0.14458620890E+02 -0.37919921209E+02  0.81615455665E+02  0.91148531233E+02  0.00000000000E+00 0.  1.
         14    1    4    4    0    0  0.25164118198E+02 -0.26405695841E+02 -0.28450087158E+01  0.36586714694E+02  0.00000000000E+00 0. -1.
         -5    1    5    5    0  502  0.74114853564E+00  0.12403434724E+03  0.77420732043E+03  0.78409446727E+03  0.47000000000E+01 0.  1.
         11    1    6    6    0    0  0.11442790563E+02 -0.30589651304E+02  0.14148693770E+03  0.14520749899E+03  0.00000000000E+00 0. -1.
        -12    1    6    6    0    0  0.40961046704E+02  0.34271502239E+02  0.59282571763E+03  0.59522657426E+03  0.00000000000E+00 0.  1.
</event>
<event>
12    1  0.8493057E-002  0.2207795E+03  0.7818608E-02  0.1133699E+00
         21   -1    0    0  501  502  0.00000000000E+00  0.00000000000E+00  0.16534336689E+03  0.16534336689E+03  0.00000000000E+00 0. -1.
         21   -1    0    0  502  503 -0.00000000000E+00 -0.00000000000E+00 -0.30924926012E+03  0.30924926012E+03  0.00000000000E+00 0. -1.
         -6    2    1    2    0  503  0.55519865583E+02 -0.12406164766E+03 -0.15540993079E+02  0.21920832767E+03  0.17128053176E+03 0.  0.
        -24    2    3    3    0    0  0.49126902348E+02 -0.12030412428E+02 -0.44758641852E+02  0.10315821502E+03  0.77974982840E+02 0.  0.
          6    2    1    2  501    0 -0.55519865583E+02  0.12406164766E+03 -0.12836490015E+03  0.25538429934E+03  0.17398231192E+03 0.  0.
         24    2    5    5    0    0  0.39846597204E+01  0.11160841346E+03 -0.13750760323E+03  0.19372758362E+03  0.78420152016E+02 0.  0.
          5    1    5    5  501    0 -0.59504525303E+02  0.12453234199E+02  0.91427030723E+01  0.61656715717E+02  0.47000000000E+01 0. -1.
        -13    1    6    6    0    0 -0.72607752303E+01 -0.11078037107E+02 -0.12472787616E+02  0.18193740517E+02  0.00000000000E+00 0.  1.
         14    1    6    6    0    0  0.11245434951E+02  0.12268645057E+03 -0.12503481561E+03  0.17553384310E+03  0.00000000000E+00 0. -1.
         -5    1    3    3    0  503  0.63929632348E+01 -0.11203123523E+03  0.29217648773E+02  0.11605011265E+03  0.47000000000E+01 0.  1.
         11    1    4    4    0    0 -0.20804863666E+02 -0.48397973535E+01 -0.35011696407E+01  0.21645419364E+02  0.00000000000E+00 0. -1.
        -12    1    4    4    0    0  0.69931766014E+02 -0.71906150747E+01 -0.41257472211E+02  0.81512795660E+02  0.00000000000E+00 0.  1.
</event>
<event>
12    1  0.8493057E-002  0.2224136E+03  0.7818608E-02  0.1132361E+00
         21   -1    0    0  501  502  0.00000000000E+00  0.00000000000E+00  0.10425810714E+03  0.10425810714E+03  0.00000000000E+00 0. -1.
         21   -1    0    0  502  503 -0.00000000000E+00 -0.00000000000E+00 -0.67975219402E+03  0.67975219402E+03  0.00000000000E+00 0. -1.
         -6    2    1    2    0  503  0.42649397351E+02  0.13211685579E+03 -0.50541474602E+03  0.55218825340E+03  0.17376411313E+03 0.  0.
        -24    2    3    3    0    0 -0.10523691619E+02  0.12088754348E+01 -0.17208138685E+03  0.19011437274E+03  0.80120294302E+02 0.  0.
          6    2    1    2  501    0 -0.42649397351E+02 -0.13211685579E+03 -0.70079340858E+02  0.23182204777E+03  0.17192007776E+03 0.  0.
         24    2    5    5    0    0  0.14902018292E+02 -0.68429359780E+01 -0.37613068418E+02  0.90111535549E+02  0.80227489062E+02 0.  0.
          5    1    5    5  501    0 -0.57551415643E+02 -0.12527391981E+03 -0.32466272440E+02  0.14171051222E+03  0.47000000000E+01 0. -1.
        -11    1    6    6    0    0 -0.15652141756E+02  0.19694969273E+01 -0.52630704593E+02  0.54944149149E+02  0.00000000000E+00 0.  1.
         12    1    6    6    0    0  0.30554160048E+02 -0.88124329052E+01  0.15017636175E+02  0.35167386400E+02  0.00000000000E+00 0. -1.
         -5    1    3    3    0  503  0.53173088971E+02  0.13090798035E+03 -0.33333335918E+03  0.36207388065E+03  0.47000000000E+01 0.  1.
         13    1    4    4    0    0  0.57246849475E+01  0.38845424373E+02 -0.73060167971E+02  0.82942915046E+02  0.00000000000E+00 0. -1.
        -14    1    4    4    0    0 -0.16248376567E+02 -0.37636548938E+02 -0.99021218878E+02  0.10717145770E+03  0.00000000000E+00 0.  1.
</event>
<event>
12    1  0.8493057E-002  0.1753400E+03  0.7818608E-02  0.1172772E+00
         21   -1    0    0  503  502  0.00000000000E+00  0.00000000000E+00  0.20733925654E+03  0.20733925654E+03  0.00000000000E+00 0. -1.
         21   -1    0    0  501  503 -0.00000000000E+00 -0.00000000000E+00 -0.22194314928E+03  0.22194314928E+03  0.00000000000E+00 0. -1.
          6    2    1    2  501    0 -0.48366991047E+01  0.66822862946E+01 -0.13200657832E+03  0.21826700450E+03  0.17362805628E+03 0.  0.
         24    2    3    3    0    0 -0.65806607939E+02  0.28834411634E+02 -0.94665909574E+02  0.14327059137E+03  0.80018091540E+02 0.  0.
         -6    2    1    2    0  502  0.48366991047E+01 -0.66822862946E+01  0.11740268559E+03  0.21101540131E+03  0.17514583181E+03 0.  0.
        -24    2    5    5    0    0  0.19405579809E+02  0.52733982220E+01 -0.10188770200E+02  0.81953942049E+02  0.78792463615E+02 0.  0.
          5    1    3    3  501    0  0.60969908834E+02 -0.22152125339E+02 -0.37340668749E+02  0.74996413134E+02  0.47000000000E+01 0. -1.
        -11    1    4    4    0    0 -0.79234952650E+02  0.24055396351E+02 -0.50799072818E+02  0.97146207411E+02  0.00000000000E+00 0.  1.
         12    1    4    4    0    0  0.13428344711E+02  0.47790152822E+01 -0.43866836756E+02  0.46124383960E+02  0.00000000000E+00 0. -1.
         -5    1    5    5    0  502 -0.14568880704E+02 -0.11955684517E+02  0.12759145579E+03  0.12906145927E+03  0.47000000000E+01 0.  1.
         11    1    6    6    0    0  0.39456846759E+02 -0.11856358910E+01  0.20694381605E+02  0.44570235793E+02  0.00000000000E+00 0. -1.
        -12    1    6    6    0    0 -0.20051266950E+02  0.64590341129E+01 -0.30883151806E+02  0.37383706256E+02  0.00000000000E+00 0.  1.
</event>
<event>
12    1  0.8493057E-002  0.2097240E+03  0.7818608E-02  0.1141836E+00
         21   -1    0    0  501  502  0.00000000000E+00  0.00000000000E+00  0.56753734219E+03  0.56753734219E+03  0.00000000000E+00 0. -1.
         21   -1    0    0  502  503 -0.00000000000E+00 -0.00000000000E+00 -0.79098068436E+02  0.79098068436E+02  0.00000000000E+00 0. -1.
         -6    2    1    2    0  503  0.98361834426E+02  0.71013246177E+02  0.29166507777E+03  0.35923902090E+03  0.17107374124E+03 0.  0.
        -24    2    3    3    0    0  0.13394671545E+03  0.74943422664E+02  0.25917380507E+03  0.31066430684E+03  0.76046111844E+02 0.  0.
          6    2    1    2  501    0 -0.98361834426E+02 -0.71013246177E+02  0.19677419599E+03  0.28739638973E+03  0.17075909644E+03 0.  0.
         24    2    5    5    0    0 -0.92882087781E+02  0.10005645330E+02  0.85190597495E+02  0.14931279962E+03  0.79433488279E+02 0.  0.
          5    1    5    5  501    0 -0.54797466447E+01 -0.81018891506E+02  0.11158359849E+03  0.13808359011E+03  0.47000000000E+01 0. -1.
        -13    1    6    6    0    0 -0.89401492142E+02 -0.80575723576E+01  0.93066963474E+02  0.12930201452E+03  0.00000000000E+00 0.  1.
         14    1    6    6    0    0 -0.34805956398E+01  0.18063217687E+02 -0.78763659791E+01  0.20010785098E+02  0.00000000000E+00 0. -1.
         -5    1    3    3    0  503 -0.35584881024E+02 -0.39301764874E+01  0.32491272690E+02  0.48574714057E+02  0.47000000000E+01 0.  1.
         11    1    4    4    0    0  0.30968203209E+02  0.57043202505E+02  0.12216990615E+03  0.13834175989E+03  0.00000000000E+00 0. -1.
        -12    1    4    4    0    0  0.10297851224E+03  0.17900220160E+02  0.13700389893E+03  0.17232254695E+03  0.00000000000E+00 0.  1.
</event>
<event>
12    1  0.8493057E-002  0.2047595E+03  0.7818608E-02  0.1145940E+00
         21   -1    0    0  501  502  0.00000000000E+00  0.00000000000E+00  0.17314566589E+03  0.17314566589E+03  0.00000000000E+00 0.  1.
         21   -1    0    0  502  503 -0.00000000000E+00 -0.00000000000E+00 -0.29759393845E+03  0.29759393845E+03  0.00000000000E+00 0.  1.
         -6    2    1    2    0  503 -0.46648576751E+02  0.99425006238E+02 -0.16454750820E+03  0.26209064643E+03  0.17191335874E+03 0.  0.
        -24    2    3    3    0    0  0.35834497773E+02  0.49604131610E+02 -0.46845299540E+02  0.10990169462E+03  0.78353170242E+02 0.  0.
          6    2    1    2  501    0  0.46648576751E+02 -0.99425006238E+02  0.40099235644E+02  0.20864895791E+03  0.17281498013E+03 0.  0.
         24    2    5    5    0    0  0.21666542171E+02 -0.13011790960E+03  0.28459941382E+01  0.15409576944E+03  0.79607141815E+02 0.  0.
          5    1    5    5  501    0  0.24982034579E+02  0.30692903367E+02  0.37253241506E+02  0.54553188463E+02  0.47000000000E+01 0. -1.
        -13    1    6    6    0    0  0.89687907365E+01 -0.13017127296E+03  0.20777310312E+02  0.13212379095E+03  0.00000000000E+00 0.  1.
         14    1    6    6    0    0  0.12697751435E+02  0.53363355601E-01 -0.17931316173E+02  0.21971978492E+02  0.00000000000E+00 0. -1.
         -5    1    3    3    0  503 -0.82483074523E+02  0.49820874627E+02 -0.11770220866E+03  0.15218895182E+03  0.47000000000E+01 0.  1.
         11    1    4    4    0    0  0.10164285020E+02  0.12377430082E+02  0.22195318205E+02  0.27370524577E+02  0.00000000000E+00 0. -1.
        -12    1    4    4    0    0  0.25670212753E+02  0.37226701529E+02 -0.69040617744E+02  0.82531170039E+02  0.00000000000E+00 0.  1.
</event>
<event>
12    1  0.8493057E-002  0.2830740E+03  0.7818608E-02  0.1094059E+00
         21   -1    0    0  503  502  0.00000000000E+00  0.00000000000E+00  0.17594359756E+03  0.17594359756E+03  0.00000000000E+00 0. -1.
         21   -1    0    0  501  503 -0.00000000000E+00 -0.00000000000E+00 -0.84485089762E+03  0.84485089762E+03  0.00000000000E+00 0.  1.
          6    2    1    2  501    0 -0.22187328725E+03 -0.38157038869E+02 -0.68125357633E+03  0.73772443925E+03  0.17160185839E+03 0.  0.
         24    2    3    3    0    0 -0.11133939596E+03  0.42408108532E+02 -0.29909735920E+03  0.33180086468E+03  0.80235121763E+02 0.  0.
         -6    2    1    2    0  502  0.22187328725E+03  0.38157038869E+02  0.12346276267E+02  0.28307005593E+03  0.17115055015E+03 0.  0.
        -24    2    5    5    0    0  0.15774748132E+03  0.64240170010E+01  0.72767433045E+02  0.18930487129E+03  0.74937968533E+02 0.  0.
          5    1    3    3  501    0 -0.11053389129E+03 -0.80565147402E+02 -0.38215621713E+03  0.40592357457E+03  0.47000000000E+01 0. -1.
        -11    1    4    4    0    0 -0.61500017639E+02 -0.16657313618E+02 -0.16721052070E+03  0.17893875069E+03  0.00000000000E+00 0.  1.
         12    1    4    4    0    0 -0.49839378321E+02  0.59065422150E+02 -0.13188683850E+03  0.15286211399E+03  0.00000000000E+00 0. -1.
         -5    1    5    5    0  502  0.64125805937E+02  0.31733021868E+02 -0.60421156777E+02  0.93765184638E+02  0.47000000000E+01 0.  1.
         11    1    6    6    0    0  0.41204888112E+02  0.34631289109E+02  0.13218541012E+02  0.55424713045E+02  0.00000000000E+00 0. -1.
        -12    1    6    6    0    0  0.11654259320E+03 -0.28207272108E+02  0.59548892033E+02  0.13388015825E+03  0.00000000000E+00 0.  1.
</event>
<event>
12    1  0.8493057E-002  0.1984610E+03  0.7818608E-02  0.1151114E+00
         21   -1    0    0  503  502  0.00000000000E+00  0.00000000000E+00  0.51048873205E+02  0.51048873205E+02  0.00000000000E+00 0.  1.
         21   -1    0    0  501  503 -0.00000000000E+00 -0.00000000000E+00 -0.78744155788E+03  0.78744155788E+03  0.00000000000E+00 0. -1.
          6    2    1    2  501    0 -0.26555401971E+02 -0.94807996821E+02 -0.43040752855E+03  0.47395928977E+03  0.17231663325E+03 0.  0.
         24    2    3    3    0    0  0.42031886459E+01  0.14840096003E+02 -0.14207093416E+03  0.16391271776E+03  0.80282834185E+02 0.  0.
         -6    2    1    2    0  502  0.26555401971E+02  0.94807996821E+02 -0.30598515612E+03  0.36453114131E+03  0.17193688255E+03 0.  0.
        -24    2    5    5    0    0 -0.40246762414E+02  0.90864610437E+02 -0.16931619711E+03  0.21228603032E+03  0.80753976681E+02 0.  0.
          5    1    3    3  501    0 -0.30758590617E+02 -0.10964809282E+03 -0.28833659438E+03  0.31004657201E+03  0.47000000000E+01 0. -1.
        -13    1    4    4    0    0  0.39176238781E+02  0.70685080004E+00 -0.10002790786E+03  0.10742839324E+03  0.00000000000E+00 0.  1.
         14    1    4    4    0    0 -0.34973050135E+02  0.14133245203E+02 -0.42043026304E+02  0.56484324520E+02  0.00000000000E+00 0. -1.
         -5    1    5    5    0  502  0.66802164385E+02  0.39433863846E+01 -0.13666895901E+03  0.15224511099E+03  0.47000000000E+01 0.  1.
         13    1    6    6    0    0 -0.11105474355E+02  0.58965616329E+02 -0.31321157743E+02  0.67685230236E+02  0.00000000000E+00 0. -1.
        -14    1    6    6    0    0 -0.29141288059E+02  0.31898994108E+02 -0.13799503936E+03  0.14460080008E+03  0.00000000000E+00 0.  1.
</event>
<event>
12    1  0.8493057E-002  0.1740444E+03  0.7818608E-02  0.1173760E+00
         21   -1    0    0  501  502  0.00000000000E+00  0.00000000000E+00  0.49340939648E+02  0.49340939648E+02  0.00000000000E+00 0.  1.
         21   -1    0    0  502  503 -0.00000000000E+00 -0.00000000000E+00 -0.11558180779E+04  0.11558180779E+04  0.00000000000E+00 0.  1.
         -6    2    1    2    0  503 -0.12504352290E+02 -0.23596253468E+02 -0.96596630985E+03  0.98147450056E+03  0.17172111542E+03 0.  0.
        -24    2    3    3    0    0 -0.66350473961E+02  0.33634479802E+01 -0.73529358233E+03  0.74302486742E+03  0.83759197807E+02 0.  0.
          6    2    1    2  501    0  0.12504352290E+02  0.23596253468E+02 -0.14051082837E+03  0.22368451695E+03  0.17198351151E+03 0.  0.
         24    2    5    5    0    0  0.50933585707E+02  0.74728963282E+02 -0.67881073180E+02  0.12679008299E+03  0.57351869568E+02 0.  0.
          5    1    5    5  501    0 -0.38429233417E+02 -0.51132709815E+02 -0.72629755187E+02  0.96894433961E+02  0.47000000000E+01 0. -1.
        -11    1    6    6    0    0  0.38979079372E+02  0.42255670158E+02 -0.71784291388E+02  0.91966813467E+02  0.00000000000E+00 0.  1.
         12    1    6    6    0    0  0.11954506335E+02  0.32473293124E+02  0.39032182082E+01  0.34823269525E+02  0.00000000000E+00 0. -1.
         -5    1    3    3    0  503  0.53846121671E+02 -0.26959701448E+02 -0.23067272753E+03  0.23844963314E+03  0.47000000000E+01 0.  1.
         11    1    4    4    0    0 -0.40618953433E+02  0.19139921875E+02 -0.14125842600E+03  0.14822340876E+03  0.00000000000E+00 0. -1.
        -12    1    4    4    0    0 -0.25731520528E+02 -0.15776473895E+02 -0.59403515632E+03  0.59480145866E+03  0.00000000000E+00 0.  1.
</event>
<event>
12    1  0.8493057E-002  0.1937283E+03  0.7818608E-02  0.1156173E+00
         21   -1    0    0  503  502  0.00000000000E+00  0.00000000000E+00  0.15903115580E+03  0.15903115580E+03  0.00000000000E+00 0.  1.
         21   -1    0    0  501  503 -0.00000000000E+00 -0.00000000000E+00 -0.27413405357E+03  0.27413405357E+03  0.00000000000E+00 0. -1.
          6    2    1    2  501    0 -0.53857681515E+02  0.60079950556E+02 -0.14465613953E+03  0.24177690420E+03  0.17612615474E+03 0.  0.
         24    2    3    3    0    0  0.38251210870E+02  0.27607526660E+02 -0.46348812932E+02  0.10312292181E+03  0.79125178554E+02 0.  0.
         -6    2    1    2    0  502  0.53857681515E+02 -0.60079950556E+02  0.29553241760E+02  0.19138830517E+03  0.17101414836E+03 0.  0.
        -24    2    5    5    0    0 -0.16483755506E+02 -0.49523709265E+02 -0.40255529555E+02  0.91615029465E+02  0.63627776867E+02 0.  0.
          5    1    3    3  501    0 -0.92108892385E+02  0.32472423896E+02 -0.98307326596E+02  0.13865398239E+03  0.47000000000E+01 0. -1.
        -11    1    4    4    0    0  0.12774334168E+02  0.50775422126E+02 -0.44371228024E+02  0.68630408580E+02  0.00000000000E+00 0.  1.
         12    1    4    4    0    0  0.25476876703E+02 -0.23167895466E+02 -0.19775849080E+01  0.34492513230E+02  0.00000000000E+00 0. -1.
         -5    1    5    5    0  502  0.70341437021E+02 -0.10556241291E+02  0.69808771315E+02  0.99773275704E+02  0.47000000000E+01 0.  1.
         13    1    6    6    0    0  0.63432165889E+01  0.13208275265E+02 -0.12718391272E+02  0.19402381522E+02  0.00000000000E+00 0. -1.
        -14    1    6    6    0    0 -0.22826972095E+02 -0.62731984530E+02 -0.27537138283E+02  0.72212647943E+02  0.00000000000E+00 0.  1.
</event>
<event>
12    1  0.8493057E-002  0.1950654E+03  0.7818608E-02  0.1154577E+00
         21   -1    0    0  503  502  0.00000000000E+00  0.00000000000E+00  0.13338305450E+02  0.13338305450E+02  0.00000000000E+00 0. -1.
         21   -1    0    0  501  503 -0.00000000000E+00 -0.00000000000E+00 -0.35448405671E+04  0.35448405671E+04  0.00000000000E+00 0. -1.
          6    2    1    2  501    0  0.68798124844E+02 -0.58453814487E+02 -0.25844044402E+04  0.25917555497E+04  0.17291757667E+03 0.  0.
         24    2    3    3    0    0  0.17387871131E+02 -0.82031567422E+02 -0.10570532844E+04  0.10633503129E+04  0.79502992403E+02 0.  0.
         -6    2    1    2    0  502 -0.68798124844E+02  0.58453814487E+02 -0.94709782141E+03  0.96642332283E+03  0.16979318359E+03 0.  0.
        -24    2    5    5    0    0 -0.10205905669E+03  0.38885753768E+02 -0.86518162478E+03  0.87575054932E+03  0.80446428617E+02 0.  0.
          5    1    3    3  501    0  0.51410253713E+02  0.23577752936E+02 -0.15273511558E+04  0.15284052367E+04  0.47000000000E+01 0. -1.
        -11    1    4    4    0    0  0.27020241347E+01  0.55805543938E+00 -0.50078944278E+03  0.50079704308E+03  0.00000000000E+00 0.  1.
         12    1    4    4    0    0  0.14685846996E+02 -0.82589622862E+02 -0.55626384165E+03  0.56255326986E+03  0.00000000000E+00 0. -1.
         -5    1    5    5    0  502  0.33260931841E+02  0.19568060719E+02 -0.81916196624E+02  0.90672773513E+02  0.47000000000E+01 0.  1.
         11    1    6    6    0    0 -0.60518242880E+02 -0.18680632314E+02 -0.46926877904E+03  0.47352361158E+03  0.00000000000E+00 0. -1.
        -12    1    6    6    0    0 -0.41540813805E+02  0.57566386083E+02 -0.39591284575E+03  0.40222693774E+03  0.00000000000E+00 0.  1.
</event>
<event>
12    1  0.8493057E-002  0.2582456E+03  0.7818608E-02  0.1109759E+00
         21   -1    0    0  501  502  0.00000000000E+00  0.00000000000E+00  0.36726370930E+03  0.36726370930E+03  0.00000000000E+00 0.  1.
         21   -1    0    0  502  503 -0.00000000000E+00 -0.00000000000E+00 -0.20466952841E+03  0.20466952841E+03  0.00000000000E+00 0.  1.
         -6    2    1    2    0  503  0.11203937224E+03 -0.15674328633E+03  0.18954578336E+03  0.31228503450E+03  0.15643867821E+03 0.  0.
        -24    2    3    3    0    0  0.12212530961E+03 -0.79967727588E+02  0.15700013291E+03  0.22815702539E+03  0.78084299318E+02 0.  0.
          6    2    1    2  501    0 -0.11203937224E+03  0.15674328633E+03 -0.26951602469E+02  0.25964820321E+03  0.17195790709E+03 0.  0.
         24    2    5    5    0    0 -0.77016761300E+01  0.11022966058E+03 -0.44339221734E+02  0.14400093124E+03  0.80996343912E+02 0.  0.
          5    1    5    5  501    0 -0.10433769611E+03  0.46513625752E+02  0.17387619265E+02  0.11564727197E+03  0.47000000000E+01 0. -1.
        -13    1    6    6    0    0 -0.40040817882E+02  0.88870864329E+02 -0.38523811735E+02  0.10481117161E+03  0.00000000000E+00 0.  1.
         14    1    6    6    0    0  0.32339141752E+02  0.21358796251E+02 -0.58154099990E+01  0.39189759632E+02  0.00000000000E+00 0. -1.
         -5    1    3    3    0  503 -0.10085937366E+02 -0.76775558745E+02  0.32545650446E+02  0.84128009105E+02  0.47000000000E+01 0.  1.
         13    1    4    4    0    0  0.43026040073E+02 -0.13147231767E+02  0.10070500948E+03  0.11029772782E+03  0.00000000000E+00 0. -1.
        -14    1    4    4    0    0  0.79099269535E+02 -0.66820495821E+02  0.56295123429E+02  0.11785929757E+03  0.00000000000E+00 0.  1.
</event>
<event>
12    1  0.8493057E-002  0.2123593E+03  0.7818608E-02  0.1142097E+00
         21   -1    0    0  503  502  0.00000000000E+00  0.00000000000E+00  0.31868629601E+03  0.31868629601E+03  0.00000000000E+00 0.  1.
         21   -1    0    0  501  503 -0.00000000000E+00 -0.00000000000E+00 -0.19352771786E+03  0.19352771786E+03  0.00000000000E+00 0.  1.
          6    2    1    2  501    0 -0.73348787238E+02 -0.52035934307E+02 -0.78514470201E+02  0.22640892507E+03  0.19237644417E+03 0.  0.
         24    2    3    3    0    0 -0.11718246761E+03 -0.62229644726E+02 -0.89755718338E+02  0.17978533740E+03  0.81623643448E+02 0.  0.
         -6    2    1    2    0  502  0.73348787238E+02  0.52035934307E+02  0.20367304836E+03  0.28580508880E+03  0.17920394836E+03 0.  0.
        -24    2    5    5    0    0  0.45486456329E+02 -0.24645207342E+02  0.17492860433E+03  0.19917576334E+03  0.79966018618E+02 0.  0.
          5    1    3    3  501    0  0.43833680376E+02  0.10193710419E+02  0.11241248137E+02  0.46623587668E+02  0.47000000000E+01 0. -1.
        -13    1    4    4    0    0 -0.35899485520E+02 -0.26483799289E+02  0.10530760205E+02  0.45837338446E+02  0.00000000000E+00 0.  1.
         14    1    4    4    0    0 -0.81282982094E+02 -0.35745845437E+02 -0.10028647854E+03  0.13394799895E+03  0.00000000000E+00 0. -1.
         -5    1    5    5    0  502  0.27862330909E+02  0.76681141649E+02  0.28744444028E+02  0.86629325466E+02  0.47000000000E+01 0.  1.
         11    1    6    6    0    0 -0.15134904258E+02 -0.22366978860E+02  0.95412923142E+02  0.99161348179E+02  0.00000000000E+00 0. -1.
        -12    1    6    6    0    0  0.60621360587E+02 -0.22782284815E+01  0.79515681187E+02  0.10001441516E+03  0.00000000000E+00 0.  1.
</event>
<event>
12    1  0.8493057E-002  0.1928443E+03  0.7818608E-02  0.1155979E+00
         21   -1    0    0  503  502  0.00000000000E+00  0.00000000000E+00  0.12432834986E+03  0.12432834986E+03  0.00000000000E+00 0.  1.
         21   -1    0    0  501  503 -0.00000000000E+00 -0.00000000000E+00 -0.31370615565E+03  0.31370615565E+03  0.00000000000E+00 0. -1.
          6    2    1    2  501    0 -0.10023855653E+02 -0.85786777516E+02 -0.14263604551E+03  0.23986238598E+03  0.17242121056E+03 0.  0.
         24    2    3    3    0    0  0.54210113884E+01 -0.26610268880E+01 -0.95898744923E+01  0.82154402806E+02  0.81368985364E+02 0.  0.
         -6    2    1    2    0  502  0.10023855653E+02  0.85786777516E+02 -0.46741760283E+02  0.19817211953E+03  0.17212654626E+03 0.  0.
        -24    2    5    5    0    0  0.44809294682E+02  0.11043082577E+03 -0.11057507575E+02  0.14237954141E+03  0.77115660980E+02 0.  0.
          5    1    3    3  501    0 -0.15444867041E+02 -0.83125750628E+02 -0.13304617102E+03  0.15770798318E+03  0.47000000000E+01 0. -1.
        -13    1    4    4    0    0 -0.18772757701E+02 -0.26770277708E+01 -0.39421551272E+02  0.43745189611E+02  0.00000000000E+00 0.  1.
         14    1    4    4    0    0  0.24193769089E+02  0.16000882863E-01  0.29831676780E+02  0.38409213195E+02  0.00000000000E+00 0. -1.
         -5    1    5    5    0  502 -0.34785439029E+02 -0.24644048249E+02 -0.35684252708E+02  0.55792578125E+02  0.47000000000E+01 0.  1.
         13    1    6    6    0    0 -0.71071720161E+01  0.39185065971E+02 -0.32788742117E+02  0.51585685019E+02  0.00000000000E+00 0. -1.
        -14    1    6    6    0    0  0.51916466698E+02  0.71245759794E+02  0.21731234543E+02  0.90793856388E+02  0.00000000000E+00 0.  1.
</event>
<event>
12    1  0.8493057E-002  0.1987024E+03  0.7818608E-02  0.1150924E+00
         21   -1    0    0  503  502  0.00000000000E+00  0.00000000000E+00  0.16045432595E+03  0.16045432595E+03  0.00000000000E+00 0.  1.
         21   -1    0    0  501  503 -0.00000000000E+00 -0.00000000000E+00 -0.38586711499E+03  0.38586711499E+03  0.00000000000E+00 0.  1.
          6    2    1    2  501    0  0.90513847869E+02 -0.43287918202E+02 -0.27748846833E+03  0.34129534438E+03  0.17151111195E+03 0.  0.
         24    2    3    3    0    0  0.28282901518E+02  0.23352530306E+02 -0.62865578623E+02  0.10806002363E+03  0.79872551859E+02 0.  0.
         -6    2    1    2    0  502 -0.90513847869E+02  0.43287918202E+02  0.52075679295E+02  0.20502609655E+03  0.17104743019E+03 0.  0.
        -24    2    5    5    0    0 -0.30485691737E+01 -0.51502279955E+01 -0.18973369222E+02  0.82280480417E+02  0.79839026144E+02 0.  0.
          5    1    3    3  501    0  0.62230946350E+02 -0.66640448508E+02 -0.21462288971E+03  0.23323532076E+03  0.47000000000E+01 0. -1.
        -11    1    4    4    0    0  0.43003766611E+02  0.28927256234E+02 -0.72860804384E+02  0.89413684139E+02  0.00000000000E+00 0.  1.
         12    1    4    4    0    0 -0.14720865092E+02 -0.55747259283E+01  0.99952257607E+01  0.18646339487E+02  0.00000000000E+00 0. -1.
         -5    1    5    5    0  502 -0.87465278695E+02  0.48438146198E+02  0.71049048516E+02  0.12274561613E+03  0.47000000000E+01 0.  1.
         11    1    6    6    0    0 -0.39088832122E+02 -0.15872231237E+02 -0.13418733846E+02  0.44271062096E+02  0.00000000000E+00 0. -1.
        -12    1    6    6    0    0  0.36040262949E+02  0.10722003241E+02 -0.55546353762E+01  0.38009418321E+02  0.00000000000E+00 0.  1.
</event>
<event>
12    1  0.8493057E-002  0.1767548E+03  0.7818608E-02  0.1172950E+00
         21   -1    0    0  503  502  0.00000000000E+00  0.00000000000E+00  0.89209490546E+03  0.89209490546E+03  0.00000000000E+00 0. -1.
         21   -1    0    0  501  503 -0.00000000000E+00 -0.00000000000E+00 -0.40969703367E+02  0.40969703367E+02  0.00000000000E+00 0. -1.
          6    2    1    2  501    0  0.21723744058E+02  0.32606736141E+02  0.23422116974E+03  0.29343111027E+03  0.17235759287E+03 0.  0.
         24    2    3    3    0    0  0.64656286720E+02 -0.22938515861E+02  0.13541254473E+03  0.17213101704E+03  0.81153674204E+02 0.  0.
         -6    2    1    2    0  502 -0.21723744058E+02 -0.32606736141E+02  0.61690403236E+03  0.63963349856E+03  0.16439375611E+03 0.  0.
        -24    2    5    5    0    0  0.48363982809E+02 -0.20334865309E+02  0.29447234826E+03  0.30941059024E+03  0.79173024971E+02 0.  0.
          5    1    3    3  501    0 -0.42932542661E+02  0.55545252001E+02  0.98808625011E+02  0.12130009322E+03  0.47000000000E+01 0. -1.
        -11    1    4    4    0    0  0.15086840683E+02 -0.28663063535E+02  0.11277998767E+03  0.11733929262E+03  0.00000000000E+00 0.  1.
         12    1    4    4    0    0  0.49569446037E+02  0.57245476745E+01  0.22632557052E+02  0.54791724422E+02  0.00000000000E+00 0. -1.
         -5    1    5    5    0  502 -0.70087726867E+02 -0.12271870831E+02  0.32243168410E+03  0.33022290832E+03  0.47000000000E+01 0.  1.
         13    1    6    6    0    0  0.48371250935E+02  0.19900339564E+02  0.20001519850E+03  0.20674109670E+03  0.00000000000E+00 0. -1.
        -14    1    6    6    0    0 -0.72681267542E-02 -0.40235204874E+02  0.94457149759E+02  0.10266949354E+03  0.00000000000E+00 0.  1.
</event>
<event>
12    1  0.8493057E-002  0.1817270E+03  0.7818608E-02  0.1167485E+00
         21   -1    0    0  501  502  0.00000000000E+00  0.00000000000E+00  0.42173642986E+03  0.42173642986E+03  0.00000000000E+00 0.  1.
         21   -1    0    0  502  503 -0.00000000000E+00 -0.00000000000E+00 -0.75998629100E+02  0.75998629100E+02  0.00000000000E+00 0. -1.
         -6    2    1    2    0  503  0.10788054735E+02 -0.37830544923E+02  0.16880208901E+03  0.24802991235E+03  0.17741803716E+03 0.  0.
        -24    2    3    3    0    0  0.16101391492E+02  0.81125247662E+01  0.59461366639E+01  0.78668912070E+02  0.76343783761E+02 0.  0.
          6    2    1    2  501    0 -0.10788054735E+02  0.37830544923E+02  0.17693571175E+03  0.24970514661E+03  0.17175238542E+03 0.  0.
         24    2    5    5    0    0 -0.65439735684E+02  0.32629309182E+02  0.66967905332E+02  0.12670568510E+03  0.78883454973E+02 0.  0.
          5    1    5    5  501    0  0.54651680949E+02  0.52012357404E+01  0.10996780641E+03  0.12299946151E+03  0.47000000000E+01 0. -1.
        -11    1    6    6    0    0 -0.43910937639E+02 -0.95316098454E+01  0.65389507450E+02  0.79339836874E+02  0.00000000000E+00 0.  1.
         12    1    6    6    0    0 -0.21528798045E+02  0.42160919028E+02  0.15783978821E+01  0.47365848229E+02  0.00000000000E+00 0. -1.
         -5    1    3    3    0  503 -0.53133367567E+01 -0.45943069689E+02  0.16285595235E+03  0.16936100028E+03  0.47000000000E+01 0.  1.
         13    1    4    4    0    0 -0.14780737357E+02 -0.23542513731E+02  0.17643344292E+02  0.32924272921E+02  0.00000000000E+00 0. -1.
        -14    1    4    4    0    0  0.30882128849E+02  0.31655038497E+02 -0.11697207628E+02  0.45744639148E+02  0.00000000000E+00 0.  1.
</event>
<event>
12    1  0.8493057E-002  0.1830570E+03  0.7818608E-02  0.1165120E+00
         21   -1    0    0  501  502  0.00000000000E+00  0.00000000000E+00  0.11722201660E+04  0.11722201660E+04  0.00000000000E+00 0. -1.
         21   -1    0    0  502  503 -0.00000000000E+00 -0.00000000000E+00 -0.35353115714E+02  0.35353115714E+02  0.00000000000E+00 0.  1.
         -6    2    1    2    0  503  0.40060996705E+02 -0.42484447258E+02  0.30246784761E+03  0.35354868239E+03  0.17349368942E+03 0.  0.
        -24    2    3    3    0    0  0.66049457493E+02 -0.72135595460E+02  0.15258726729E+03  0.19849750038E+03  0.80946331315E+02 0.  0.
          6    2    1    2  501    0 -0.40060996705E+02  0.42484447258E+02  0.83439920263E+03  0.85402459928E+03  0.17241280435E+03 0.  0.
         24    2    5    5    0    0 -0.20074070537E+01 -0.34080531762E+02  0.55574935302E+03  0.56251456448E+03  0.79998622140E+02 0.  0.
          5    1    5    5  501    0 -0.38053589652E+02  0.76564979020E+02  0.27864984961E+03  0.29151003480E+03  0.47000000000E+01 0. -1.
        -13    1    6    6    0    0 -0.37810295535E+02 -0.29524445818E+02  0.24302892117E+03  0.24771832366E+03  0.00000000000E+00 0.  1.
         14    1    6    6    0    0  0.35802888481E+02 -0.45560859433E+01  0.31272043185E+03  0.31479624082E+03  0.00000000000E+00 0. -1.
         -5    1    3    3    0  503 -0.25988460788E+02  0.29651148203E+02  0.14988058032E+03  0.15505118201E+03  0.47000000000E+01 0.  1.
         11    1    4    4    0    0  0.72903124598E+01 -0.18650838566E+02 -0.61807965886E+01  0.20957210727E+02  0.00000000000E+00 0. -1.
        -12    1    4    4    0    0  0.58759145033E+02 -0.53484756894E+02  0.15876806387E+03  0.17754028966E+03  0.00000000000E+00 0.  1.
</event>
<event>
12    1  0.8493057E-002  0.3277749E+03  0.7818608E-02  0.1072135E+00
         21   -1    0    0  501  502  0.00000000000E+00  0.00000000000E+00  0.64182291045E+03  0.64182291045E+03  0.00000000000E+00 0.  1.
         21   -1    0    0  502  503 -0.00000000000E+00 -0.00000000000E+00 -0.19239858169E+03  0.19239858169E+03  0.00000000000E+00 0. -1.
         -6    2    1    2    0  503  0.25349739237E+03  0.11639610398E+03  0.37524533198E+03  0.49824237499E+03  0.17212618658E+03 0.  0.
        -24    2    3    3    0    0  0.23936189706E+03  0.10190794348E+03  0.24477586721E+03  0.36612844591E+03  0.80345920991E+02 0.  0.
          6    2    1    2  501    0 -0.25349739237E+03 -0.11639610398E+03  0.74178996784E+02  0.33597911714E+03  0.17196064269E+03 0.  0.
         24    2    5    5    0    0 -0.11461475731E+03 -0.73314911040E+02 -0.24465919622E+02  0.16020288144E+03  0.80961492230E+02 0.  0.
          5    1    5    5  501    0 -0.13888263506E+03 -0.43081192939E+02  0.98644916406E+02  0.17577623571E+03  0.47000000000E+01 0. -1.
        -11    1    6    6    0    0 -0.51385269295E+02 -0.38713367584E+01 -0.39710811533E+02  0.65056757539E+02  0.00000000000E+00 0.  1.
         12    1    6    6    0    0 -0.63229488012E+02 -0.69443574282E+02  0.15244891911E+02  0.95146123898E+02  0.00000000000E+00 0. -1.
         -5    1    3    3    0  503  0.14135495306E+02  0.14488160494E+02  0.13046946477E+03  0.13211392909E+03  0.47000000000E+01 0.  1.
         13    1    4    4    0    0  0.11135433059E+03  0.79993142220E+02  0.89650737785E+02  0.16381680173E+03  0.00000000000E+00 0. -1.
        -14    1    4    4    0    0  0.12800756647E+03  0.21914801265E+02  0.15512512943E+03  0.20231164417E+03  0.00000000000E+00 0.  1.
</event>
<event>
12    1  0.8493057E-002  0.2318441E+03  0.7818608E-02  0.1126240E+00
         21   -1    0    0  503  502  0.00000000000E+00  0.00000000000E+00  0.14071380801E+03  0.14071380801E+03  0.00000000000E+00 0.  1.
         21   -1    0    0  501  503 -0.00000000000E+00 -0.00000000000E+00 -0.10984602235E+04  0.10984602235E+04  0.00000000000E+00 0.  1.
          6    2    1    2  501    0 -0.14700497238E+03  0.37361242596E+01 -0.98034133678E+03  0.10062314973E+04  0.17265071423E+03 0.  0.
         24    2    3    3    0    0 -0.15436552784E+03 -0.33052007573E+02 -0.63723079689E+03  0.66104390052E+03  0.77426084228E+02 0.  0.
         -6    2    1    2    0  502  0.14700497238E+03 -0.37361242596E+01  0.22594921280E+02  0.23294253417E+03  0.17924082467E+03 0.  0.
        -24    2    5    5    0    0  0.14871962982E+03  0.16446262751E+02  0.68380541333E+02  0.18265653414E+03  0.79369409599E+02 0.  0.
          5    1    3    3  501    0  0.73605554543E+01  0.36788131832E+02 -0.34311053989E+03  0.34518759683E+03  0.47000000000E+01 0. -1.
        -11    1    4    4    0    0 -0.91997400944E+02 -0.17445526797E+02 -0.50964060279E+03  0.51817121900E+03  0.00000000000E+00 0.  1.
         12    1    4    4    0    0 -0.62368126895E+02 -0.15606480776E+02 -0.12759019410E+03  0.14287268152E+03  0.00000000000E+00 0. -1.
         -5    1    5    5    0  502 -0.17146574323E+01 -0.20182387011E+02 -0.45785620054E+02  0.50286000032E+02  0.47000000000E+01 0.  1.
         11    1    6    6    0    0  0.31834282094E+02  0.33049729513E+02 -0.65918967731E+00  0.45892708227E+02  0.00000000000E+00 0. -1.
        -12    1    6    6    0    0  0.11688534772E+03 -0.16603466762E+02  0.69039731011E+02  0.13676382591E+03  0.00000000000E+00 0.  1.
</event>
<event>
12    1  0.8493057E-002  0.1825006E+03  0.7818608E-02  0.1165640E+00
         21   -1    0    0  501  502  0.00000000000E+00  0.00000000000E+00  0.19979458608E+03  0.19979458608E+03  0.00000000000E+00 0. -1.
         21   -1    0    0  502  503 -0.00000000000E+00 -0.00000000000E+00 -0.18748216284E+03  0.18748216284E+03  0.00000000000E+00 0. -1.
         -6    2    1    2    0  503 -0.23685659889E+02 -0.50325568169E+02 -0.59674493261E+02  0.19200919633E+03  0.17381833342E+03 0.  0.
        -24    2    3    3    0    0  0.26391348813E+02  0.27810814979E+01 -0.79079525628E+02  0.11633444281E+03  0.81091883095E+02 0.  0.
          6    2    1    2  501    0  0.23685659889E+02  0.50325568169E+02  0.71986916499E+02  0.19526755259E+03  0.17278202352E+03 0.  0.
         24    2    5    5    0    0  0.13175565798E+02  0.10825273846E+03  0.33553658491E+02  0.12480320375E+03  0.50574111473E+02 0.  0.
          5    1    5    5  501    0  0.10510094091E+02 -0.57927170289E+02  0.38433258008E+02  0.70464348834E+02  0.47000000000E+01 0. -1.
        -11    1    6    6    0    0 -0.28586481119E+01  0.73797594235E+02  0.43246325150E+02  0.85583301076E+02  0.00000000000E+00 0.  1.
         12    1    6    6    0    0  0.16034213910E+02  0.34455144223E+02 -0.96926666596E+01  0.39219902679E+02  0.00000000000E+00 0. -1.
         -5    1    3    3    0  503 -0.50077008702E+02 -0.53106649667E+02  0.19405032366E+02  0.75674753522E+02  0.47000000000E+01 0.  1.
         13    1    4    4    0    0  0.37342406393E+02  0.25698393592E+02 -0.15563035981E+02  0.47927766873E+02  0.00000000000E+00 0. -1.
        -14    1    4    4    0    0 -0.10951057580E+02 -0.22917312094E+02 -0.63516489647E+02  0.68406675937E+02  0.00000000000E+00 0.  1.
</event>
<event>
12    1  0.8493057E-002  0.2006717E+03  0.7818608E-02  0.1149238E+00
         21   -1    0    0  501  502  0.00000000000E+00  0.00000000000E+00  0.46521472550E+03  0.46521472550E+03  0.00000000000E+00 0. -1.
         21   -1    0    0  502  503 -0.00000000000E+00 -0.00000000000E+00 -0.49379050773E+03  0.49379050773E+03  0.00000000000E+00 0. -1.
         -6    2    1    2    0  503  0.99481003632E+02  0.25361487356E+02 -0.44980835875E+03  0.49241544274E+03  0.17206316725E+03 0.  0.
        -24    2    3    3    0    0 -0.38600476084E+01 -0.16715531099E+02 -0.28507238673E+03  0.29339313537E+03  0.67223189889E+02 0.  0.
          6    2    1    2  501    0 -0.99481003632E+02 -0.25361487356E+02  0.42123257652E+03  0.46658979050E+03  0.17242237079E+03 0.  0.
         24    2    5    5    0    0  0.19257776953E+02 -0.14497180394E+02  0.18927606903E+03  0.20573956039E+03  0.76956521412E+02 0.  0.
          5    1    5    5  501    0 -0.11873878059E+03 -0.10864306963E+02  0.23195650749E+03  0.26085023011E+03  0.47000000000E+01 0. -1.
        -11    1    6    6    0    0  0.18103435855E+02  0.17304276645E+02  0.16346033328E+02  0.29905938968E+02  0.00000000000E+00 0.  1.
         12    1    6    6    0    0  0.11543410983E+01 -0.31801457039E+02  0.17293003571E+03  0.17583362142E+03  0.00000000000E+00 0. -1.
         -5    1    3    3    0  503  0.10334105124E+03  0.42077018455E+02 -0.16473597202E+03  0.19902230737E+03  0.47000000000E+01 0.  1.
         13    1    4    4    0    0 -0.20920486195E+02 -0.36912703743E+02 -0.15786281247E+03  0.16346523178E+03  0.00000000000E+00 0. -1.
        -14    1    4    4    0    0  0.17060438587E+02  0.20197172645E+02 -0.12720957427E+03  0.12992790359E+03  0.00000000000E+00 0.  1.
</event>
<event>
12    1  0.8493057E-002  0.1837828E+03  0.7818608E-02  0.1164297E+00
         21   -1    0    0  503  502  0.00000000000E+00  0.00000000000E+00  0.38712800998E+03  0.38712800998E+03  0.00000000000E+00 0. -1.
         21   -1    0    0  501  503 -0.00000000000E+00 -0.00000000000E+00 -0.13537995207E+03  0.13537995207E+03  0.00000000000E+00 0. -1.
          6    2    1    2  501    0  0.34031778697E+02 -0.52723944058E+02 -0.30148177043E+02  0.18623920485E+03  0.17273723572E+03 0.  0.
         24    2    3    3    0    0  0.56712952283E+02 -0.50946039641E+02 -0.76141336871E+02  0.13471195642E+03  0.80857591543E+02 0.  0.
         -6    2    1    2    0  502 -0.34031778697E+02  0.52723944058E+02  0.28189623496E+03  0.33626875720E+03  0.17225914648E+03 0.  0.
        -24    2    5    5    0    0  0.53041566874E+01 -0.14329708895E+01  0.45853043430E+02  0.90873635985E+02  0.78264478798E+02 0.  0.
          5    1    3    3  501    0 -0.22681173586E+02 -0.17779044174E+01  0.45993159828E+02  0.51527248426E+02  0.47000000000E+01 0. -1.
        -11    1    4    4    0    0  0.20183491404E+02  0.16665322761E+02  0.49836637404E+00  0.26179279536E+02  0.00000000000E+00 0.  1.
         12    1    4    4    0    0  0.36529460879E+02 -0.67611362402E+02 -0.76639703245E+02  0.10853267688E+03  0.00000000000E+00 0. -1.
         -5    1    5    5    0  502 -0.39335935385E+02  0.54156914948E+02  0.23604319153E+03  0.24539512122E+03  0.47000000000E+01 0.  1.
         13    1    6    6    0    0  0.23132263258E+02  0.10934576642E+02  0.59824683470E+02  0.65066576074E+02  0.00000000000E+00 0. -1.
        -14    1    6    6    0    0 -0.17828106571E+02 -0.12367547532E+02 -0.13971640040E+02  0.25807059911E+02  0.00000000000E+00 0.  1.
</event>
<event>
12    1  0.8493057E-002  0.1799568E+03  0.7818608E-02  0.1167917E+00
         21   -1    0    0  503  502  0.00000000000E+00  0.00000000000E+00  0.73159354646E+02  0.73159354646E+02  0.00000000000E+00 0.  1.
         21   -1    0    0  501  503 -0.00000000000E+00 -0.00000000000E+00 -0.48118588279E+03  0.48118588279E+03  0.00000000000E+00 0.  1.
          6    2    1    2  501    0  0.51619128540E+02 -0.64617337009E+01 -0.28333698721E+03  0.33565500212E+03  0.17227345615E+03 0.  0.
         24    2    3    3    0    0  0.36777120189E+02 -0.60007572503E+01 -0.48855496638E+02  0.10065679547E+03  0.79726816473E+02 0.  0.
         -6    2    1    2    0  502 -0.51619128540E+02  0.64617337009E+01 -0.12468954094E+03  0.21869023532E+03  0.17196409209E+03 0.  0.
        -24    2    5    5    0    0 -0.78851150409E+02 -0.37768515252E+02 -0.11844772596E+03  0.16616454454E+03  0.77050810577E+02 0.  0.
          5    1    3    3  501    0  0.14842008352E+02 -0.46097645053E+00 -0.23448149057E+03  0.23499820665E+03  0.47000000000E+01 0. -1.
        -13    1    4    4    0    0  0.49591214831E+02 -0.30218171905E+02 -0.43935321315E+02  0.72819907723E+02  0.00000000000E+00 0.  1.
         14    1    4    4    0    0 -0.12814094642E+02  0.24217414655E+02 -0.49201753232E+01  0.27836887744E+02  0.00000000000E+00 0. -1.
         -5    1    5    5    0  502  0.27232021869E+02  0.44230248953E+02 -0.62418149750E+01  0.52525690778E+02  0.47000000000E+01 0.  1.
         11    1    6    6    0    0 -0.41007618672E+02 -0.23898656879E+02 -0.74103977978E+01  0.48038365764E+02  0.00000000000E+00 0. -1.
        -12    1    6    6    0    0 -0.37843531737E+02 -0.13869858373E+02 -0.11103732817E+03  0.11812617878E+03  0.00000000000E+00 0.  1.
</event>
<event>
12    1  0.8493057E-002  0.2134751E+03  0.7818608E-02  0.1138987E+00
         21   -1    0    0  501  502  0.00000000000E+00  0.00000000000E+00  0.47714013367E+03  0.47714013367E+03  0.00000000000E+00 0. -1.
         21   -1    0    0  502  503 -0.00000000000E+00 -0.00000000000E+00 -0.37878359434E+03  0.37878359434E+03  0.00000000000E+00 0.  1.
         -6    2    1    2    0  503 -0.12104008724E+03  0.34856851116E+02 -0.32111056741E+03  0.38559511848E+03  0.17235398489E+03 0.  0.
        -24    2    3    3    0    0 -0.94802280685E+02  0.84392374706E+02 -0.18131212929E+03  0.23490376541E+03  0.78715598484E+02 0.  0.
          6    2    1    2  501    0  0.12104008724E+03 -0.34856851116E+02  0.41946710674E+03  0.47032860953E+03  0.17143699868E+03 0.  0.
         24    2    5    5    0    0  0.64002059974E+01 -0.43162017161E+02  0.24001028017E+03  0.25716641599E+03  0.81398455524E+02 0.  0.
          5    1    5    5  501    0  0.11463988124E+03  0.83051660443E+01  0.17945682656E+03  0.21316219354E+03  0.47000000000E+01 0. -1.
        -13    1    6    6    0    0 -0.16144967407E+02  0.18642827173E+02  0.90935299051E+02  0.94220186749E+02  0.00000000000E+00 0.  1.
         14    1    6    6    0    0  0.22545173404E+02 -0.61804844333E+02  0.14907498112E+03  0.16294622924E+03  0.00000000000E+00 0. -1.
         -5    1    3    3    0  503 -0.26237806553E+02 -0.49535523590E+02 -0.13979843812E+03  0.15069135307E+03  0.47000000000E+01 0.  1.
         13    1    4    4    0    0 -0.33585599265E+02  0.49566274003E+01 -0.83355301391E+01  0.34957712967E+02  0.00000000000E+00 0. -1.
        -14    1    4    4    0    0 -0.61216681421E+02  0.79435747306E+02 -0.17297659915E+03  0.19994605244E+03  0.00000000000E+00 0.  1.
</event>
<event>
12    1  0.8493057E-002  0.1979100E+03  0.7818608E-02  0.1151680E+00
         21   -1    0    0  503  502  0.00000000000E+00  0.00000000000E+00  0.26406189973E+02  0.26406189973E+02  0.00000000000E+00 0.  1.
         21   -1    0    0  501  503 -0.00000000000E+00 -0.00000000000E+00 -0.16099558791E+04  0.16099558791E+04  0.00000000000E+00 0.  1.
          6    2    1    2  501    0  0.38336789553E+02 -0.88846917758E+02 -0.10250252382E+04  0.10438100077E+04  0.17175304659E+03 0.  0.
         24    2    3    3    0    0  0.24152217767E+00 -0.40887652147E+02 -0.23921814407E+03  0.25560558007E+03  0.80231126639E+02 0.  0.
         -6    2    1    2    0  502 -0.38336789553E+02  0.88846917758E+02 -0.55852445088E+03  0.59255206132E+03  0.17264095376E+03 0.  0.
        -24    2    5    5    0    0 -0.32817591381E+02  0.82397626498E+02 -0.56715225866E+03  0.57956807221E+03  0.79819187321E+02 0.  0.
          5    1    3    3  501    0  0.38095267375E+02 -0.47959265611E+02 -0.78580709414E+03  0.78820442764E+03  0.47000000000E+01 0. -1.
        -13    1    4    4    0    0  0.23643996447E+02 -0.33437273406E+02 -0.22166920370E+03  0.22542033114E+03  0.00000000000E+00 0.  1.
         14    1    4    4    0    0 -0.23402474270E+02 -0.74503787413E+01 -0.17548940371E+02  0.30185248938E+02  0.00000000000E+00 0. -1.
         -5    1    5    5    0  502 -0.55191981721E+01  0.64492912596E+01  0.86278077779E+01  0.12983989112E+02  0.47000000000E+01 0.  1.
         11    1    6    6    0    0 -0.46858788059E+02  0.56064519209E+02 -0.50887612005E+03  0.51409520703E+03  0.00000000000E+00 0. -1.
        -12    1    6    6    0    0  0.14041196678E+02  0.26333107290E+02 -0.58276138610E+02  0.65472865181E+02  0.00000000000E+00 0.  1.
</event>
<event>
12    1  0.8493057E-002  0.1734664E+03  0.7818608E-02  0.1174389E+00
         21   -1    0    0  503  502  0.00000000000E+00  0.00000000000E+00  0.20753716296E+02  0.20753716296E+02  0.00000000000E+00 0.  1.
         21   -1    0    0  501  503 -0.00000000000E+00 -0.00000000000E+00 -0.20667424918E+04  0.20667424918E+04  0.00000000000E+00 0.  1.
          6    2    1    2  501    0 -0.93018160744E+01 -0.13394337754E+02 -0.45201268810E+03  0.48415500026E+03  0.17269818184E+03 0.  0.
         24    2    3    3    0    0 -0.55919347016E+02  0.37388463332E+02 -0.23371397914E+03  0.25518228702E+03  0.77271631284E+02 0.  0.
         -6    2    1    2    0  502  0.93018160744E+01  0.13394337754E+02 -0.15939760874E+04  0.16033412078E+04  0.17227109291E+03 0.  0.
        -24    2    5    5    0    0  0.68096652709E+02  0.24492212097E+01 -0.12182805067E+04  0.12228863646E+04  0.81243552873E+02 0.  0.
          5    1    3    3  501    0  0.46617530942E+02 -0.50782801086E+02 -0.21829870896E+03  0.22897271324E+03  0.47000000000E+01 0. -1.
        -13    1    4    4    0    0  0.52443856635E+01  0.31441735343E+02 -0.13651089863E+03  0.14018313646E+03  0.00000000000E+00 0.  1.
         14    1    4    4    0    0 -0.61163732680E+02  0.59467279892E+01 -0.97203080513E+02  0.11499915056E+03  0.00000000000E+00 0. -1.
         -5    1    5    5    0  502 -0.58794836635E+02  0.10945116544E+02 -0.37569558068E+03  0.38045484323E+03  0.47000000000E+01 0.  1.
         13    1    6    6    0    0 -0.12275868610E+02  0.94429119000E+01 -0.66324630142E+02  0.68108898822E+02  0.00000000000E+00 0. -1.
        -14    1    6    6    0    0  0.80372521320E+02 -0.69936906903E+01 -0.11519558766E+04  0.11547774658E+04  0.00000000000E+00 0.  1.
</event>
<event>
12    1  0.8493057E-002  0.1747420E+03  0.7818608E-02  0.1173609E+00
         21   -1    0    0  503  502  0.00000000000E+00  0.00000000000E+00  0.35297690171E+03  0.35297690171E+03  0.00000000000E+00 0.  1.
         21   -1    0    0  501  503 -0.00000000000E+00 -0.00000000000E+00 -0.12398371415E+03  0.12398371415E+03  0.00000000000E+00 0.  1.
          6    2    1    2  501    0  0.57146382812E+01 -0.12377000938E+02  0.24714320874E+03  0.30127857907E+03  0.17176486642E+03 0.  0.
         24    2    3    3    0    0  0.55948370807E+02  0.13778001338E+02  0.21217766203E+03  0.23455383490E+03  0.81707329436E+02 0.  0.
         -6    2    1    2    0  502 -0.57146382812E+01  0.12377000938E+02 -0.18150021185E+02  0.17568203680E+03  0.17420937845E+03 0.  0.
        -24    2    5    5    0    0  0.52126167410E+02  0.34658278394E+02  0.17197818586E+02  0.10417277932E+03  0.81473120706E+02 0.  0.
          5    1    3    3  501    0 -0.50233732526E+02 -0.26155002277E+02  0.34965546709E+02  0.66724744168E+02  0.47000000000E+01 0. -1.
        -11    1    4    4    0    0  0.74530371441E+02  0.58259170941E+01  0.13034060841E+03  0.15025775114E+03  0.00000000000E+00 0.  1.
         12    1    4    4    0    0 -0.18582000634E+02  0.79520842441E+01  0.81837053626E+02  0.84296083762E+02  0.00000000000E+00 0. -1.
         -5    1    5    5    0  502 -0.57840805692E+02 -0.22281277456E+02 -0.35347839771E+02  0.71509257475E+02  0.47000000000E+01 0.  1.
         13    1    6    6    0    0 -0.13507272634E+02 -0.12434681266E+02  0.14418579903E+02  0.23344445991E+02  0.00000000000E+00 0. -1.
        -14    1    6    6    0    0  0.65633440045E+02  0.47092959660E+02  0.27792386829E+01  0.80828333332E+02  0.00000000000E+00 0.  1.
</event>
<event>
12    1  0.8493057E-002  0.2964291E+03  0.7818608E-02  0.1087062E+00
         21   -1    0    0  501  502  0.00000000000E+00  0.00000000000E+00  0.12474707161E+04  0.12474707161E+04  0.00000000000E+00 0.  1.
         21   -1    0    0  502  503 -0.00000000000E+00 -0.00000000000E+00 -0.72210404193E+02  0.72210404193E+02  0.00000000000E+00 0.  1.
         -6    2    1    2    0  503 -0.67735237590E+02  0.23170747014E+03  0.48321746737E+03  0.56689445690E+03  0.17202845802E+03 0.  0.
        -24    2    3    3    0    0 -0.76065040320E+02  0.16792264008E+03  0.45299832204E+03  0.49566821944E+03  0.80595288811E+02 0.  0.
          6    2    1    2  501    0  0.67735237590E+02 -0.23170747014E+03  0.69204284456E+03  0.75278666340E+03  0.17172084256E+03 0.  0.
         24    2    5    5    0    0  0.99459643908E+02 -0.13415088788E+03  0.52616091823E+03  0.55769020475E+03  0.79274025484E+02 0.  0.
          5    1    5    5  501    0 -0.31724406319E+02 -0.97556582255E+02  0.16588192632E+03  0.19509645865E+03  0.47000000000E+01 0. -1.
        -13    1    6    6    0    0  0.66145799586E+02 -0.12057412377E+03  0.31830349564E+03  0.34674270210E+03  0.00000000000E+00 0.  1.
         14    1    6    6    0    0  0.33313844322E+02 -0.13576764115E+02  0.20785742259E+03  0.21094750265E+03  0.00000000000E+00 0. -1.
         -5    1    3    3    0  503  0.83298027303E+01  0.63784830057E+02  0.30219145323E+02  0.71226237462E+02  0.47000000000E+01 0.  1.
         11    1    4    4    0    0 -0.80467261203E+02  0.81990645377E+02  0.27162897198E+03  0.29492328574E+03  0.00000000000E+00 0. -1.
        -12    1    4    4    0    0  0.44022208831E+01  0.85931994706E+02  0.18136935006E+03  0.20074493370E+03  0.00000000000E+00 0.  1.
</event>
<event>
12    1  0.8493057E-002  0.1879763E+03  0.7818608E-02  0.1162149E+00
         21   -1    0    0  501  502  0.00000000000E+00  0.00000000000E+00  0.13161973677E+03  0.13161973677E+03  0.00000000000E+00 0. -1.
         21   -1    0    0  502  503 -0.00000000000E+00 -0.00000000000E+00 -0.34567129889E+03  0.34567129889E+03  0.00000000000E+00 0. -1.
         -6    2    1    2    0  503 -0.54254760157E+02 -0.58073115854E+01 -0.22596199490E+03  0.28893779266E+03  0.17160687929E+03 0.  0.
        -24    2    3    3    0    0 -0.87941310647E+02  0.54611934322E+00 -0.22497223637E+03  0.25432248693E+03  0.79582962108E+02 0.  0.
          6    2    1    2  501    0  0.54254760157E+02  0.58073115854E+01  0.11910432773E+02  0.18835324300E+03  0.17988268920E+03 0.  0.
         24    2    5    5    0    0 -0.17591478960E+02  0.51011956327E+02 -0.19486642345E+02  0.97726490288E+02  0.79114207661E+02 0.  0.
          5    1    5    5  501    0  0.71846239117E+02 -0.45204644742E+02  0.31397075118E+02  0.90626752714E+02  0.47000000000E+01 0. -1.
        -13    1    6    6    0    0 -0.36321079906E+02 -0.50297039317E+01 -0.68613624082E+01  0.37304115876E+02  0.00000000000E+00 0.  1.
         14    1    6    6    0    0  0.18729600946E+02  0.56041660259E+02 -0.12625279937E+02  0.60422374412E+02  0.00000000000E+00 0. -1.
         -5    1    3    3    0  503  0.33686550490E+02 -0.63534309286E+01 -0.98975853186E+00  0.34615305725E+02  0.47000000000E+01 0.  1.
         13    1    4    4    0    0 -0.77354424630E+02  0.58481202881E+01 -0.89945133325E+02  0.11877724752E+03  0.00000000000E+00 0. -1.
        -14    1    4    4    0    0 -0.10586886017E+02 -0.53020009449E+01 -0.13502710305E+03  0.13554523941E+03  0.00000000000E+00 0.  1.
</event>
<event>
12    1  0.8493057E-002  0.2625521E+03  0.7818608E-02  0.1106598E+00
         21   -1    0    0  501  502  0.00000000000E+00  0.00000000000E+00  0.12069093197E+04  0.12069093197E+04  0.00000000000E+00 0.  1.
         21   -1    0    0  502  503 -0.00000000000E+00 -0.00000000000E+00 -0.12153751347E+03  0.12153751347E+03  0.00000000000E+00 0.  1.
         -6    2    1    2    0  503  0.19281762594E+03  0.49582959175E+02  0.56985003959E+02  0.26866500027E+03  0.17116215989E+03 0.  0.
        -24    2    3    3    0    0  0.58106033593E+02 -0.10329531806E+01  0.74921044411E+02  0.12356856598E+03  0.79237929491E+02 0.  0.
          6    2    1    2  501    0 -0.19281762594E+03 -0.49582959175E+02  0.10283868023E+04  0.10597818329E+04  0.16100003585E+03 0.  0.
         24    2    5    5    0    0 -0.18546111810E+03 -0.33279078274E+02  0.10184634750E+04  0.10387938086E+04  0.79507254825E+02 0.  0.
          5    1    5    5  501    0 -0.73565078412E+01 -0.16303880901E+02  0.99233273503E+01  0.20988024342E+02  0.47000000000E+01 0. -1.
        -11    1    6    6    0    0 -0.15588871227E+03 -0.56357825240E+02  0.78224426763E+03  0.79961465051E+03  0.00000000000E+00 0.  1.
         12    1    6    6    0    0 -0.29572405834E+02  0.23078746966E+02  0.23621920733E+03  0.23917915808E+03  0.00000000000E+00 0. -1.
         -5    1    3    3    0  503  0.13471159235E+03  0.50615912356E+02 -0.17936040451E+02  0.14509643429E+03  0.47000000000E+01 0.  1.
         11    1    4    4    0    0  0.65506161602E+02  0.19566685517E+02  0.75262078841E+02  0.10167739622E+03  0.00000000000E+00 0. -1.
        -12    1    4    4    0    0 -0.74001280088E+01 -0.20599638698E+02 -0.34103443036E+00  0.21891169761E+02  0.00000000000E+00 0.  1.
</event>
<event>
12    1  0.8493057E-002  0.2036488E+03  0.7818608E-02  0.1146949E+00
         21   -1    0    0  501  502  0.00000000000E+00  0.00000000000E+00  0.45576448426E+03  0.45576448426E+03  0.00000000000E+00 0.  1.
         21   -1    0    0  502  503 -0.00000000000E+00 -0.00000000000E+00 -0.14603310313E+03  0.14603310313E+03  0.00000000000E+00 0.  1.
         -6    2    1    2    0  503 -0.52331004526E+02 -0.92411542612E+02 -0.31060228884E+02  0.20479412537E+03  0.17232953526E+03 0.  0.
        -24    2    3    3    0    0 -0.68412430545E+01  0.11368431173E+02  0.15014527480E+02  0.82382628637E+02  0.79908808224E+02 0.  0.
          6    2    1    2  501    0  0.52331004526E+02  0.92411542612E+02  0.34079161001E+03  0.39700346202E+03  0.17376535951E+03 0.  0.
         24    2    5    5    0    0  0.64105260118E+02  0.74756740834E+02  0.11770777410E+03  0.17286329837E+03  0.79552153742E+02 0.  0.
          5    1    5    5  501    0 -0.11774255592E+02  0.17654801779E+02  0.22308383591E+03  0.22414016365E+03  0.47000000000E+01 0. -1.
        -13    1    6    6    0    0  0.74391564214E+02  0.63960035002E+02  0.12273452310E+03  0.15712655429E+03  0.00000000000E+00 0.  1.
         14    1    6    6    0    0 -0.10286304096E+02  0.10796705831E+02 -0.50267489958E+01  0.15736744080E+02  0.00000000000E+00 0. -1.
         -5    1    3    3    0  503 -0.45489761471E+02 -0.10377997379E+03 -0.46074756364E+02  0.12241149673E+03  0.47000000000E+01 0.  1.
         13    1    4    4    0    0  0.10869035228E+02  0.40520654619E+02 -0.59078340118E+01  0.42366990455E+02  0.00000000000E+00 0. -1.
        -14    1    4    4    0    0 -0.17710278283E+02 -0.29152223446E+02  0.20922361492E+02  0.40015638181E+02  0.00000000000E+00 0.  1.
</event>
<event>
12    1  0.8493057E-002  0.1796352E+03  0.7818608E-02  0.1168232E+00
         21   -1    0    0  503  502  0.00000000000E+00  0.00000000000E+00  0.49725159009E+03  0.49725159009E+03  0.00000000000E+00 0. -1.
         21   -1    0    0  501  503 -0.00000000000E+00 -0.00000000000E+00 -0.65389817705E+02  0.65389817705E+02  0.00000000000E+00 0. -1.
          6    2    1    2  501    0 -0.21754331892E+02 -0.49900200966E+02  0.18899343137E+03  0.26074380332E+03  0.17118858857E+03 0.  0.
         24    2    3    3    0    0 -0.24033671112E+02 -0.42574912996E+02  0.21435651978E+03  0.23383225404E+03  0.79615104678E+02 0.  0.
         -6    2    1    2    0  502  0.21754331892E+02  0.49900200966E+02  0.24286834102E+03  0.30189760448E+03  0.17086208329E+03 0.  0.
        -24    2    5    5    0    0 -0.58938163453E+00 -0.31595072215E+02  0.16997191585E+03  0.19019845548E+03  0.79286848401E+02 0.  0.
          5    1    3    3  501    0  0.22793392192E+01 -0.73252879707E+01 -0.25363088410E+02  0.26911549283E+02  0.47000000000E+01 0. -1.
        -13    1    4    4    0    0 -0.36892127795E+02 -0.84576832016E+01  0.17930500877E+03  0.18325623501E+03  0.00000000000E+00 0.  1.
         14    1    4    4    0    0  0.12858456683E+02 -0.34117229794E+02  0.35051511007E+02  0.50576019030E+02  0.00000000000E+00 0. -1.
         -5    1    5    5    0  502  0.22343713527E+02  0.81495273181E+02  0.72896425170E+02  0.11169914900E+03  0.47000000000E+01 0.  1.
         11    1    6    6    0    0 -0.17178823830E+02  0.17443214772E+02  0.10120303575E+03  0.10412219828E+03  0.00000000000E+00 0. -1.
        -12    1    6    6    0    0  0.16589442195E+02 -0.49038286987E+02  0.68768880104E+02  0.86076257200E+02  0.00000000000E+00 0.  1.
</event>
<event>
12    1  0.8493057E-002  0.2209854E+03  0.7818608E-02  0.1133246E+00
         21   -1    0    0  503  502  0.00000000000E+00  0.00000000000E+00  0.38450389492E+03  0.38450389492E+03  0.00000000000E+00 0.  1.
         21   -1    0    0  501  503 -0.00000000000E+00 -0.00000000000E+00 -0.12696911327E+03  0.12696911327E+03  0.00000000000E+00 0.  1.
          6    2    1    2  501    0 -0.93443230773E+02 -0.98173909014E+02  0.11741226883E+03  0.25024022776E+03  0.17454161947E+03 0.  0.
         24    2    3    3    0    0 -0.67385355883E+02 -0.65766059696E+02  0.15205085900E+03  0.19591524759E+03  0.79983496540E+02 0.  0.
         -6    2    1    2    0  502  0.93443230773E+02  0.98173909014E+02  0.14012251282E+03  0.26123278043E+03  0.17389218840E+03 0.  0.
        -24    2    5    5    0    0  0.12862304133E+03  0.50064390460E+02  0.90193285492E+02  0.18334078734E+03  0.80179084575E+02 0.  0.
          5    1    3    3  501    0 -0.26057874891E+02 -0.32407849317E+02 -0.34638590174E+02  0.54324980170E+02  0.47000000000E+01 0. -1.
        -13    1    4    4    0    0 -0.64432900647E+02 -0.81997736978E+02  0.14333253071E+03  0.17725530151E+03  0.00000000000E+00 0.  1.
         14    1    4    4    0    0 -0.29524552351E+01  0.16231677282E+02  0.87183282973E+01  0.18659946077E+02  0.00000000000E+00 0. -1.
         -5    1    5    5    0  502 -0.35179810552E+02  0.48109518554E+02  0.49929227329E+02  0.77891993090E+02  0.47000000000E+01 0.  1.
         11    1    6    6    0    0  0.61067372588E+01 -0.15646947384E+02  0.24172265465E+02  0.29434972738E+02  0.00000000000E+00 0. -1.
        -12    1    6    6    0    0  0.12251630407E+03  0.65711337844E+02  0.66021020026E+02  0.15390581460E+03  0.00000000000E+00 0.  1.
</event>
<event>
12    1  0.8493057E-002  0.2500503E+03  0.7818608E-02  0.1113703E+00
         21   -1    0    0  501  502  0.00000000000E+00  0.00000000000E+00  0.95157071582E+02  0.95157071582E+02  0.00000000000E+00 0.  1.
         21   -1    0    0  502  503 -0.00000000000E+00 -0.00000000000E+00 -0.91536884923E+03  0.91536884923E+03  0.00000000000E+00 0.  1.
         -6    2    1    2    0  503  0.16850874154E+03 -0.54624368812E+02 -0.68374004849E+03  0.72802857029E+03  0.17648265526E+03 0.  0.
        -24    2    3    3    0    0  0.13973170232E+03  0.16231906881E+02 -0.33498195490E+03  0.37095290935E+03  0.74864727427E+02 0.  0.
          6    2    1    2  501    0 -0.16850874154E+03  0.54624368812E+02 -0.13647172915E+03  0.28249735051E+03  0.17263024806E+03 0.  0.
         24    2    5    5    0    0 -0.18165809199E+03  0.81605172147E+02 -0.13177793324E+03  0.25175664646E+03  0.79730288101E+02 0.  0.
          5    1    5    5  501    0  0.13149350448E+02 -0.26980803336E+02 -0.46937959154E+01  0.30740704057E+02  0.47000000000E+01 0. -1.
        -11    1    6    6    0    0 -0.60308097062E+02  0.38127617993E+02 -0.59113482564E+01  0.71594174786E+02  0.00000000000E+00 0.  1.
         12    1    6    6    0    0 -0.12134999493E+03  0.43477554154E+02 -0.12586658498E+03  0.18016247167E+03  0.00000000000E+00 0. -1.
         -5    1    3    3    0  503  0.28777039223E+02 -0.70856275692E+02 -0.34875809360E+03  0.35707566095E+03  0.47000000000E+01 0.  1.
         13    1    4    4    0    0  0.46965523649E+01  0.16596126521E+02 -0.12385056322E+02  0.21233903073E+02  0.00000000000E+00 0. -1.
        -14    1    4    4    0    0  0.13503514995E+03 -0.36421964074E+00 -0.32259689857E+03  0.34971900627E+03  0.00000000000E+00 0.  1.
</event>
<event>
12    1  0.8493057E-002  0.1861761E+03  0.7818608E-02  0.1162408E+00
         21   -1    0    0  501  502  0.00000000000E+00  0.00000000000E+00  0.17635131830E+04  0.17635131830E+04  0.00000000000E+00 0. -1.
         21   -1    0    0  502  503 -0.00000000000E+00 -0.00000000000E+00 -0.49037802794E+02  0.49037802794E+02  0.00000000000E+00 0.  1.
         -6    2    1    2    0  503  0.64122115394E+02 -0.27790610749E+02  0.15506294866E+03  0.24229330423E+03  0.17256176720E+03 0.  0.
        -24    2    3    3    0    0 -0.21495987066E+02  0.22551303440E+02  0.63931272221E+02  0.10741617406E+03  0.80500857976E+02 0.  0.
          6    2    1    2  501    0 -0.64122115394E+02  0.27790610749E+02  0.15594124316E+04  0.15702576816E+04  0.17046433973E+03 0.  0.
         24    2    5    5    0    0 -0.93860345619E+02  0.61135578039E+02  0.12581693514E+04  0.12656830068E+04  0.80100146570E+02 0.  0.
          5    1    5    5  501    0  0.29738230225E+02 -0.33344967289E+02  0.30124308013E+03  0.30457467476E+03  0.47000000000E+01 0. -1.
        -13    1    6    6    0    0 -0.47647204055E+02  0.73507109813E+02  0.91723641615E+03  0.92140989487E+03  0.00000000000E+00 0.  1.
         14    1    6    6    0    0 -0.46213141564E+02 -0.12371531774E+02  0.34093293527E+03  0.34427311194E+03  0.00000000000E+00 0. -1.
         -5    1    3    3    0  503  0.85618102460E+02 -0.50341914190E+02  0.91131676440E+02  0.13487713017E+03  0.47000000000E+01 0.  1.
         11    1    4    4    0    0 -0.33845129515E+02  0.36323343980E+02  0.71817263091E+02  0.87307487581E+02  0.00000000000E+00 0. -1.
        -12    1    4    4    0    0  0.12349142449E+02 -0.13772040539E+02 -0.78859908707E+01  0.20108686478E+02  0.00000000000E+00 0.  1.
</event>
<event>
12    1  0.8493057E-002  0.1831212E+03  0.7818608E-02  0.1165106E+00
         21   -1    0    0  503  502  0.00000000000E+00  0.00000000000E+00  0.31368248262E+02  0.31368248262E+02  0.00000000000E+00 0.  1.
         21   -1    0    0  501  503 -0.00000000000E+00 -0.00000000000E+00 -0.10785054812E+04  0.10785054812E+04  0.00000000000E+00 0. -1.
          6    2    1    2  501    0  0.26886167748E+02  0.59890588698E+02 -0.45646472803E+03  0.49182661191E+03  0.17094917261E+03 0.  0.
         24    2    3    3    0    0  0.27639189009E+02  0.56247552754E+02 -0.12544611652E+03  0.16075373486E+03  0.78595948760E+02 0.  0.
         -6    2    1    2    0  502 -0.26886167748E+02 -0.59890588698E+02 -0.59067250486E+03  0.61804711751E+03  0.16964222006E+03 0.  0.
        -24    2    5    5    0    0 -0.47649986721E+02 -0.50193568956E+02 -0.58424663905E+03  0.59378706554E+03  0.80305842620E+02 0.  0.
          5    1    3    3  501    0 -0.75302126186E+00  0.36430359435E+01 -0.33101861151E+03  0.33107287705E+03  0.47000000000E+01 0. -1.
        -11    1    4    4    0    0  0.42835611994E+01  0.72140776154E+02 -0.89420160804E+02  0.11497219507E+03  0.00000000000E+00 0.  1.
         12    1    4    4    0    0  0.23355627810E+02 -0.15893223400E+02 -0.36025955719E+02  0.45781539794E+02  0.00000000000E+00 0. -1.
         -5    1    5    5    0  502  0.20763818973E+02 -0.96970197418E+01 -0.64258658141E+01  0.24260051972E+02  0.47000000000E+01 0.  1.
         11    1    6    6    0    0  0.17594599642E+02 -0.22158809328E+02 -0.86747708521E+02  0.91245535239E+02  0.00000000000E+00 0. -1.
        -12    1    6    6    0    0 -0.65244586363E+02 -0.28034759628E+02 -0.49749893053E+03  0.50254153030E+03  0.00000000000E+00 0.  1.
</event>
<event>
12    1  0.8493057E-002  0.1732565E+03  0.7818608E-02  0.1174759E+00
         21   -1    0    0  501  502  0.00000000000E+00  0.00000000000E+00  0.12618126253E+03  0.12618126253E+03  0.00000000000E+00 0.  1.
         21   -1    0    0  502  503 -0.00000000000E+00 -0.00000000000E+00 -0.34621463462E+03  0.34621463462E+03  0.00000000000E+00 0.  1.
         -6    2    1    2    0  503 -0.18260547033E+02 -0.72195584822E+01 -0.24322369733E+03  0.29862282534E+03  0.17214021978E+03 0.  0.
        -24    2    3    3    0    0  0.64993770277E+01 -0.23195071721E+01 -0.25705140421E+03  0.26946189565E+03  0.80539845968E+02 0.  0.
          6    2    1    2  501    0  0.18260547033E+02  0.72195584822E+01  0.23190325236E+02  0.17377307181E+03  0.17109564489E+03 0.  0.
         24    2    5    5    0    0 -0.47288451899E+01 -0.99409578567E+01 -0.50481543275E+02  0.94573136929E+02  0.79211788247E+02 0.  0.
          5    1    5    5  501    0  0.22989392223E+02  0.17160516339E+02  0.73671868512E+02  0.79199934885E+02  0.47000000000E+01 0. -1.
        -13    1    6    6    0    0  0.21789803981E+02 -0.32679459576E+02 -0.89143656165E+01  0.40276650184E+02  0.00000000000E+00 0.  1.
         14    1    6    6    0    0 -0.26518649171E+02  0.22738501719E+02 -0.41567177659E+02  0.54296486745E+02  0.00000000000E+00 0. -1.
         -5    1    3    3    0  503 -0.24759924061E+02 -0.49000513101E+01  0.13827706877E+02  0.29160929681E+02  0.47000000000E+01 0.  1.
         13    1    4    4    0    0 -0.23609341169E+02 -0.15792575896E+02 -0.35483133870E+02  0.45451724204E+02  0.00000000000E+00 0. -1.
        -14    1    4    4    0    0  0.30108718197E+02  0.13473068723E+02 -0.22156827034E+03  0.22401017145E+03  0.00000000000E+00 0.  1.
</event>
<event>
12    1  0.8493057E-002  0.3239139E+03  0.7818608E-02  0.1073908E+00
         21   -1    0    0  503  502  0.00000000000E+00  0.00000000000E+00  0.38723824100E+02  0.38723824100E+02  0.00000000000E+00 0.  1.
         21   -1    0    0  501  503 -0.00000000000E+00 -0.00000000000E+00 -0.28307239293E+04  0.28307239293E+04  0.00000000000E+00 0. -1.
          6    2    1    2  501    0 -0.17286526535E+02  0.27475359172E+03 -0.16962843050E+04  0.17268571269E+04  0.16990212781E+03 0.  0.
         24    2    3    3    0    0 -0.36812206784E+02  0.27699812754E+03 -0.16604231538E+04  0.16856940087E+04  0.80474468879E+02 0.  0.
         -6    2    1    2    0  502  0.17286526535E+02 -0.27475359172E+03 -0.10957158001E+04  0.11425906265E+04  0.17068059315E+03 0.  0.
        -24    2    5    5    0    0  0.67074658026E+02 -0.22037289910E+03 -0.92610325168E+03  0.95758623636E+03  0.78999638565E+02 0.  0.
          5    1    3    3  501    0  0.19525680249E+02 -0.22445358178E+01 -0.35861151290E+02  0.41163118226E+02  0.47000000000E+01 0. -1.
        -13    1    4    4    0    0  0.13631077128E+02  0.16867819537E+03 -0.10701884328E+04  0.10834857736E+04  0.00000000000E+00 0.  1.
         14    1    4    4    0    0 -0.50443283912E+02  0.10831993217E+03 -0.59023472097E+03  0.60220823511E+03  0.00000000000E+00 0. -1.
         -5    1    5    5    0  502 -0.49788131491E+02 -0.54380692625E+02 -0.16961254847E+03  0.18500439013E+03  0.47000000000E+01 0.  1.
         11    1    6    6    0    0  0.54307210509E+02 -0.16394667904E+03 -0.80573525402E+03  0.82403706607E+03  0.00000000000E+00 0. -1.
        -12    1    6    6    0    0  0.12767447517E+02 -0.56426220055E+02 -0.12036799765E+03  0.13354917029E+03  0.00000000000E+00 0.  1.
</event>
<event>
12    1  0.8493057E-002  0.3226754E+03  0.7818608E-02  0.1074445E+00
         21   -1    0    0  501  502  0.00000000000E+00  0.00000000000E+00  0.95157886697E+02  0.95157886697E+02  0.00000000000E+00 0. -1.
         21   -1    0    0  502  503 -0.00000000000E+00 -0.00000000000E+00 -0.16017818222E+04  0.16017818222E+04  0.00000000000E+00 0.  1.
         -6    2    1    2    0  503 -0.23449833714E+03 -0.13975006448E+03 -0.12310926490E+04  0.12726321337E+04  0.17170872639E+03 0.  0.
        -24    2    3    3    0    0 -0.45393026872E+02 -0.11951001285E+02 -0.36724516840E+03  0.37912892799E+03  0.81647884246E+02 0.  0.
          6    2    1    2  501    0  0.23449833714E+03  0.13975006448E+03 -0.27553128651E+03  0.42430757518E+03  0.17204615040E+03 0.  0.
         24    2    5    5    0    0  0.16496066925E+03  0.11397758571E+03 -0.27500753743E+03  0.34999692837E+03  0.81644300327E+02 0.  0.
          5    1    5    5  501    0  0.69537667890E+02  0.25772478761E+02 -0.52374907908E+00  0.74310646816E+02  0.47000000000E+01 0. -1.
        -13    1    6    6    0    0  0.17332565975E+03  0.10094123173E+03 -0.26052169457E+03  0.32878940058E+03  0.00000000000E+00 0.  1.
         14    1    6    6    0    0 -0.83649905045E+01  0.13036353980E+02 -0.14485842860E+02  0.21207527782E+02  0.00000000000E+00 0. -1.
         -5    1    3    3    0  503 -0.18910531027E+03 -0.12779906319E+03 -0.86384748057E+03  0.89350320571E+03  0.47000000000E+01 0.  1.
         11    1    4    4    0    0  0.14358271991E+02  0.73827749522E+01 -0.17580089397E+02  0.23868910402E+02  0.00000000000E+00 0. -1.
        -12    1    4    4    0    0 -0.59751298863E+02 -0.19333776237E+02 -0.34966507900E+03  0.35526001759E+03  0.00000000000E+00 0.  1.
</event>
<event>
12    1  0.8493057E-002  0.1762746E+03  0.7818608E-02  0.1171776E+00
         21   -1    0    0  501  502  0.00000000000E+00  0.00000000000E+00  0.20512103640E+03  0.20512103640E+03  0.00000000000E+00 0. -1.
         21   -1    0    0  502  503 -0.00000000000E+00 -0.00000000000E+00 -0.31255811666E+03  0.31255811666E+03  0.00000000000E+00 0. -1.
         -6    2    1    2    0  503  0.26727860023E+02 -0.18338467094E+02 -0.24025331587E+03  0.29798388162E+03  0.17326875091E+03 0.  0.
        -24    2    3    3    0    0  0.79906371555E+02 -0.31332148806E+02 -0.13096652307E+03  0.17566265315E+03  0.79614105435E+02 0.  0.
          6    2    1    2  501    0 -0.26727860023E+02  0.18338467094E+02  0.13281623561E+03  0.21969527143E+03  0.17197436428E+03 0.  0.
         24    2    5    5    0    0 -0.80668216226E+02  0.27876179190E+02  0.69406068677E+02  0.13576989237E+03  0.79572726666E+02 0.  0.
          5    1    5    5  501    0  0.53940356203E+02 -0.95377120968E+01  0.63410166936E+02  0.83925379059E+02  0.47000000000E+01 0. -1.
        -13    1    6    6    0    0  0.11154683804E+02 -0.98441593478E+01  0.41820037214E+00  0.14883189698E+02  0.00000000000E+00 0.  1.
         14    1    6    6    0    0 -0.91822900029E+02  0.37720338538E+02  0.68987868305E+02  0.12088670267E+03  0.00000000000E+00 0. -1.
         -5    1    3    3    0  503 -0.53178511532E+02  0.12993681712E+02 -0.10928679280E+03  0.12232122847E+03  0.47000000000E+01 0.  1.
         13    1    4    4    0    0  0.23445109007E+02 -0.51074113209E+02 -0.75252828102E+02  0.93921383688E+02  0.00000000000E+00 0. -1.
        -14    1    4    4    0    0  0.56461262547E+02  0.19741964403E+02 -0.55713694969E+02  0.81741269467E+02  0.00000000000E+00 0.  1.
</event>
<event>
12    1  0.8493057E-002  0.2057133E+03  0.7818608E-02  0.1145854E+00
         21   -1    0    0  503  502  0.00000000000E+00  0.00000000000E+00  0.20500900657E+03  0.20500900657E+03  0.00000000000E+00 0. -1.
         21   -1    0    0  501  503 -0.00000000000E+00 -0.00000000000E+00 -0.35143482393E+03  0.35143482393E+03  0.00000000000E+00 0.  1.
          6    2    1    2  501    0 -0.30697579162E+02  0.10891845187E+03 -0.25402032026E+03  0.32429184228E+03  0.16683316619E+03 0.  0.
         24    2    3    3    0    0 -0.59466389241E+02  0.10145699611E+03 -0.12225564846E+03  0.18913513142E+03  0.83641382383E+02 0.  0.
         -6    2    1    2    0  502  0.30697579162E+02 -0.10891845187E+03  0.10759450290E+03  0.23215198822E+03  0.17179172872E+03 0.  0.
        -24    2    5    5    0    0 -0.42728337791E+02 -0.94873427093E+02  0.65958616718E+02  0.14645330083E+03  0.79191869451E+02 0.  0.
          5    1    3    3  501    0  0.28768810079E+02  0.74614557521E+01 -0.13176467180E+03  0.13515671086E+03  0.47000000000E+01 0. -1.
        -11    1    4    4    0    0 -0.56478527903E+02  0.97422613011E+02 -0.13478586873E+03  0.17563661363E+03  0.00000000000E+00 0.  1.
         12    1    4    4    0    0 -0.29878613377E+01  0.40343831028E+01  0.12530220270E+02  0.13498517785E+02  0.00000000000E+00 0. -1.
         -5    1    5    5    0  502  0.73425916953E+02 -0.14045024773E+02  0.41635886186E+02  0.85698687386E+02  0.47000000000E+01 0.  1.
         11    1    6    6    0    0 -0.40764925333E+02 -0.93281561078E+02  0.24224241135E+02  0.10464245139E+03  0.00000000000E+00 0. -1.
        -12    1    6    6    0    0 -0.19634124588E+01 -0.15918660148E+01  0.41734375583E+02  0.41810849443E+02  0.00000000000E+00 0.  1.
</event>
<event>
12    1  0.8493057E-002  0.2406985E+03  0.7818608E-02  0.1119433E+00
         21   -1    0    0  501  502  0.00000000000E+00  0.00000000000E+00  0.16315116565E+04  0.16315116565E+04  0.00000000000E+00 0. -1.
         21   -1    0    0  502  503 -0.00000000000E+00 -0.00000000000E+00 -0.70056479510E+02  0.70056479510E+02  0.00000000000E+00 0.  1.
         -6    2    1    2    0  503 -0.84683108570E+02 -0.14455043082E+03  0.18197500984E+03  0.30124627883E+03  0.17195452997E+03 0.  0.
        -24    2    3    3    0    0 -0.31601513104E+02 -0.73447034269E+02  0.17838852929E+02  0.11460191973E+03  0.80138959682E+02 0.  0.
          6    2    1    2  501    0  0.84683108570E+02  0.14455043082E+03  0.13794801671E+04  0.14003218571E+04  0.17282857462E+03 0.  0.
         24    2    5    5    0    0  0.22589874530E+02  0.10303145792E+03  0.48957698724E+03  0.50727697901E+03  0.80737372002E+02 0.  0.
          5    1    5    5  501    0  0.62093234040E+02  0.41518972894E+02  0.88990317987E+03  0.89304487813E+03  0.47000000000E+01 0. -1.
        -11    1    6    6    0    0 -0.49335826240E+01  0.20273330199E+01 -0.11930282799E+01  0.54656777401E+01  0.00000000000E+00 0.  1.
         12    1    6    6    0    0  0.27523457154E+02  0.10100412490E+03  0.49077001552E+03  0.50181130127E+03  0.00000000000E+00 0. -1.
         -5    1    3    3    0  503 -0.53081595466E+02 -0.71103396548E+02  0.16413615691E+03  0.18664435910E+03  0.47000000000E+01 0.  1.
         13    1    4    4    0    0  0.21569655431E+02 -0.26658103522E+02  0.26377235729E+02  0.43262721637E+02  0.00000000000E+00 0. -1.
        -14    1    4    4    0    0 -0.53171168535E+02 -0.46788930747E+02 -0.85383828002E+01  0.71339198094E+02  0.00000000000E+00 0.  1.
</event>
<event>
12    1  0.8493057E-002  0.1785264E+03  0.7818608E-02  0.1169268E+00
         21   -1    0    0  501  502  0.00000000000E+00  0.00000000000E+00  0.11717326242E+04  0.11717326242E+04  0.00000000000E+00 0. -1.
         21   -1    0    0  502  503 -0.00000000000E+00 -0.00000000000E+00 -0.44855935784E+02  0.44855935784E+02  0.00000000000E+00 0.  1.
         -6    2    1    2    0  503 -0.11458894832E+02  0.45670511405E+02  0.18147123852E+03  0.25447466806E+03  0.17207104461E+03 0.  0.
        -24    2    3    3    0    0  0.63651765474E+01  0.76095818902E+02  0.18833273121E+03  0.21824530236E+03  0.79565729015E+02 0.  0.
          6    2    1    2  501    0  0.11458894832E+02 -0.45670511405E+02  0.94540544986E+03  0.96211389189E+03  0.17220503608E+03 0.  0.
         24    2    5    5    0    0  0.64182082470E+02 -0.43139119729E+02  0.79167597850E+03  0.79950705678E+03  0.80500655567E+02 0.  0.
          5    1    5    5  501    0 -0.52723187638E+02 -0.25313916760E+01  0.15372947137E+03  0.16260683511E+03  0.47000000000E+01 0. -1.
        -11    1    6    6    0    0  0.63445493048E+02 -0.64367897715E+02  0.63779859884E+03  0.64417048172E+03  0.00000000000E+00 0.  1.
         12    1    6    6    0    0  0.73658942181E+00  0.21228777986E+02  0.15387737966E+03  0.15533657506E+03  0.00000000000E+00 0. -1.
         -5    1    3    3    0  503 -0.17824071379E+02 -0.30425307497E+02 -0.68614926884E+01  0.36229365696E+02  0.47000000000E+01 0.  1.
         13    1    4    4    0    0 -0.11010366048E+02  0.68933555221E+02  0.18676686011E+03  0.19938636672E+03  0.00000000000E+00 0. -1.
        -14    1    4    4    0    0  0.17375542595E+02  0.71622636808E+01  0.15658710939E+01  0.18858935648E+02  0.00000000000E+00 0.  1.
</event>
<event>
12    1  0.8493057E-002  0.2535333E+03  0.7818608E-02  0.1111242E+00
         21   -1    0    0  503  502  0.00000000000E+00  0.00000000000E+00  0.77581470588E+03  0.77581470588E+03  0.00000000000E+00 0.  1.
         21   -1    0    0  501  503 -0.00000000000E+00 -0.00000000000E+00 -0.82591749388E+02  0.82591749388E+02  0.00000000000E+00 0. -1.
          6    2    1    2  501    0 -0.59298958470E+02  0.17541811372E+03  0.33639427791E+03  0.42123653787E+03  0.17317976073E+03 0.  0.
         24    2    3    3    0    0 -0.76135841420E+02  0.47682276930E+02  0.12816733336E+03  0.17632742194E+03  0.81204855183E+02 0.  0.
         -6    2    1    2    0  502  0.59298958470E+02 -0.17541811372E+03  0.35682867858E+03  0.43716991740E+03  0.17176422715E+03 0.  0.
        -24    2    5    5    0    0  0.81687886750E+02 -0.12467896147E+03  0.15212465439E+03  0.22503422215E+03  0.72668675437E+02 0.  0.
          5    1    3    3  501    0  0.16836882951E+02  0.12773583679E+03  0.20822694455E+03  0.24490911593E+03  0.47000000000E+01 0. -1.
        -13    1    4    4    0    0 -0.12936059230E+02 -0.22045427958E+02  0.17103845549E+02  0.30755228089E+02  0.00000000000E+00 0.  1.
         14    1    4    4    0    0 -0.63199782190E+02  0.69727704888E+02  0.11106348781E+03  0.14557219385E+03  0.00000000000E+00 0. -1.
         -5    1    5    5    0  502 -0.22388928281E+02 -0.50739152242E+02  0.20470402419E+03  0.21213569525E+03  0.47000000000E+01 0.  1.
         13    1    6    6    0    0  0.52077856577E+02 -0.12579309173E+03  0.12281537108E+03  0.18335653914E+03  0.00000000000E+00 0. -1.
        -14    1    6    6    0    0  0.29610030174E+02  0.11141302515E+01  0.29309283309E+02  0.41677683012E+02  0.00000000000E+00 0.  1.
</event>
<event>
12    1  0.8493057E-002  0.1884779E+03  0.7818608E-02  0.1159851E+00
         21   -1    0    0  501  502  0.00000000000E+00  0.00000000000E+00  0.15676461370E+03  0.15676461370E+03  0.00000000000E+00 0.  1.
         21   -1    0    0  502  503 -0.00000000000E+00 -0.00000000000E+00 -0.24187415446E+03  0.24187415446E+03  0.00000000000E+00 0. -1.
         -6    2    1    2    0  503 -0.22627608065E+02 -0.72591933248E+02 -0.92712036894E+02  0.21000764784E+03  0.17241256609E+03 0.  0.
        -24    2    3    3    0    0  0.20147117834E+01  0.24722511127E+02 -0.19255794925E+02  0.85527711721E+02  0.79554649229E+02 0.  0.
          6    2    1    2  501    0  0.22627608065E+02  0.72591933248E+02  0.76024961336E+01  0.18863112032E+03  0.17245957261E+03 0.  0.
         24    2    5    5    0    0  0.52382026998E+02 -0.79972079713E+01  0.29985596753E+02  0.99732142137E+02  0.78990708788E+02 0.  0.
          5    1    5    5  501    0 -0.29754418933E+02  0.80589141220E+02 -0.22383100619E+02  0.88898978183E+02  0.47000000000E+01 0. -1.
        -13    1    6    6    0    0  0.18880853691E+02  0.35215101161E+02  0.17641515940E+02  0.43678519555E+02  0.00000000000E+00 0.  1.
         14    1    6    6    0    0  0.33501173307E+02 -0.43212309132E+02  0.12344080812E+02  0.56053622582E+02  0.00000000000E+00 0. -1.
         -5    1    3    3    0  503 -0.24642319848E+02 -0.97314444375E+02 -0.73456241969E+02  0.12447993612E+03  0.47000000000E+01 0.  1.
         11    1    4    4    0    0 -0.39798445693E+01 -0.25260869750E+02 -0.23861347495E+02  0.34975914678E+02  0.00000000000E+00 0. -1.
        -12    1    4    4    0    0  0.59945563527E+01  0.49983380877E+02  0.46055525696E+01  0.50551797042E+02  0.00000000000E+00 0.  1.
</event>
<event>
12    1  0.8493057E-002  0.3021260E+03  0.7818608E-02  0.1084263E+00
         21   -1    0    0  501  502  0.00000000000E+00  0.00000000000E+00  0.73697169127E+03  0.73697169127E+03  0.00000000000E+00 0. -1.
         21   -1    0    0  502  503 -0.00000000000E+00 -0.00000000000E+00 -0.16198923375E+03  0.16198923375E+03  0.00000000000E+00 0. -1.
         -6    2    1    2    0  503  0.22769165992E+03 -0.97539254701E+02  0.68892254711E+02  0.30988100021E+03  0.17298177167E+03 0.  0.
        -24    2    3    3    0    0  0.67787506331E+02 -0.88395069428E+02  0.59557007465E+02  0.14937495266E+03  0.79730828613E+02 0.  0.
          6    2    1    2  501    0 -0.22769165992E+03  0.97539254701E+02  0.50609020281E+03  0.58907992481E+03  0.17184430811E+03 0.  0.
         24    2    5    5    0    0 -0.91479417260E+02  0.11113970494E+03  0.26542832601E+03  0.31217023513E+03  0.79230938730E+02 0.  0.
          5    1    5    5  501    0 -0.13621224266E+03 -0.13600450242E+02  0.24066187680E+03  0.27690968968E+03  0.47000000000E+01 0. -1.
        -13    1    6    6    0    0 -0.10583214596E+03  0.10172729982E+03  0.24346582227E+03  0.28429648831E+03  0.00000000000E+00 0.  1.
         14    1    6    6    0    0  0.14352728701E+02  0.94124051244E+01  0.21962503738E+02  0.27873746820E+02  0.00000000000E+00 0. -1.
         -5    1    3    3    0  503  0.15990415358E+03 -0.91441852728E+01  0.93352472459E+01  0.16050604755E+03  0.47000000000E+01 0.  1.
         11    1    4    4    0    0  0.61676250918E+02 -0.10105540322E+03  0.39348549986E+02  0.12475761633E+03  0.00000000000E+00 0. -1.
        -12    1    4    4    0    0  0.61112554133E+01  0.12660333790E+02  0.20208457479E+02  0.24617336332E+02  0.00000000000E+00 0.  1.
</event>
<event>
12    1  0.8493057E-002  0.2646676E+03  0.7818608E-02  0.1104667E+00
         21   -1    0    0  503  502  0.00000000000E+00  0.00000000000E+00  0.10436783106E+03  0.10436783106E+03  0.00000000000E+00 0. -1.
         21   -1    0    0  501  503 -0.00000000000E+00 -0.00000000000E+00 -0.10192979667E+04  0.10192979667E+04  0.00000000000E+00 0. -1.
          6    2    1    2  501    0 -0.19677789946E+03  0.17676417908E+02 -0.78705394119E+03  0.82972489280E+03  0.17307655512E+03 0.  0.
         24    2    3    3    0    0 -0.10542953973E+03  0.40742164946E+02 -0.64069283781E+03  0.65559788716E+03  0.80907140448E+02 0.  0.
         -6    2    1    2    0  502  0.19677789946E+03 -0.17676417908E+02 -0.12787619442E+03  0.29394090492E+03  0.17611058180E+03 0.  0.
        -24    2    5    5    0    0  0.19892545816E+03 -0.13928225836E+02 -0.15597901855E+03  0.26512216664E+03  0.78708167529E+02 0.  0.
          5    1    3    3  501    0 -0.91348359737E+02 -0.23065747038E+02 -0.14636110338E+03  0.17412700565E+03  0.47000000000E+01 0. -1.
        -11    1    4    4    0    0 -0.17819471094E+01 -0.18579931555E+02 -0.11549182024E+03  0.11699038308E+03  0.00000000000E+00 0.  1.
         12    1    4    4    0    0 -0.10364759262E+03  0.59322096501E+02 -0.52520101757E+03  0.53860750407E+03  0.00000000000E+00 0. -1.
         -5    1    5    5    0  502 -0.21475587001E+01 -0.37481920717E+01  0.28102824130E+02  0.28818738283E+02  0.47000000000E+01 0.  1.
         11    1    6    6    0    0  0.75494777641E+01 -0.93792988509E+01  0.68112258604E+01  0.13833244709E+02  0.00000000000E+00 0. -1.
        -12    1    6    6    0    0  0.19137598040E+03 -0.45489269854E+01 -0.16279024441E+03  0.25128892193E+03  0.00000000000E+00 0.  1.
</event>
<event>
12    1  0.8493057E-002  0.2348908E+03  0.7818608E-02  0.1123338E+00
         21   -1    0    0  501  502  0.00000000000E+00  0.00000000000E+00  0.83799103907E+03  0.83799103907E+03  0.00000000000E+00 0.  1.
         21   -1    0    0  502  503 -0.00000000000E+00 -0.00000000000E+00 -0.77969565686E+02  0.77969565686E+02  0.00000000000E+00 0.  1.
         -6    2    1    2    0  503  0.86883782905E+02 -0.13377518996E+03  0.56141369937E+03  0.60835902153E+03  0.17167051018E+03 0.  0.
        -24    2    3    3    0    0  0.30886625402E+02 -0.11582185123E+02  0.32397734001E+03  0.33547639691E+03  0.80591348169E+02 0.  0.
          6    2    1    2  501    0 -0.86883782905E+02  0.13377518996E+03  0.19860777402E+03  0.30760158323E+03  0.17242126586E+03 0.  0.
         24    2    5    5    0    0 -0.15418717577E+02  0.56628657187E+02  0.16685653029E+03  0.19765125554E+03  0.88206436535E+02 0.  0.
          5    1    5    5  501    0 -0.71465065328E+02  0.77146532773E+02  0.31751243728E+02  0.10995032769E+03  0.47000000000E+01 0. -1.
        -13    1    6    6    0    0  0.20298227660E+02 -0.13081792711E+01  0.34419553040E+01  0.20629504004E+02  0.00000000000E+00 0.  1.
         14    1    6    6    0    0 -0.35716945237E+02  0.57936836458E+02  0.16341457499E+03  0.17702175153E+03  0.00000000000E+00 0. -1.
         -5    1    3    3    0  503  0.55997157503E+02 -0.12219300484E+03  0.23743635935E+03  0.27288262463E+03  0.47000000000E+01 0.  1.
         11    1    4    4    0    0  0.41185649580E+02 -0.24400434469E+02  0.99700594694E+02  0.11059768314E+03  0.00000000000E+00 0. -1.
        -12    1    4    4    0    0 -0.10299024178E+02  0.12818249345E+02  0.22427674532E+03  0.22487871377E+03  0.00000000000E+00 0.  1.
</event>
<event>
12    1  0.8493057E-002  0.2021223E+03  0.7818608E-02  0.1148158E+00
         21   -1    0    0  501  502  0.00000000000E+00  0.00000000000E+00  0.21325571006E+04  0.21325571006E+04  0.00000000000E+00 0.  1.
         21   -1    0    0  502  503 -0.00000000000E+00 -0.00000000000E+00 -0.22001159466E+02  0.22001159466E+02  0.00000000000E+00 0.  1.
         -6    2    1    2    0  503 -0.86203115380E+02 -0.61027857199E+02  0.66404412071E+03  0.69412392051E+03  0.17233121113E+03 0.  0.
        -24    2    3    3    0    0 -0.28292789649E+01  0.49851223024E+01  0.42750895147E+03  0.43474025420E+03  0.78754865107E+02 0.  0.
          6    2    1    2  501    0  0.86203115380E+02  0.61027857199E+02  0.14465118204E+04  0.14604343396E+04  0.17122101813E+03 0.  0.
         24    2    5    5    0    0  0.65781107058E+02  0.60018266918E+02  0.50063538692E+03  0.51432525749E+03  0.77235571110E+02 0.  0.
          5    1    5    5  501    0  0.20422008323E+02  0.10095902814E+01  0.94587643350E+03  0.94610908206E+03  0.47000000000E+01 0. -1.
        -13    1    6    6    0    0  0.30675442477E+02  0.26550020754E+02  0.40564144393E+03  0.40766514127E+03  0.00000000000E+00 0.  1.
         14    1    6    6    0    0  0.35105664581E+02  0.33468246164E+02  0.94993942990E+02  0.10666011622E+03  0.00000000000E+00 0. -1.
         -5    1    3    3    0  503 -0.83373836416E+02 -0.66012979501E+02  0.23653516924E+03  0.25938366631E+03  0.47000000000E+01 0.  1.
         13    1    4    4    0    0  0.25372532157E+02 -0.21055143717E+02  0.10764246408E+03  0.11257879258E+03  0.00000000000E+00 0. -1.
        -14    1    4    4    0    0 -0.28201811122E+02  0.26040266019E+02  0.31986648738E+03  0.32216146162E+03  0.00000000000E+00 0.  1.
</event>
<event>
12    1  0.8493057E-002  0.1966267E+03  0.7818608E-02  0.1153655E+00
         21   -1    0    0  501  502  0.00000000000E+00  0.00000000000E+00  0.11316433488E+04  0.11316433488E+04  0.00000000000E+00 0. -1.
         21   -1    0    0  502  503 -0.00000000000E+00 -0.00000000000E+00 -0.33904943703E+02  0.33904943703E+02  0.00000000000E+00 0. -1.
         -6    2    1    2    0  503 -0.84723161153E+02  0.52457534826E+02  0.48048290175E+03  0.51915880732E+03  0.16950587410E+03 0.  0.
        -24    2    3    3    0    0 -0.58829685413E+02  0.77671949684E+02  0.45698891348E+03  0.47579642401E+03  0.89719041445E+02 0.  0.
          6    2    1    2  501    0  0.84723161153E+02 -0.52457534826E+02  0.61725550330E+03  0.64638948513E+03  0.16396707942E+03 0.  0.
         24    2    5    5    0    0  0.10326189062E+02  0.21614235070E+02  0.32356466407E+03  0.33446331502E+03  0.81226916227E+02 0.  0.
          5    1    5    5  501    0  0.74396972090E+02 -0.74071769896E+02  0.29369083923E+03  0.31192617011E+03  0.47000000000E+01 0. -1.
        -11    1    6    6    0    0  0.34515415265E+02 -0.23496187083E+00  0.26665519355E+03  0.26887982695E+03  0.00000000000E+00 0.  1.
         12    1    6    6    0    0 -0.24189226203E+02  0.21849196941E+02  0.56909470526E+02  0.65583488065E+02  0.00000000000E+00 0. -1.
         -5    1    3    3    0  503 -0.25893475740E+02 -0.25214414858E+02  0.23493988265E+02  0.43362383319E+02  0.47000000000E+01 0.  1.
         11    1    4    4    0    0 -0.51395126922E+02  0.75811806019E+02  0.21512534848E+03  0.23381147226E+03  0.00000000000E+00 0. -1.
        -12    1    4    4    0    0 -0.74345584912E+01  0.18601436655E+01  0.24186356500E+03  0.24198495175E+03  0.00000000000E+00 0.  1.
</event>
<event>
12    1  0.8493057E-002  0.2427484E+03  0.7818608E-02  0.1118512E+00
         21   -1    0    0  503  502  0.00000000000E+00  0.00000000000E+00  0.54426672740E+03  0.54426672740E+03  0.00000000000E+00 0. -1.
         21   -1    0    0  501  503 -0.00000000000E+00 -0.00000000000E+00 -0.12183162105E+03  0.12183162105E+03  0.00000000000E+00 0.  1.
          6    2    1    2  501    0  0.16609144948E+03  0.26368001009E+01  0.93084514874E+02  0.25695458435E+03  0.17253292209E+03 0.  0.
         24    2    3    3    0    0  0.12892592641E+03  0.22815308739E+02 -0.17184017493E+01  0.15304052700E+03  0.79221317745E+02 0.  0.
         -6    2    1    2    0  502 -0.16609144948E+03 -0.26368001009E+01  0.32935059147E+03  0.40914376409E+03  0.17701266986E+03 0.  0.
        -24    2    5    5    0    0 -0.47616917562E+02 -0.57008043820E+02  0.11269294452E+03  0.15625036197E+03  0.78722220323E+02 0.  0.
          5    1    3    3  501    0  0.37165523072E+02 -0.20178508638E+02  0.94802916623E+02  0.10391405736E+03  0.47000000000E+01 0. -1.
        -13    1    4    4    0    0  0.12918926641E+03  0.17007838025E+02  0.18855405253E+02  0.13166115379E+03  0.00000000000E+00 0.  1.
         14    1    4    4    0    0 -0.26334000196E+00  0.58074707139E+01 -0.20573807003E+02  0.21379373205E+02  0.00000000000E+00 0. -1.
         -5    1    5    5    0  502 -0.11847453192E+03  0.54371243719E+02  0.21665764695E+03  0.25289340212E+03  0.47000000000E+01 0.  1.
         13    1    6    6    0    0  0.14632578607E+02 -0.32018043949E+02  0.65082098119E+02  0.73992884730E+02  0.00000000000E+00 0. -1.
        -14    1    6    6    0    0 -0.62249496169E+02 -0.24989999871E+02  0.47610846404E+02  0.82257477242E+02  0.00000000000E+00 0.  1.
</event>
<event>
12    1  0.8493057E-002  0.2566660E+03  0.7818608E-02  0.1109706E+00
         21   -1    0    0  501  502  0.00000000000E+00  0.00000000000E+00  0.12053058415E+03  0.12053058415E+03  0.00000000000E+00 0.  1.
         21   -1    0    0  502  503 -0.00000000000E+00 -0.00000000000E+00 -0.68906957800E+03  0.68906957800E+03  0.00000000000E+00 0. -1.
         -6    2    1    2    0  503  0.10652124697E+03  0.15434235445E+03 -0.47159113745E+03  0.53523483922E+03  0.17002880275E+03 0.  0.
        -24    2    3    3    0    0  0.17763135667E+02  0.11138716829E+03 -0.36586421044E+03  0.39058552732E+03  0.77316255844E+02 0.  0.
          6    2    1    2  501    0 -0.10652124697E+03 -0.15434235445E+03 -0.96947856411E+02  0.27436532293E+03  0.17524013561E+03 0.  0.
         24    2    5    5    0    0 -0.12742665416E+03 -0.11195070069E+03 -0.11846161921E+03  0.22222109651E+03  0.81108254412E+02 0.  0.
          5    1    5    5  501    0  0.20905407191E+02 -0.42391653768E+02  0.21513762799E+02  0.52144226419E+02  0.47000000000E+01 0. -1.
        -11    1    6    6    0    0 -0.35329449717E+02 -0.50153147711E+00 -0.37223908616E-01  0.35333028978E+02  0.00000000000E+00 0.  1.
         12    1    6    6    0    0 -0.92097204446E+02 -0.11144916921E+03 -0.11842439530E+03  0.18688806753E+03  0.00000000000E+00 0. -1.
         -5    1    3    3    0  503  0.88758111304E+02  0.42955186167E+02 -0.10572692700E+03  0.14464931190E+03  0.47000000000E+01 0.  1.
         13    1    4    4    0    0 -0.61455632821E+01 -0.95904774111E+01 -0.54755527715E+02  0.55927748215E+02  0.00000000000E+00 0. -1.
        -14    1    4    4    0    0  0.23908698949E+02  0.12097764570E+03 -0.31110868273E+03  0.33465777910E+03  0.00000000000E+00 0.  1.
</event>
<event>
12    1  0.8493057E-002  0.3215673E+03  0.7818608E-02  0.1075293E+00
         21   -1    0    0  501  502  0.00000000000E+00  0.00000000000E+00  0.12946113945E+03  0.12946113945E+03  0.00000000000E+00 0.  1.
         21   -1    0    0  502  503 -0.00000000000E+00 -0.00000000000E+00 -0.90894403950E+03  0.90894403950E+03  0.00000000000E+00 0. -1.
         -6    2    1    2    0  503 -0.21279032278E+03 -0.16558760808E+03 -0.57850716774E+03  0.66187316918E+03  0.17523290655E+03 0.  0.
        -24    2    3    3    0    0 -0.13632287161E+03 -0.32238831809E+02 -0.36369085357E+03  0.39768137133E+03  0.79095945078E+02 0.  0.
          6    2    1    2  501    0  0.21279032278E+03  0.16558760808E+03 -0.20097573232E+03  0.37653200977E+03  0.16936980837E+03 0.  0.
         24    2    5    5    0    0  0.28810969830E+02  0.80813251936E+02 -0.79647950567E+02  0.14035916122E+03  0.77434129667E+02 0.  0.
          5    1    5    5  501    0  0.18397935295E+03  0.84774356140E+02 -0.12132778175E+03  0.23617284856E+03  0.47000000000E+01 0. -1.
        -13    1    6    6    0    0  0.27591097360E+02  0.92779034716E+02 -0.51263663766E+02  0.10953164456E+03  0.00000000000E+00 0.  1.
         14    1    6    6    0    0  0.12198724700E+01 -0.11965782779E+02 -0.28384286802E+02  0.30827516663E+02  0.00000000000E+00 0. -1.
         -5    1    3    3    0  503 -0.76467451170E+02 -0.13334877627E+03 -0.21481631416E+03  0.26419179785E+03  0.47000000000E+01 0.  1.
         13    1    4    4    0    0 -0.98561500056E+02 -0.57852480420E+02 -0.23941596216E+03  0.26529470730E+03  0.00000000000E+00 0. -1.
        -14    1    4    4    0    0 -0.37761371556E+02  0.25613648611E+02 -0.12427489142E+03  0.13238666403E+03  0.00000000000E+00 0.  1.
</event>
<event>
12    1  0.8493057E-002  0.1763620E+03  0.7818608E-02  0.1171417E+00
         21   -1    0    0  503  502  0.00000000000E+00  0.00000000000E+00  0.53798183525E+03  0.53798183525E+03  0.00000000000E+00 0. -1.
         21   -1    0    0  501  503 -0.00000000000E+00 -0.00000000000E+00 -0.12083878528E+03  0.12083878528E+03  0.00000000000E+00 0. -1.
          6    2    1    2  501    0 -0.26345830105E+02 -0.30417712627E+02 -0.29490838367E+02  0.17862756020E+03  0.17151896603E+03 0.  0.
         24    2    3    3    0    0 -0.20789680006E+02  0.19460490047E+02  0.39209833111E+02  0.93418533871E+02  0.79866701387E+02 0.  0.
         -6    2    1    2    0  502  0.26345830105E+02  0.30417712627E+02  0.44663388834E+03  0.48019306033E+03  0.17170965310E+03 0.  0.
        -24    2    5    5    0    0  0.72259568145E+02 -0.69809887411E+01  0.33809948017E+03  0.35646536755E+03  0.86522369210E+02 0.  0.
          5    1    3    3  501    0 -0.55561500994E+01 -0.49878202674E+02 -0.68700671479E+02  0.85209026327E+02  0.47000000000E+01 0. -1.
        -11    1    4    4    0    0  0.23063082548E+02  0.19979356531E+02  0.39055782245E+02  0.49562431244E+02  0.00000000000E+00 0.  1.
         12    1    4    4    0    0 -0.43852762554E+02 -0.51886648421E+00  0.15405086598E+00  0.43856102628E+02  0.00000000000E+00 0. -1.
         -5    1    5    5    0  502 -0.45913738040E+02  0.37398701368E+02  0.10853440817E+03  0.12372769278E+03  0.47000000000E+01 0.  1.
         13    1    6    6    0    0  0.18172950842E+02 -0.31642081256E+02  0.23197049709E+03  0.23482288851E+03  0.00000000000E+00 0. -1.
        -14    1    6    6    0    0  0.54086617303E+02  0.24661092515E+02  0.10612898308E+03  0.12164247903E+03  0.00000000000E+00 0.  1.
</event>
<event>
12    1  0.8493057E-002  0.2062606E+03  0.7818608E-02  0.1144581E+00
         21   -1    0    0  501  502  0.00000000000E+00  0.00000000000E+00  0.17684642833E+03  0.17684642833E+03  0.00000000000E+00 0.  1.
         21   -1    0    0  502  503 -0.00000000000E+00 -0.00000000000E+00 -0.25390778267E+03  0.25390778267E+03  0.00000000000E+00 0. -1.
         -6    2    1    2    0  503 -0.90416691144E+02 -0.71625562815E+02 -0.88108537228E+02  0.22429118364E+03  0.17099129054E+03 0.  0.
        -24    2    3    3    0    0  0.33234427177E+01 -0.26820974022E+02 -0.88401789612E+02  0.12028714588E+03  0.76965649078E+02 0.  0.
          6    2    1    2  501    0  0.90416691144E+02  0.71625562815E+02  0.11047182882E+02  0.20646302736E+03  0.17087873517E+03 0.  0.
         24    2    5    5    0    0  0.87930812589E+02  0.94478374746E+02  0.48942449902E+02  0.16189205174E+03  0.84591263840E+02 0.  0.
          5    1    5    5  501    0  0.24858785542E+01 -0.22852811931E+02 -0.37895267020E+02  0.44570975621E+02  0.47000000000E+01 0. -1.
        -11    1    6    6    0    0  0.82077630495E+02  0.26750456243E+02  0.26484911000E+02  0.90298254953E+02  0.00000000000E+00 0.  1.
         12    1    6    6    0    0  0.58531820943E+01  0.67727918503E+02  0.22457538902E+02  0.71593796790E+02  0.00000000000E+00 0. -1.
         -5    1    3    3    0  503 -0.93740133861E+02 -0.44804588793E+02  0.29325238326E+00  0.10400403776E+03  0.47000000000E+01 0.  1.
         11    1    4    4    0    0 -0.18066807867E+02 -0.47795409761E+02 -0.49040322449E+02  0.70822058475E+02  0.00000000000E+00 0. -1.
        -12    1    4    4    0    0  0.21390250585E+02  0.20974435738E+02 -0.39361467162E+02  0.49465087403E+02  0.00000000000E+00 0.  1.
</event>
<event>
12    1  0.8493057E-002  0.2138168E+03  0.7818608E-02  0.1138893E+00
         21   -1    0    0  503  502  0.00000000000E+00  0.00000000000E+00  0.46707431403E+03  0.46707431403E+03  0.00000000000E+00 0.  1.
         21   -1    0    0  501  503 -0.00000000000E+00 -0.00000000000E+00 -0.98816331361E+02  0.98816331361E+02  0.00000000000E+00 0.  1.
          6    2    1    2  501    0 -0.37116874180E+02 -0.12139183166E+03  0.22164305774E+03  0.30796633308E+03  0.17205806614E+03 0.  0.
         24    2    3    3    0    0 -0.75769623353E+02 -0.11270421482E+03  0.11789723652E+03  0.19681420702E+03  0.79954973875E+02 0.  0.
         -6    2    1    2    0  502  0.37116874180E+02  0.12139183166E+03  0.14661492492E+03  0.25792431231E+03  0.17004521612E+03 0.  0.
        -24    2    5    5    0    0 -0.17650174639E+02  0.81577615190E+02  0.33177384710E+02  0.12573215294E+03  0.87985222968E+02 0.  0.
          5    1    3    3  501    0  0.38652749173E+02 -0.86876168409E+01  0.10374582123E+03  0.11115212606E+03  0.47000000000E+01 0. -1.
        -11    1    4    4    0    0 -0.78072493704E+02 -0.45622895155E+02  0.70073966118E+02  0.11439896662E+03  0.00000000000E+00 0.  1.
         12    1    4    4    0    0  0.23028703516E+01 -0.67081319665E+02  0.47823270397E+02  0.82415240407E+02  0.00000000000E+00 0. -1.
         -5    1    5    5    0  502  0.54767048819E+02  0.39814216471E+02  0.11343754021E+03  0.13219215937E+03  0.47000000000E+01 0.  1.
         13    1    6    6    0    0  0.29918076198E+02  0.12525969102E+02 -0.63209123870E+01  0.33044592882E+02  0.00000000000E+00 0. -1.
        -14    1    6    6    0    0 -0.47568250837E+02  0.69051646088E+02  0.39498297097E+02  0.92687560054E+02  0.00000000000E+00 0.  1.
</event>
<event>
12    1  0.8493057E-002  0.1794294E+03  0.7818608E-02  0.1168882E+00
         21   -1    0    0  503  502  0.00000000000E+00  0.00000000000E+00  0.18447385186E+02  0.18447385186E+02  0.00000000000E+00 0.  1.
         21   -1    0    0  501  503 -0.00000000000E+00 -0.00000000000E+00 -0.29613262542E+04  0.29613262542E+04  0.00000000000E+00 0.  1.
          6    2    1    2  501    0 -0.35024155565E+01 -0.52886463894E+02 -0.24395032326E+04  0.24460929902E+04  0.17142243157E+03 0.  0.
         24    2    3    3    0    0 -0.60263799136E+02 -0.64685166422E+02 -0.19158775909E+04  0.19192467444E+04  0.71450868125E+02 0.  0.
         -6    2    1    2    0  502  0.35024155565E+01  0.52886463894E+02 -0.50337563639E+03  0.53368064913E+03  0.16917079819E+03 0.  0.
        -24    2    5    5    0    0 -0.12580147006E+02  0.92094199612E+02 -0.26233924465E+03  0.28890212167E+03  0.77478738515E+02 0.  0.
          5    1    3    3  501    0  0.56761383580E+02  0.11798702528E+02 -0.52362564173E+03  0.52684624581E+03  0.47000000000E+01 0. -1.
        -13    1    4    4    0    0  0.75574396999E+01 -0.33174979720E+02 -0.36994292925E+03  0.37150432713E+03  0.00000000000E+00 0.  1.
         14    1    4    4    0    0 -0.67821238836E+02 -0.31510186702E+02 -0.15459346616E+04  0.15477424173E+04  0.00000000000E+00 0. -1.
         -5    1    5    5    0  502  0.16082562563E+02 -0.39207735718E+02 -0.24103639174E+03  0.24477852746E+03  0.47000000000E+01 0.  1.
         11    1    6    6    0    0  0.20342086289E+01 -0.13827366457E+02 -0.26645395476E+02  0.30088389254E+02  0.00000000000E+00 0. -1.
        -12    1    6    6    0    0 -0.14614355635E+02  0.10592156607E+03 -0.23569384917E+03  0.25881373242E+03  0.00000000000E+00 0.  1.
</event>
<event>
12    1  0.8493057E-002  0.1908470E+03  0.7818608E-02  0.1157884E+00
         21   -1    0    0  503  502  0.00000000000E+00  0.00000000000E+00  0.18124047713E+03  0.18124047713E+03  0.00000000000E+00 0.  1.
         21   -1    0    0  501  503 -0.00000000000E+00 -0.00000000000E+00 -0.36884096968E+03  0.36884096968E+03  0.00000000000E+00 0.  1.
          6    2    1    2  501    0 -0.98824488025E+01  0.80791335620E+02 -0.27972203426E+03  0.33816408340E+03  0.17171379719E+03 0.  0.
         24    2    3    3    0    0 -0.76377922959E+01  0.89521323721E+02 -0.94880093669E+02  0.15304281456E+03  0.79670996240E+02 0.  0.
         -6    2    1    2    0  502  0.98824488025E+01 -0.80791335620E+02  0.92121541713E+02  0.21191736341E+03  0.17262006767E+03 0.  0.
        -24    2    5    5    0    0 -0.45434631263E+02 -0.75925172181E+02  0.21884933348E+02  0.12225728284E+03  0.81479785293E+02 0.  0.
          5    1    3    3  501    0 -0.22446565066E+01 -0.87299881008E+01 -0.18484194059E+03  0.18512126884E+03  0.47000000000E+01 0. -1.
        -11    1    4    4    0    0 -0.27069166363E+02 -0.13882174429E+01 -0.20413647625E+02  0.33932048635E+02  0.00000000000E+00 0.  1.
         12    1    4    4    0    0  0.19431374067E+02  0.90909541164E+02 -0.74466446044E+02  0.11911076593E+03  0.00000000000E+00 0. -1.
         -5    1    5    5    0  502  0.55317080066E+02 -0.48661634393E+01  0.70236608366E+02  0.89660080573E+02  0.47000000000E+01 0.  1.
         13    1    6    6    0    0 -0.28512610218E+02  0.10625509564E+02  0.14651124357E+02  0.33771672151E+02  0.00000000000E+00 0. -1.
        -14    1    6    6    0    0 -0.16922021045E+02 -0.86550681745E+02  0.72338089910E+01  0.88485610691E+02  0.00000000000E+00 0.  1.
</event>
<event>
12    1  0.8493057E-002  0.1749771E+03  0.7818608E-02  0.1172793E+00
         21   -1    0    0  503  502  0.00000000000E+00  0.00000000000E+00  0.16988478787E+03  0.16988478787E+03  0.00000000000E+00 0.  1.
         21   -1    0    0  501  503 -0.00000000000E+00 -0.00000000000E+00 -0.30200093164E+03  0.30200093164E+03  0.00000000000E+00 0.  1.
          6    2    1    2  501    0 -0.14367755542E+02  0.25771219544E+02 -0.21596369304E+03  0.27785635548E+03  0.17231729285E+03 0.  0.
         24    2    3    3    0    0 -0.69161137423E+02  0.15516706978E+02 -0.18573096694E+03  0.21426722548E+03  0.79940107033E+02 0.  0.
         -6    2    1    2    0  502  0.14367755542E+02 -0.25771219544E+02  0.83847549274E+02  0.19402936403E+03  0.17247143077E+03 0.  0.
        -24    2    5    5    0    0 -0.13721659380E+02 -0.45863263923E+02 -0.11795046234E+02  0.92233973404E+02  0.77950367673E+02 0.  0.
          5    1    3    3  501    0  0.54793381881E+02  0.10254512566E+02 -0.30232726101E+02  0.63589129995E+02  0.47000000000E+01 0. -1.
        -11    1    4    4    0    0 -0.15465247115E+02 -0.18126894553E+02 -0.73028308229E+01  0.24921667530E+02  0.00000000000E+00 0.  1.
         12    1    4    4    0    0 -0.53695890308E+02  0.33643601531E+02 -0.17842813611E+03  0.18934555795E+03  0.00000000000E+00 0. -1.
         -5    1    5    5    0  502  0.28089414922E+02  0.20092044379E+02  0.95642595509E+02  0.10179539063E+03  0.47000000000E+01 0.  1.
         11    1    6    6    0    0  0.29416699275E+02 -0.51269790168E+01 -0.13739511715E+02  0.32869473562E+02  0.00000000000E+00 0. -1.
        -12    1    6    6    0    0 -0.43138358655E+02 -0.40736284907E+02  0.19444654805E+01  0.59364499842E+02  0.00000000000E+00 0.  1.
</event>
<event>
12    1  0.8493057E-002  0.3395489E+03  0.7818608E-02  0.1067258E+00
         21   -1    0    0  501  502  0.00000000000E+00  0.00000000000E+00  0.98100317585E+03  0.98100317585E+03  0.00000000000E+00 0.  1.
         21   -1    0    0  502  503 -0.00000000000E+00 -0.00000000000E+00 -0.19062561036E+03  0.19062561036E+03  0.00000000000E+00 0. -1.
         -6    2    1    2    0  503  0.62624756218E+01 -0.29278028157E+03  0.31173262317E+02  0.34097690770E+03  0.17185449493E+03 0.  0.
        -24    2    3    3    0    0 -0.20540077011E+02 -0.27973740086E+03 -0.74541133669E+01  0.29195999514E+03  0.80685604384E+02 0.  0.
          6    2    1    2  501    0 -0.62624756218E+01  0.29278028157E+03  0.75920430317E+03  0.83065187850E+03  0.16682882673E+03 0.  0.
         24    2    5    5    0    0  0.26488186418E+02  0.73534296708E+02  0.31425611218E+03  0.33351770103E+03  0.79801228358E+02 0.  0.
          5    1    5    5  501    0 -0.32750662040E+02  0.21924598486E+03  0.44494819099E+03  0.49713417747E+03  0.47000000000E+01 0. -1.
        -11    1    6    6    0    0  0.41991436646E+02  0.79175652319E+02  0.29420081332E+03  0.30754866807E+03  0.00000000000E+00 0.  1.
         12    1    6    6    0    0 -0.15503250228E+02 -0.56413556104E+01  0.20055298855E+02  0.25969032961E+02  0.00000000000E+00 0. -1.
         -5    1    3    3    0  503  0.26802552633E+02 -0.13042880709E+02  0.38627375684E+02  0.49016912561E+02  0.47000000000E+01 0.  1.
         11    1    4    4    0    0 -0.69455963428E+01 -0.63891261822E+02 -0.36236225375E+02  0.73779391941E+02  0.00000000000E+00 0. -1.
        -12    1    4    4    0    0 -0.13594480668E+02 -0.21584613904E+03  0.28782112009E+02  0.21818060320E+03  0.00000000000E+00 0.  1.
</event>
<event>
12    1  0.8493057E-002  0.1909186E+03  0.7818608E-02  0.1159102E+00
         21   -1    0    0  501  502  0.00000000000E+00  0.00000000000E+00  0.26142210549E+03  0.26142210549E+03  0.00000000000E+00 0. -1.
         21   -1    0    0  502  503 -0.00000000000E+00 -0.00000000000E+00 -0.17023598583E+03  0.17023598583E+03  0.00000000000E+00 0.  1.
         -6    2    1    2    0  503  0.76732185772E+02 -0.31147531105E+02 -0.52280644079E+02  0.19794743535E+03  0.17202303447E+03 0.  0.
        -24    2    3    3    0    0 -0.16439017205E+02  0.20241398777E+02  0.64156210457E+00  0.79016593741E+02  0.74587230632E+02 0.  0.
          6    2    1    2  501    0 -0.76732185772E+02  0.31147531105E+02  0.14346676374E+03  0.23371065596E+03  0.16486346286E+03 0.  0.
         24    2    5    5    0    0  0.16639405386E+02  0.26859129660E+01  0.47826889130E+02  0.96972243811E+02  0.82656644051E+02 0.  0.
          5    1    5    5  501    0 -0.93371591158E+02  0.28461618139E+02  0.95639874608E+02  0.13673841215E+03  0.47000000000E+01 0. -1.
        -13    1    6    6    0    0  0.39923643280E+02  0.29404553570E+01  0.58877404326E+02  0.71197558319E+02  0.00000000000E+00 0.  1.
         14    1    6    6    0    0 -0.23284237893E+02 -0.25454239094E+00 -0.11050515196E+02  0.25774685492E+02  0.00000000000E+00 0. -1.
         -5    1    3    3    0  503  0.93171202977E+02 -0.51388929883E+02 -0.52922206184E+02  0.11893084161E+03  0.47000000000E+01 0.  1.
         13    1    4    4    0    0 -0.40529313433E+02  0.16969889320E+02 -0.18894010618E+02  0.47828715518E+02  0.00000000000E+00 0. -1.
        -14    1    4    4    0    0  0.24090296228E+02  0.32715094576E+01  0.19535572723E+02  0.31187878223E+02  0.00000000000E+00 0.  1.
</event>
<event>
12    1  0.8493057E-002  0.1745387E+03  0.7818608E-02  0.1174069E+00
         21   -1    0    0  503  502  0.00000000000E+00  0.00000000000E+00  0.25800113469E+02  0.25800113469E+02  0.00000000000E+00 0. -1.
         21   -1    0    0  501  503 -0.00000000000E+00 -0.00000000000E+00 -0.20106644560E+04  0.20106644560E+04  0.00000000000E+00 0. -1.
          6    2    1    2  501    0 -0.26678412190E+02 -0.91041417736E+01 -0.16612899781E+04  0.16704335182E+04  0.17224727708E+03 0.  0.
         24    2    3    3    0    0 -0.66250524306E+02 -0.40066633390E+02 -0.87056671929E+03  0.87810152345E+03  0.84743174795E+02 0.  0.
         -6    2    1    2    0  502  0.26678412190E+02  0.91041417736E+01 -0.32357436448E+03  0.36603105127E+03  0.16877125962E+03 0.  0.
        -24    2    5    5    0    0  0.25982534046E+02 -0.35877015697E+02 -0.90163453308E+02  0.12827796038E+03  0.79771764912E+02 0.  0.
          5    1    3    3  501    0  0.39572112116E+02  0.30962491617E+02 -0.79072325878E+03  0.79233199476E+03  0.47000000000E+01 0. -1.
        -11    1    4    4    0    0  0.19287913545E+02 -0.17231700057E+02 -0.16821284254E+03  0.17018964567E+03  0.00000000000E+00 0.  1.
         12    1    4    4    0    0 -0.85538437851E+02 -0.22834933333E+02 -0.70235387675E+03  0.70791187779E+03  0.00000000000E+00 0. -1.
         -5    1    5    5    0  502  0.69587814366E+00  0.44981157471E+02 -0.23341091117E+03  0.23775309089E+03  0.47000000000E+01 0.  1.
         13    1    6    6    0    0 -0.15287796042E+02 -0.44876320375E+02 -0.35663392001E+02  0.59325191674E+02  0.00000000000E+00 0. -1.
        -14    1    6    6    0    0  0.41270330088E+02  0.89993046776E+01 -0.54500061307E+02  0.68952768710E+02  0.00000000000E+00 0.  1.
</event>
<event>
12    1  0.8493057E-002  0.2102445E+03  0.7818608E-02  0.1141885E+00
         21   -1    0    0  501  502  0.00000000000E+00  0.00000000000E+00  0.18632907508E+04  0.18632907508E+04  0.00000000000E+00 0. -1.
         21   -1    0    0  502  503 -0.00000000000E+00 -0.00000000000E+00 -0.86660217334E+02  0.86660217334E+02  0.00000000000E+00 0. -1.
         -6    2    1    2    0  503 -0.89268201959E+02  0.74660286337E+02  0.54050079979E+02  0.21458755913E+03  0.17199836962E+03 0.  0.
        -24    2    3    3    0    0  0.11808907400E+02  0.46747121583E+01 -0.25604988776E+01  0.79157096280E+02  0.78089605641E+02 0.  0.
          6    2    1    2  501    0  0.89268201959E+02 -0.74660286337E+02  0.17225804535E+04  0.17353634090E+04  0.17509932134E+03 0.  0.
         24    2    5    5    0    0  0.60460756177E+02  0.27788858377E+02  0.91967440556E+03  0.92542149258E+03  0.78588822332E+02 0.  0.
          5    1    5    5  501    0  0.28807445782E+02 -0.10244914471E+03  0.80290604790E+03  0.80994191640E+03  0.47000000000E+01 0. -1.
        -11    1    6    6    0    0  0.43700063308E+02  0.19063150392E+02  0.20398375018E+03  0.20948143014E+03  0.00000000000E+00 0.  1.
         12    1    6    6    0    0  0.16760692869E+02  0.87257079855E+01  0.71569065538E+03  0.71594006244E+03  0.00000000000E+00 0. -1.
         -5    1    3    3    0  503 -0.10107710936E+03  0.69985574179E+02  0.56610578857E+02  0.13543046285E+03  0.47000000000E+01 0.  1.
         11    1    4    4    0    0 -0.29578941676E+02 -0.22584436365E+01  0.15500948852E+02  0.33470789857E+02  0.00000000000E+00 0. -1.
        -12    1    4    4    0    0  0.41387849077E+02  0.69331557948E+01 -0.18061447730E+02  0.45686306423E+02  0.00000000000E+00 0.  1.
</event>
<event>
12    1  0.8493057E-002  0.1992018E+03  0.7818608E-02  0.1151475E+00
         21   -1    0    0  503  502  0.00000000000E+00  0.00000000000E+00  0.20708474284E+03  0.20708474284E+03  0.00000000000E+00 0.  1.
         21   -1    0    0  501  503 -0.00000000000E+00 -0.00000000000E+00 -0.34730833312E+03  0.34730833312E+03  0.00000000000E+00 0.  1.
          6    2    1    2  501    0  0.87777528061E+02  0.20964134220E+02 -0.25895967046E+03  0.32671309778E+03  0.17758645212E+03 0.  0.
         24    2    3    3    0    0  0.23744014198E+02  0.55270768331E+02 -0.22499006312E+03  0.24638091080E+03  0.80401422017E+02 0.  0.
         -6    2    1    2    0  502 -0.87777528061E+02 -0.20964134220E+02  0.11873608018E+03  0.22767997819E+03  0.17203350364E+03 0.  0.
        -24    2    5    5    0    0 -0.53543483842E+02  0.51553288994E+02  0.90749272995E+02  0.14261472189E+03  0.81110308110E+02 0.  0.
          5    1    3    3  501    0  0.64033513862E+02 -0.34306634110E+02 -0.33969607341E+02  0.80332186977E+02  0.47000000000E+01 0. -1.
        -13    1    4    4    0    0  0.25641467880E+02 -0.15932238799E+01 -0.15034713209E+03  0.15252633663E+03  0.00000000000E+00 0.  1.
         14    1    4    4    0    0 -0.18974536813E+01  0.56863992210E+02 -0.74642931030E+02  0.93854574174E+02  0.00000000000E+00 0. -1.
         -5    1    5    5    0  502 -0.34234044219E+02 -0.72517423214E+02  0.27986807188E+02  0.85065256303E+02  0.47000000000E+01 0.  1.
         13    1    6    6    0    0  0.34135140411E+01  0.10957899094E+00 -0.13068535857E+02  0.13507431847E+02  0.00000000000E+00 0. -1.
        -14    1    6    6    0    0 -0.56956997883E+02  0.51443710003E+02  0.10381780885E+03  0.12910729004E+03  0.00000000000E+00 0.  1.
</event>
<event>
12    1  0.8493057E-002  0.1904863E+03  0.7818608E-02  0.1159989E+00
         21   -1    0    0  501  502  0.00000000000E+00  0.00000000000E+00  0.45011918797E+03  0.45011918797E+03  0.00000000000E+00 0.  1.
         21   -1    0    0  502  503 -0.00000000000E+00 -0.00000000000E+00 -0.95499943951E+02  0.95499943951E+02  0.00000000000E+00 0.  1.
         -6    2    1    2    0  503  0.58043403106E+01  0.82095605267E+02  0.30050240164E+03  0.35579028685E+03  0.17178956912E+03 0.  0.
        -24    2    3    3    0    0 -0.46592515920E+02 -0.65101760917E+01  0.12176202977E+03  0.14947347811E+03  0.72822275664E+02 0.  0.
          6    2    1    2  501    0 -0.58043403106E+01 -0.82095605267E+02  0.54116842380E+02  0.18982884507E+03  0.16227439422E+03 0.  0.
         24    2    5    5    0    0  0.26177952234E+02 -0.24574443754E+02  0.80075703393E+02  0.11892395438E+03  0.80259580003E+02 0.  0.
          5    1    5    5  501    0 -0.31982292545E+02 -0.57521161513E+02 -0.25958861013E+02  0.70904890687E+02  0.47000000000E+01 0. -1.
        -13    1    6    6    0    0  0.45425704689E+02 -0.22735696881E+02  0.17977288092E+02  0.53884964938E+02  0.00000000000E+00 0.  1.
         14    1    6    6    0    0 -0.19247752455E+02 -0.18387468728E+01  0.62098415302E+02  0.65038989442E+02  0.00000000000E+00 0. -1.
         -5    1    3    3    0  503  0.52396856231E+02  0.88605781359E+02  0.17874037186E+03  0.20631680874E+03  0.47000000000E+01 0.  1.
         13    1    4    4    0    0  0.66974666250E+01 -0.10898672603E+02 -0.35119146067E+01  0.13265393621E+02  0.00000000000E+00 0. -1.
        -14    1    4    4    0    0 -0.53289982545E+02  0.43884965116E+01  0.12527394438E+03  0.13620808449E+03  0.00000000000E+00 0.  1.
</event>
<event>
12    1  0.8493057E-002  0.1841021E+03  0.7818608E-02  0.1164331E+00
         21   -1    0    0  503  502  0.00000000000E+00  0.00000000000E+00  0.38425577317E+03  0.38425577317E+03  0.00000000000E+00 0. -1.
         21   -1    0    0  501  503 -0.00000000000E+00 -0.00000000000E+00 -0.10073863719E+03  0.10073863719E+03  0.00000000000E+00 0. -1.
          6    2    1    2  501    0  0.46516123629E+02  0.40888291301E+02  0.52612738309E+02  0.18968027283E+03  0.17139108362E+03 0.  0.
         24    2    3    3    0    0 -0.19643740540E+02 -0.30010262979E+02  0.68114303609E+02  0.91363839041E+02  0.49206709926E+02 0.  0.
         -6    2    1    2    0  502 -0.46516123629E+02 -0.40888291301E+02  0.23090439768E+03  0.29531413754E+03  0.17337242237E+03 0.  0.
        -24    2    5    5    0    0 -0.91001738115E+02 -0.19867003638E+02  0.20745689584E+03  0.24060819843E+03  0.78599792277E+02 0.  0.
          5    1    3    3  501    0  0.66159864168E+02  0.70898554280E+02 -0.15501565300E+02  0.98316433787E+02  0.47000000000E+01 0. -1.
        -11    1    4    4    0    0 -0.18082691027E+02 -0.42376336648E+02  0.41638212005E+02  0.62100550090E+02  0.00000000000E+00 0.  1.
         12    1    4    4    0    0 -0.15610495123E+01  0.12366073670E+02  0.26476091604E+02  0.29263288951E+02  0.00000000000E+00 0. -1.
         -5    1    5    5    0  502  0.44485614487E+02 -0.21021287663E+02  0.23447501838E+02  0.54705939109E+02  0.47000000000E+01 0.  1.
         13    1    6    6    0    0 -0.23358273866E+00  0.89851628982E+01  0.84994553673E+02  0.85468484643E+02  0.00000000000E+00 0. -1.
        -14    1    6    6    0    0 -0.90768155377E+02 -0.28852166536E+02  0.12246234217E+03  0.15513971378E+03  0.00000000000E+00 0.  1.
</event>
<event>
12    1  0.8493057E-002  0.1935216E+03  0.7818608E-02  0.1155713E+00
         21   -1    0    0  503  502  0.00000000000E+00  0.00000000000E+00  0.37383252453E+03  0.37383252453E+03  0.00000000000E+00 0.  1.
         21   -1    0    0  501  503 -0.00000000000E+00 -0.00000000000E+00 -0.99607432924E+02  0.99607432924E+02  0.00000000000E+00 0.  1.
          6    2    1    2  501    0  0.10793753097E+02 -0.81730788971E+02  0.12267682815E+03  0.22764026129E+03  0.17313017480E+03 0.  0.
         24    2    3    3    0    0 -0.43630852371E+02 -0.76680269531E+02  0.12472642650E+03  0.17274184346E+03  0.80619774267E+02 0.  0.
         -6    2    1    2    0  502 -0.10793753097E+02  0.81730788971E+02  0.15154826346E+03  0.24579969616E+03  0.17508337301E+03 0.  0.
        -24    2    5    5    0    0  0.31489234071E+02  0.88428904645E+02  0.16137770459E+03  0.20162477488E+03  0.76148166542E+02 0.  0.
          5    1    3    3  501    0  0.54424605467E+02 -0.50505194398E+01 -0.20495983451E+01  0.54898417830E+02  0.47000000000E+01 0. -1.
        -13    1    4    4    0    0 -0.35608041764E+02 -0.76904078895E+02  0.51693569822E+02  0.99269306182E+02  0.00000000000E+00 0.  1.
         14    1    4    4    0    0 -0.80228106064E+01  0.22380936355E+00  0.73032856674E+02  0.73472537281E+02  0.00000000000E+00 0. -1.
         -5    1    5    5    0  502 -0.42282987167E+02 -0.66981156733E+01 -0.98294411315E+01  0.44174921283E+02  0.47000000000E+01 0. -1.
         11    1    6    6    0    0 -0.18358963724E+02  0.21535360933E+01  0.43575138924E+02  0.47333730034E+02  0.00000000000E+00 0. -1.
        -12    1    6    6    0    0  0.49848197795E+02  0.86275368551E+02  0.11780256567E+03  0.15429104485E+03  0.00000000000E+00 0.  1.
</event>
<event>
12    1  0.8493057E-002  0.2168308E+03  0.7818608E-02  0.1136285E+00
         21   -1    0    0  501  502  0.00000000000E+00  0.00000000000E+00  0.83887123184E+03  0.83887123184E+03  0.00000000000E+00 0. -1.
         21   -1    0    0  502  503 -0.00000000000E+00 -0.00000000000E+00 -0.72614591941E+02  0.72614591941E+02  0.00000000000E+00 0. -1.
         -6    2    1    2    0  503 -0.12987367025E+03  0.24627564435E+02  0.16522421068E+03  0.27253701840E+03  0.17176640955E+03 0.  0.
        -24    2    3    3    0    0 -0.16721087689E+02  0.53654116296E+01  0.12767961134E+03  0.15168080461E+03  0.79978752932E+02 0.  0.
          6    2    1    2  501    0  0.12987367025E+03 -0.24627564435E+02  0.60103242921E+03  0.63894880537E+03  0.17187759530E+03 0.  0.
         24    2    5    5    0    0  0.14587687316E+03  0.30584460979E+01  0.56627172614E+03  0.59148287906E+03  0.88875824508E+02 0.  0.
          5    1    5    5  501    0 -0.16003202905E+02 -0.27686010533E+02  0.34760703068E+02  0.47465926308E+02  0.47000000000E+01 0. -1.
        -11    1    6    6    0    0  0.42903228181E+02  0.40101819254E+02  0.15054816174E+03  0.16159700461E+03  0.00000000000E+00 0.  1.
         12    1    6    6    0    0  0.10297364498E+03 -0.37043373156E+02  0.41572356441E+03  0.42988587446E+03  0.00000000000E+00 0. -1.
         -5    1    3    3    0  503 -0.11315258256E+03  0.19262152806E+02  0.37544599341E+02  0.12085621379E+03  0.47000000000E+01 0.  1.
         13    1    4    4    0    0  0.77306372229E+01  0.32896951662E+02  0.10017175033E+03  0.10571826590E+03  0.00000000000E+00 0. -1.
        -14    1    4    4    0    0 -0.24451724912E+02 -0.27531540032E+02  0.27507861013E+02  0.45962538716E+02  0.00000000000E+00 0.  1.
</event>
<event>
12    1  0.8493057E-002  0.2133886E+03  0.7818608E-02  0.1139668E+00
         21   -1    0    0  501  502  0.00000000000E+00  0.00000000000E+00  0.50808345289E+03  0.50808345289E+03  0.00000000000E+00 0.  1.
         21   -1    0    0  502  503 -0.00000000000E+00 -0.00000000000E+00 -0.97558260973E+02  0.97558260973E+02  0.00000000000E+00 0. -1.
         -6    2    1    2    0  503 -0.40107451449E+02  0.11974367613E+03  0.30172288343E+03  0.36955568028E+03  0.17201031017E+03 0.  0.
        -24    2    3    3    0    0 -0.30785171271E+02  0.72947320629E+02  0.70593699044E+02  0.13350569898E+03  0.81063326835E+02 0.  0.
          6    2    1    2  501    0  0.40107451449E+02 -0.11974367613E+03  0.10880230848E+03  0.23608603358E+03  0.16718707273E+03 0.  0.
         24    2    5    5    0    0  0.26453621633E+02 -0.31122155524E+01  0.78953291458E+02  0.11483266876E+03  0.79015438992E+02 0.  0.
          5    1    5    5  501    0  0.13653829816E+02 -0.11663146057E+03  0.29849017025E+02  0.12125336483E+03  0.47000000000E+01 0. -1.
        -11    1    6    6    0    0  0.31066871355E+02 -0.74651095415E+01 -0.34940934194E+01  0.32141671473E+02  0.00000000000E+00 0.  1.
         12    1    6    6    0    0 -0.46132497213E+01  0.43528939891E+01  0.82447384877E+02  0.82690997286E+02  0.00000000000E+00 0. -1.
         -5    1    3    3    0  503 -0.93222801776E+01  0.46796355496E+02  0.23112918439E+03  0.23604998130E+03  0.47000000000E+01 0.  1.
         13    1    4    4    0    0  0.12368035321E+02 -0.11956695315E+02  0.51851707613E+01  0.17967104842E+02  0.00000000000E+00 0. -1.
        -14    1    4    4    0    0 -0.43153206592E+02  0.84904015945E+02  0.65408528283E+02  0.11553859414E+03  0.00000000000E+00 0.  1.
</event>
<event>
12    1  0.8493057E-002  0.2051008E+03  0.7818608E-02  0.1145742E+00
         21   -1    0    0  503  502  0.00000000000E+00  0.00000000000E+00  0.86510269940E+02  0.86510269940E+02  0.00000000000E+00 0. -1.
         21   -1    0    0  501  503 -0.00000000000E+00 -0.00000000000E+00 -0.78955329189E+03  0.78955329189E+03  0.00000000000E+00 0. -1.
          6    2    1    2  501    0 -0.45485125424E+02 -0.10068370704E+03 -0.62361943621E+03  0.65612163461E+03  0.17143013937E+03 0.  0.
         24    2    3    3    0    0 -0.31908455377E+02 -0.34793010759E+02 -0.14123448540E+03  0.16904541820E+03  0.80002940103E+02 0.  0.
         -6    2    1    2    0  502  0.45485125424E+02  0.10068370704E+03 -0.79423585743E+02  0.21994192722E+03  0.17280115706E+03 0.  0.
        -24    2    5    5    0    0  0.41678038673E+02  0.34436971763E+02 -0.10852677461E+03  0.14733194550E+03  0.83699924888E+02 0.  0.
          5    1    3    3  501    0 -0.13576670047E+02 -0.65890696279E+02 -0.48238495080E+03  0.48707621641E+03  0.47000000000E+01 0. -1.
        -13    1    4    4    0    0  0.70191219981E+01  0.22255983633E+02 -0.28477062424E+02  0.36817658337E+02  0.00000000000E+00 0.  1.
         14    1    4    4    0    0 -0.38927577375E+02 -0.57048994392E+02 -0.11275742298E+03  0.13222775986E+03  0.00000000000E+00 0. -1.
         -5    1    5    5    0  502  0.38070867511E+01  0.66246735274E+02  0.29103188864E+02  0.72609981725E+02  0.47000000000E+01 0.  1.
         11    1    6    6    0    0  0.44579083478E+02  0.51159241805E+02 -0.44626803700E+02  0.81216465783E+02  0.00000000000E+00 0. -1.
        -12    1    6    6    0    0 -0.29010448051E+01 -0.16722270041E+02 -0.63899970906E+02  0.66115479716E+02  0.00000000000E+00 0.  1.
</event>
<event>
12    1  0.8493057E-002  0.2436871E+03  0.7818608E-02  0.1117438E+00
         21   -1    0    0  503  502  0.00000000000E+00  0.00000000000E+00  0.11812451937E+03  0.11812451937E+03  0.00000000000E+00 0. -1.
         21   -1    0    0  501  503 -0.00000000000E+00 -0.00000000000E+00 -0.78378309263E+03  0.78378309263E+03  0.00000000000E+00 0.  1.
          6    2    1    2  501    0 -0.16931234922E+03  0.32525265423E+02 -0.60313524360E+03  0.65032750622E+03  0.17154934799E+03 0.  0.
         24    2    3    3    0    0 -0.10270430326E+03 -0.33464679471E+02 -0.45804148289E+03  0.47751085770E+03  0.80910818105E+02 0.  0.
         -6    2    1    2    0  502  0.16931234922E+03 -0.32525265423E+02 -0.62523329671E+02  0.25158010578E+03  0.17221735795E+03 0.  0.
        -24    2    5    5    0    0  0.43992517229E+02  0.49852027637E+01 -0.75932892382E+02  0.11999742498E+03  0.81690783061E+02 0.  0.
          5    1    3    3  501    0 -0.66608045959E+02  0.65989944894E+02 -0.14509376070E+03  0.17281664853E+03  0.47000000000E+01 0. -1.
        -13    1    4    4    0    0 -0.86694714054E+02 -0.80435301607E+01 -0.20542902050E+03  0.22311825180E+03  0.00000000000E+00 0.  1.
         14    1    4    4    0    0 -0.16009589209E+02 -0.25421149310E+02 -0.25261246239E+03  0.25439260590E+03  0.00000000000E+00 0. -1.
         -5    1    5    5    0  502  0.12531983199E+03 -0.37510468187E+02  0.13409562711E+02  0.13158268080E+03  0.47000000000E+01 0.  1.
         11    1    6    6    0    0 -0.82772958826E+01 -0.57943910101E+01  0.12887460139E+02  0.16376056397E+02  0.00000000000E+00 0. -1.
        -12    1    6    6    0    0  0.52269813112E+02  0.10779593774E+02 -0.88820352521E+02  0.10362136858E+03  0.00000000000E+00 0.  1.
</event>
<event>
12    1  0.8493057E-002  0.1863963E+03  0.7818608E-02  0.1162675E+00
         21   -1    0    0  503  502  0.00000000000E+00  0.00000000000E+00  0.20548886162E+03  0.20548886162E+03  0.00000000000E+00 0. -1.
         21   -1    0    0  501  503 -0.00000000000E+00 -0.00000000000E+00 -0.21629743427E+03  0.21629743427E+03  0.00000000000E+00 0. -1.
          6    2    1    2  501    0 -0.66827642885E+02  0.20372056944E+02 -0.10753878223E+03  0.21178554444E+03  0.16854546150E+03 0.  0.
         24    2    3    3    0    0  0.22358417878E+02  0.31492974318E+02 -0.76055303948E+02  0.11643813943E+03  0.79257332621E+02 0.  0.
         -6    2    1    2    0  502  0.66827642885E+02 -0.20372056944E+02  0.96730209575E+02  0.21000075145E+03  0.17280806580E+03 0.  0.
        -24    2    5    5    0    0  0.73177634842E+02  0.13643391917E+01  0.12951998111E+03  0.16987529279E+03  0.82008304053E+02 0.  0.
          5    1    3    3  501    0 -0.89186060763E+02 -0.11120917374E+02 -0.31483478278E+02  0.95347405010E+02  0.47000000000E+01 0. -1.
        -13    1    4    4    0    0  0.20106139906E+01 -0.43912817053E+01  0.15384013556E+02  0.16124323140E+02  0.00000000000E+00 0.  1.
         14    1    4    4    0    0  0.20347803887E+02  0.35884256023E+02 -0.91439317504E+02  0.10031381629E+03  0.00000000000E+00 0. -1.
         -5    1    5    5    0  502 -0.63499919566E+01 -0.21736396135E+02 -0.32789771533E+02  0.40125458651E+02  0.47000000000E+01 0.  1.
         13    1    6    6    0    0  0.73447201616E+02  0.15959868017E+02  0.52983317057E+02  0.91958907663E+02  0.00000000000E+00 0. -1.
        -14    1    6    6    0    0 -0.26956677393E+00 -0.14595528826E+02  0.76536664051E+02  0.77916385132E+02  0.00000000000E+00 0.  1.
</event>
<event>
12    1  0.8493057E-002  0.2604913E+03  0.7818608E-02  0.1107125E+00
         21   -1    0    0  503  502  0.00000000000E+00  0.00000000000E+00  0.21781582153E+03  0.21781582153E+03  0.00000000000E+00 0.  1.
         21   -1    0    0  501  503 -0.00000000000E+00 -0.00000000000E+00 -0.57978969872E+03  0.57978969872E+03  0.00000000000E+00 0. -1.
          6    2    1    2  501    0  0.12472770273E+03  0.14944375223E+03 -0.45302317985E+03  0.52166043574E+03  0.17032079680E+03 0.  0.
         24    2    3    3    0    0  0.14605801862E+03  0.12481518935E+03 -0.30297458035E+03  0.36804331202E+03  0.82161468405E+02 0.  0.
         -6    2    1    2    0  502 -0.12472770273E+03 -0.14944375223E+03  0.91049302659E+02  0.27594508451E+03  0.17310482156E+03 0.  0.
        -24    2    5    5    0    0 -0.13638902478E+03 -0.78119226365E+02  0.97947296107E+02  0.20319313103E+03  0.83601411934E+02 0.  0.
          5    1    3    3  501    0 -0.21330315894E+02  0.24628562880E+02 -0.15004859950E+03  0.15361712372E+03  0.47000000000E+01 0. -1.
        -13    1    4    4    0    0  0.10250123996E+02  0.53175714522E+02 -0.62144666227E+02  0.82429856225E+02  0.00000000000E+00 0.  1.
         14    1    4    4    0    0  0.13580789462E+03  0.71639474825E+02 -0.24082991412E+03  0.28561345580E+03  0.00000000000E+00 0. -1.
         -5    1    5    5    0  502  0.11661322052E+02 -0.71324525862E+02 -0.68979934476E+01  0.72751953479E+02  0.47000000000E+01 0.  1.
         13    1    6    6    0    0 -0.32983612971E+02 -0.95086500781E+01 -0.13025179427E+02  0.36714962210E+02  0.00000000000E+00 0. -1.
        -14    1    6    6    0    0 -0.10340541181E+03 -0.68610576286E+02  0.11097247553E+03  0.16647816883E+03  0.00000000000E+00 0.  1.
</event>
<event>
12    1  0.8493057E-002  0.1898998E+03  0.7818608E-02  0.1159200E+00
         21   -1    0    0  503  502  0.00000000000E+00  0.00000000000E+00  0.16098412446E+03  0.16098412446E+03  0.00000000000E+00 0. -1.
         21   -1    0    0  501  503 -0.00000000000E+00 -0.00000000000E+00 -0.45614510575E+03  0.45614510575E+03  0.00000000000E+00 0.  1.
          6    2    1    2  501    0  0.59745348192E+02  0.44753327386E+02 -0.36874297757E+03  0.41347201864E+03  0.17150906609E+03 0.  0.
         24    2    3    3    0    0 -0.12942334018E+02  0.14314599754E+02 -0.29182336436E+03  0.30325073131E+03  0.80173052058E+02 0.  0.
         -6    2    1    2    0  502 -0.59745348192E+02 -0.44753327386E+02  0.73581996270E+02  0.20365721157E+03  0.17461266480E+03 0.  0.
        -24    2    5    5    0    0 -0.68958638480E+02  0.23666438357E+02  0.78915007945E+02  0.13425490559E+03  0.80507186450E+02 0.  0.
          5    1    3    3  501    0  0.72687682211E+02  0.30438727633E+02 -0.76919613206E+02  0.11022128733E+03  0.47000000000E+01 0. -1.
        -13    1    4    4    0    0 -0.34761594753E+01  0.43552980933E+02 -0.10211898141E+03  0.11107309394E+03  0.00000000000E+00 0.  1.
         14    1    4    4    0    0 -0.94661745431E+01 -0.29238381179E+02 -0.18970438295E+03  0.19217763736E+03  0.00000000000E+00 0. -1.
         -5    1    5    5    0  502  0.92132902873E+01 -0.68419765744E+02 -0.53330116756E+01  0.69402305984E+02  0.47000000000E+01 0.  1.
         13    1    6    6    0    0 -0.71264070855E+01 -0.27338074467E+02  0.24279480041E+02  0.37251162996E+02  0.00000000000E+00 0. -1.
        -14    1    6    6    0    0 -0.61832231394E+02  0.51004512824E+02  0.54635527904E+02  0.97003742593E+02  0.00000000000E+00 0.  1.
</event>
<event>
12    1  0.8493057E-002  0.2232085E+03  0.7818608E-02  0.1131689E+00
         21   -1    0    0  501  502  0.00000000000E+00  0.00000000000E+00  0.45572932257E+02  0.45572932257E+02  0.00000000000E+00 0.  1.
         21   -1    0    0  502  503 -0.00000000000E+00 -0.00000000000E+00 -0.10885553406E+04  0.10885553406E+04  0.00000000000E+00 0. -1.
         -6    2    1    2    0  503 -0.10358318112E+03 -0.98928261574E+02 -0.52396520201E+03  0.56952751351E+03  0.17118930861E+03 0.  0.
        -24    2    3    3    0    0 -0.76149822345E+02  0.10252691857E+01 -0.18605974251E+03  0.21605122429E+03  0.79120522707E+02 0.  0.
          6    2    1    2  501    0  0.10358318112E+03  0.98928261574E+02 -0.51901720638E+03  0.56460075939E+03  0.16993787287E+03 0.  0.
         24    2    5    5    0    0  0.41157169339E+02  0.58151480152E+02 -0.12990575491E+03  0.16838167288E+03  0.80008595609E+02 0.  0.
          5    1    5    5  501    0  0.62426011779E+02  0.40776781422E+02 -0.38911145147E+03  0.39621908651E+03  0.47000000000E+01 0. -1.
        -11    1    6    6    0    0 -0.20667792703E+02  0.84567080850E+01 -0.96623143219E+01  0.24331746442E+02  0.00000000000E+00 0.  1.
         12    1    6    6    0    0  0.61824962042E+02  0.49694772067E+02 -0.12024344059E+03  0.14404992644E+03  0.00000000000E+00 0. -1.
         -5    1    3    3    0  503 -0.27433358772E+02 -0.99953530759E+02 -0.33790545950E+03  0.35347628923E+03  0.47000000000E+01 0.  1.
         13    1    4    4    0    0  0.13228419917E+02  0.79278075580E+01 -0.56039269496E+02  0.58122637172E+02  0.00000000000E+00 0. -1.
        -14    1    4    4    0    0 -0.89378242262E+02 -0.69025383723E+01 -0.13002047301E+03  0.15792858712E+03  0.00000000000E+00 0.  1.
</event>
<event>
12    1  0.8493057E-002  0.1797865E+03  0.7818608E-02  0.1168312E+00
         21   -1    0    0  503  502  0.00000000000E+00  0.00000000000E+00  0.20995444271E+03  0.20995444271E+03  0.00000000000E+00 0. -1.
         21   -1    0    0  501  503 -0.00000000000E+00 -0.00000000000E+00 -0.19423252697E+03  0.19423252697E+03  0.00000000000E+00 0. -1.
          6    2    1    2  501    0 -0.37235982675E+02  0.27729749924E+02 -0.85353620285E+02  0.19901867076E+03  0.17368861039E+03 0.  0.
         24    2    3    3    0    0 -0.21866839114E+02 -0.50876623206E+02 -0.29393443759E+02  0.10119840790E+03  0.79438994096E+02 0.  0.
         -6    2    1    2    0  502  0.37235982675E+02 -0.27729749924E+02  0.10107553602E+03  0.20516829891E+03  0.17240159355E+03 0.  0.
        -24    2    5    5    0    0  0.70679738673E+02 -0.44728685993E+02  0.20576077816E+02  0.11623179677E+03  0.78039571959E+02 0.  0.
          5    1    3    3  501    0 -0.15369143561E+02  0.78606373130E+02 -0.55960176526E+02  0.97820262867E+02  0.47000000000E+01 0. -1.
        -13    1    4    4    0    0  0.29596366002E+02 -0.24225108876E+02 -0.17385800379E+02  0.42012698502E+02  0.00000000000E+00 0.  1.
         14    1    4    4    0    0 -0.51463205116E+02 -0.26651514330E+02 -0.12007643380E+02  0.59185709394E+02  0.00000000000E+00 0. -1.
         -5    1    5    5    0  502 -0.33443755998E+02  0.16998936069E+02  0.80499458206E+02  0.88936502147E+02  0.47000000000E+01 0.  1.
         11    1    6    6    0    0 -0.10259964087E+02 -0.87238729077E+01  0.24064373530E+02  0.27576564234E+02  0.00000000000E+00 0. -1.
        -12    1    6    6    0    0  0.80939702760E+02 -0.36004813086E+02 -0.34882957143E+01  0.88655232531E+02  0.00000000000E+00 0.  1.
</event>
<event>
12    1  0.8493057E-002  0.1749210E+03  0.7818608E-02  0.1173419E+00
         21   -1    0    0  503  502  0.00000000000E+00  0.00000000000E+00  0.59182745044E+02  0.59182745044E+02  0.00000000000E+00 0. -1.
         21   -1    0    0  501  503 -0.00000000000E+00 -0.00000000000E+00 -0.53844366634E+03  0.53844366634E+03  0.00000000000E+00 0. -1.
          6    2    1    2  501    0 -0.30332183964E+00 -0.10363478359E+02 -0.17243196735E+03  0.24562196926E+03  0.17461350099E+03 0.  0.
         24    2    3    3    0    0 -0.22056169096E+02  0.59081965743E+02 -0.93987575321E+02  0.13851702674E+03  0.79850792802E+02 0.  0.
         -6    2    1    2    0  502  0.30332183964E+00  0.10363478359E+02 -0.30682895394E+03  0.35200444213E+03  0.17220809102E+03 0.  0.
        -24    2    5    5    0    0  0.33902710787E+02  0.30515221309E+02 -0.29384923635E+03  0.31046440421E+03  0.89219953190E+02 0.  0.
          5    1    3    3  501    0  0.21752847257E+02 -0.69445444102E+02 -0.78444392034E+02  0.10710494252E+03  0.47000000000E+01 0. -1.
        -11    1    4    4    0    0  0.24246008538E+02  0.46578889019E+02 -0.38133249806E+02  0.64896891859E+02  0.00000000000E+00 0.  1.
         12    1    4    4    0    0 -0.46302177634E+02  0.12503076725E+02 -0.55854325515E+02  0.73620134881E+02  0.00000000000E+00 0. -1.
         -5    1    5    5    0  502 -0.33599388947E+02 -0.20151742949E+02 -0.12979717595E+02  0.41540037920E+02  0.47000000000E+01 0.  1.
         11    1    6    6    0    0  0.14568481768E+02 -0.29060698425E+02 -0.15143876267E+03  0.15488855249E+03  0.00000000000E+00 0. -1.
        -12    1    6    6    0    0  0.19334229019E+02  0.59575919733E+02 -0.14241047368E+03  0.15557585172E+03  0.00000000000E+00 0.  1.
</event>
<event>
12    1  0.8493057E-002  0.2055226E+03  0.7818608E-02  0.1145491E+00
         21   -1    0    0  503  502  0.00000000000E+00  0.00000000000E+00  0.83665994784E+02  0.83665994784E+02  0.00000000000E+00 0. -1.
         21   -1    0    0  501  503 -0.00000000000E+00 -0.00000000000E+00 -0.55889255022E+03  0.55889255022E+03  0.00000000000E+00 0. -1.
          6    2    1    2  501    0  0.11450707005E+03  0.84096329258E+01 -0.34193479272E+03  0.39894727321E+03  0.17046094365E+03 0.  0.
         24    2    3    3    0    0  0.25228551538E+02 -0.50921074513E+02 -0.20133291785E+03  0.22208075877E+03  0.74535118991E+02 0.  0.
         -6    2    1    2    0  502 -0.11450707005E+03 -0.84096329258E+01 -0.13329176272E+03  0.24361127180E+03  0.16851458904E+03 0.  0.
        -24    2    5    5    0    0 -0.13562086856E+03 -0.22180050169E+02 -0.67377703005E+02  0.17288525009E+03  0.80402613276E+02 0.  0.
          5    1    3    3  501    0  0.89278518515E+02  0.59330707438E+02 -0.14060187486E+03  0.17686651444E+03  0.47000000000E+01 0. -1.
        -11    1    4    4    0    0 -0.25661747674E+02 -0.81208775142E+01 -0.50040071955E+02  0.56819739058E+02  0.00000000000E+00 0.  1.
         12    1    4    4    0    0  0.50890299212E+02 -0.42800196998E+02 -0.15129284590E+03  0.16526101971E+03  0.00000000000E+00 0. -1.
         -5    1    5    5    0  502  0.21113798508E+02  0.13770417243E+02 -0.65914059720E+02  0.70726021712E+02  0.47000000000E+01 0.  1.
         11    1    6    6    0    0 -0.52743309477E+02  0.30229836822E+02 -0.31505768355E+02  0.68471257974E+02  0.00000000000E+00 0. -1.
        -12    1    6    6    0    0 -0.82877559084E+02 -0.52409886991E+02 -0.35871934649E+02  0.10441399212E+03  0.00000000000E+00 0.  1.
</event>
<event>
12    1  0.8493057E-002  0.2221214E+03  0.7818608E-02  0.1132425E+00
         21   -1    0    0  503  502  0.00000000000E+00  0.00000000000E+00  0.43898241672E+03  0.43898241672E+03  0.00000000000E+00 0. -1.
         21   -1    0    0  501  503 -0.00000000000E+00 -0.00000000000E+00 -0.19524340693E+03  0.19524340693E+03  0.00000000000E+00 0. -1.
          6    2    1    2  501    0 -0.13044035767E+02  0.13934645931E+03 -0.85191838744E+02  0.23732099799E+03  0.17168582967E+03 0.  0.
         24    2    3    3    0    0  0.41706212293E+02  0.93706888780E+02 -0.98960390005E+02  0.16457333092E+03  0.82285073446E+02 0.  0.
         -6    2    1    2    0  502  0.13044035767E+02 -0.13934645931E+03  0.32893084854E+03  0.39690482566E+03  0.17248291197E+03 0.  0.
        -24    2    5    5    0    0 -0.19253476052E+02 -0.77272921911E+02  0.75129131039E+02  0.13359197918E+03  0.76554750148E+02 0.  0.
          5    1    3    3  501    0 -0.54750248059E+02  0.45639570528E+02  0.13768551261E+02  0.72747667072E+02  0.47000000000E+01 0. -1.
        -11    1    4    4    0    0  0.40168843865E+02  0.10640763178E+03 -0.71674690941E+02  0.13443727697E+03  0.00000000000E+00 0.  1.
         12    1    4    4    0    0  0.15373684278E+01 -0.12700742996E+02 -0.27285699064E+02  0.30136053951E+02  0.00000000000E+00 0. -1.
         -5    1    5    5    0  502  0.32297511819E+02 -0.62073537397E+02  0.25380171750E+03  0.26331284647E+03  0.47000000000E+01 0.  1.
         13    1    6    6    0    0  0.39746746477E+00 -0.98750772995E+01  0.61233332884E+02  0.62025770355E+02  0.00000000000E+00 0. -1.
        -14    1    6    6    0    0 -0.19650943517E+02 -0.67397844612E+02  0.13895798155E+02  0.71566208826E+02  0.00000000000E+00 0.  1.
</event>
<event>
12    1  0.8493057E-002  0.2230840E+03  0.7818608E-02  0.1132126E+00
         21   -1    0    0  501  502  0.00000000000E+00  0.00000000000E+00  0.37577704993E+03  0.37577704993E+03  0.00000000000E+00 0.  1.
         21   -1    0    0  502  503 -0.00000000000E+00 -0.00000000000E+00 -0.16693087875E+03  0.16693087875E+03  0.00000000000E+00 0. -1.
         -6    2    1    2    0  503  0.23508520038E+02  0.13498350405E+03 -0.22407495511E+02  0.22139073013E+03  0.17244872471E+03 0.  0.
        -24    2    3    3    0    0  0.49645522363E+02  0.13792783049E+03 -0.58566929000E+02  0.17643067476E+03  0.78796786168E+02 0.  0.
          6    2    1    2  501    0 -0.23508520038E+02 -0.13498350405E+03  0.23125366669E+03  0.32131719855E+03  0.17604910351E+03 0.  0.
         24    2    5    5    0    0 -0.65398994441E+02 -0.14646183253E+03  0.18137719108E+03  0.25501247255E+03  0.80034860219E+02 0.  0.
          5    1    5    5  501    0  0.41890474403E+02  0.11478328484E+02  0.49876475607E+02  0.66304725996E+02  0.47000000000E+01 0. -1.
        -13    1    6    6    0    0 -0.75767304957E+02 -0.74363652078E+02  0.11421031532E+03  0.15593150219E+03  0.00000000000E+00 0.  1.
         14    1    6    6    0    0  0.10368310516E+02 -0.72098180455E+02  0.67166875766E+02  0.99080970363E+02  0.00000000000E+00 0. -1.
         -5    1    3    3    0  503 -0.26137002325E+02 -0.29443264417E+01  0.36159433489E+02  0.44960055371E+02  0.47000000000E+01 0.  1.
         11    1    4    4    0    0  0.18562053277E+02  0.19864742534E+02 -0.46349101379E+02  0.53734504896E+02  0.00000000000E+00 0. -1.
        -12    1    4    4    0    0  0.31083469086E+02  0.11806308796E+03 -0.12217827621E+02  0.12269616987E+03  0.00000000000E+00 0.  1.
</event>
<event>
12    1  0.8493057E-002  0.1770241E+03  0.7818608E-02  0.1170892E+00
         21   -1    0    0  503  502  0.00000000000E+00  0.00000000000E+00  0.82609514462E+03  0.82609514462E+03  0.00000000000E+00 0. -1.
         21   -1    0    0  501  503 -0.00000000000E+00 -0.00000000000E+00 -0.55000360858E+02  0.55000360858E+02  0.00000000000E+00 0. -1.
          6    2    1    2  501    0  0.31753442831E+02 -0.18324664261E+02  0.13958514748E+03  0.22543637869E+03  0.17318623787E+03 0.  0.
         24    2    3    3    0    0  0.52385646247E+02 -0.27606097956E+02  0.17405351718E+02  0.10109079042E+03  0.80062782005E+02 0.  0.
         -6    2    1    2    0  502 -0.31753442831E+02  0.18324664261E+02  0.63150963628E+03  0.65565912679E+03  0.17245403843E+03 0.  0.
        -24    2    5    5    0    0  0.25764776265E+02  0.70139518020E+00  0.53211362379E+03  0.53938108741E+03  0.84396286581E+02 0.  0.
          5    1    3    3  501    0 -0.20632203417E+02  0.92814336950E+01  0.12217979576E+03  0.12434558827E+03  0.47000000000E+01 0. -1.
        -11    1    4    4    0    0 -0.15892737828E+01  0.23153422664E+02  0.13601349585E+02  0.26899878861E+02  0.00000000000E+00 0.  1.
         12    1    4    4    0    0  0.53974920030E+02 -0.50759520620E+02  0.38040021326E+01  0.74190911559E+02  0.00000000000E+00 0. -1.
         -5    1    5    5    0  502 -0.57518219096E+02  0.17623269081E+02  0.99396012497E+02  0.11627803938E+03  0.47000000000E+01 0.  1.
         11    1    6    6    0    0  0.27332751223E+02 -0.33848175445E+02  0.16490795946E+03  0.17055032502E+03  0.00000000000E+00 0. -1.
        -12    1    6    6    0    0 -0.15679749576E+01  0.34549570625E+02  0.36720566432E+03  0.36883076239E+03  0.00000000000E+00 0.  1.
</event>
<event>
12    1  0.8493057E-002  0.2364518E+03  0.7818608E-02  0.1122294E+00
         21   -1    0    0  503  502  0.00000000000E+00  0.00000000000E+00  0.73050441432E+03  0.73050441432E+03  0.00000000000E+00 0. -1.
         21   -1    0    0  501  503 -0.00000000000E+00 -0.00000000000E+00 -0.76762048893E+02  0.76762048893E+02  0.00000000000E+00 0.  1.
          6    2    1    2  501    0 -0.85738286424E+02 -0.13769130429E+03  0.29658495873E+03  0.37930472041E+03  0.17204500617E+03 0.  0.
         24    2    3    3    0    0 -0.39601976228E+02 -0.10161762389E+03  0.10689474874E+03  0.18072391746E+03  0.96644653390E+02 0.  0.
         -6    2    1    2    0  502  0.85738286424E+02  0.13769130429E+03  0.35715740670E+03  0.42796174280E+03  0.17111367889E+03 0.  0.
        -24    2    5    5    0    0  0.20633163699E+01  0.53515131738E+01  0.13671489884E+03  0.15753188091E+03  0.78054045207E+02 0.  0.
          5    1    3    3  501    0 -0.46136310196E+02 -0.36073680403E+02  0.18969020999E+03  0.19858080295E+03  0.47000000000E+01 0. -1.
        -13    1    4    4    0    0 -0.71361612686E+02 -0.78738028717E+02  0.83274581344E+02  0.13500671402E+03  0.00000000000E+00 0.  1.
         14    1    4    4    0    0  0.31759636458E+02 -0.22879595168E+02  0.23620167393E+02  0.45717203443E+02  0.00000000000E+00 0. -1.
         -5    1    5    5    0  502  0.83674970054E+02  0.13233979111E+03  0.22044250787E+03  0.27042986189E+03  0.47000000000E+01 0.  1.
         13    1    6    6    0    0  0.28027943216E+01  0.25587457175E+02  0.13475092650E+03  0.13718741128E+03  0.00000000000E+00 0. -1.
        -14    1    6    6    0    0 -0.73947795170E+00 -0.20235944001E+02  0.19639723311E+01  0.20344469631E+02  0.00000000000E+00 0.  1.
</event>
<event>
12    1  0.8493057E-002  0.5695791E+03  0.7818608E-02  0.9970651E-01
         21   -1    0    0  501  502  0.00000000000E+00  0.00000000000E+00  0.11090544261E+04  0.11090544261E+04  0.00000000000E+00 0.  1.
         21   -1    0    0  502  503 -0.00000000000E+00 -0.00000000000E+00 -0.55747964992E+03  0.55747964992E+03  0.00000000000E+00 0. -1.
         -6    2    1    2    0  503  0.46727769543E+03  0.27659470842E+03 -0.29872231242E+03  0.64309601794E+03  0.17171019475E+03 0.  0.
        -24    2    3    3    0    0  0.30755171130E+03  0.13644087873E+03 -0.24257798345E+03  0.42325570849E+03  0.84244573725E+02 0.  0.
          6    2    1    2  501    0 -0.46727769543E+03 -0.27659470842E+03  0.85029708862E+03  0.10234380581E+04  0.17195127933E+03 0.  0.
         24    2    5    5    0    0 -0.26192527254E+03 -0.81891734838E+02  0.45660753336E+03  0.53857475629E+03  0.79127896265E+02 0.  0.
          5    1    5    5  501    0 -0.20535242289E+03 -0.19470297358E+03  0.39368955526E+03  0.48486330180E+03  0.47000000000E+01 0. -1.
        -13    1    6    6    0    0 -0.13267895697E+03 -0.42812705666E+02  0.30623472610E+03  0.33647636003E+03  0.00000000000E+00 0.  1.
         14    1    6    6    0    0 -0.12924631557E+03 -0.39079029172E+02  0.15037280726E+03  0.20209839626E+03  0.00000000000E+00 0. -1.
         -5    1    3    3    0  503  0.15972598414E+03  0.14015382969E+03 -0.56144328963E+02  0.21984030945E+03  0.47000000000E+01 0.  1.
         11    1    4    4    0    0  0.10067271707E+03  0.83364801845E+02 -0.67614588871E+02  0.14716119997E+03  0.00000000000E+00 0. -1.
        -12    1    4    4    0    0  0.20687899422E+03  0.53076076885E+02 -0.17496339458E+03  0.27609450852E+03  0.00000000000E+00 0.  1.
</event>
<event>
12    1  0.8493057E-002  0.2795802E+03  0.7818608E-02  0.1096441E+00
         21   -1    0    0  503  502  0.00000000000E+00  0.00000000000E+00  0.12430247258E+04  0.12430247258E+04  0.00000000000E+00 0. -1.
         21   -1    0    0  501  503 -0.00000000000E+00 -0.00000000000E+00 -0.70125560128E+02  0.70125560128E+02  0.00000000000E+00 0.  1.
          6    2    1    2  501    0 -0.21258313822E+03 -0.32745827611E+02  0.81304199860E+03  0.85976880246E+03  0.17860913281E+03 0.  0.
         24    2    3    3    0    0 -0.22933725515E+03 -0.55733429880E+01  0.75290853049E+03  0.79152535339E+03  0.83752558290E+02 0.  0.
         -6    2    1    2    0  502  0.21258313822E+03  0.32745827611E+02  0.35985716704E+03  0.45338148344E+03  0.17260854258E+03 0.  0.
        -24    2    5    5    0    0  0.25220871975E+02  0.19166351400E+02  0.14079373273E+03  0.16476426420E+03  0.79504378325E+02 0.  0.
          5    1    3    3  501    0  0.16754116933E+02 -0.27172484623E+02  0.60133468109E+02  0.68243449074E+02  0.47000000000E+01 0. -1.
        -11    1    4    4    0    0 -0.38409387356E+02  0.30172912260E+02  0.12284724492E+03  0.13220110157E+03  0.00000000000E+00 0.  1.
         12    1    4    4    0    0 -0.19092786779E+03 -0.35746255248E+02  0.63006128556E+03  0.65932425182E+03  0.00000000000E+00 0. -1.
         -5    1    5    5    0  502  0.18736226624E+03  0.13579476210E+02  0.21906343431E+03  0.28861721923E+03  0.47000000000E+01 0.  1.
         13    1    6    6    0    0  0.20388890548E+02  0.36582569406E+02  0.14058327347E+03  0.14668894990E+03  0.00000000000E+00 0. -1.
        -14    1    6    6    0    0  0.48319814271E+01 -0.17416218006E+02  0.21045925989E+00  0.18075314305E+02  0.00000000000E+00 0.  1.
</event>
<event>
12    1  0.8493057E-002  0.1837828E+03  0.7818608E-02  0.1164218E+00
         21   -1    0    0  503  502  0.00000000000E+00  0.00000000000E+00  0.37874584834E+02  0.37874584834E+02  0.00000000000E+00 0.  1.
         21   -1    0    0  501  503 -0.00000000000E+00 -0.00000000000E+00 -0.10479797960E+04  0.10479797960E+04  0.00000000000E+00 0.  1.
          6    2    1    2  501    0 -0.68067540883E+02  0.29549032820E+02 -0.71515433011E+03  0.73839138084E+03  0.16813619469E+03 0.  0.
         24    2    3    3    0    0 -0.95569530112E+02  0.61834473634E+02 -0.49872210304E+03  0.51779285860E+03  0.80178994397E+02 0.  0.
         -6    2    1    2    0  502  0.68067540883E+02 -0.29549032820E+02 -0.29495088110E+03  0.34746300004E+03  0.16801243606E+03 0.  0.
        -24    2    5    5    0    0  0.24341418093E+02  0.62514053743E+01 -0.53562598725E+02  0.99503249155E+02  0.80002249382E+02 0.  0.
          5    1    3    3  501    0  0.27501989230E+02 -0.32285440814E+02 -0.21643222708E+03  0.22059852225E+03  0.47000000000E+01 0. -1.
        -13    1    4    4    0    0 -0.75818337145E+02  0.30604665438E+02 -0.44586864314E+03  0.45330333413E+03  0.00000000000E+00 0.  1.
         14    1    4    4    0    0 -0.19751192967E+02  0.31229808196E+02 -0.52853459895E+02  0.64489524471E+02  0.00000000000E+00 0. -1.
         -5    1    5    5    0  502  0.43726122789E+02 -0.35800438195E+02 -0.24138828238E+03  0.24795975088E+03  0.47000000000E+01 0.  1.
         11    1    6    6    0    0  0.12766559356E+01  0.41506305061E+02 -0.30034117824E+02  0.51248916512E+02  0.00000000000E+00 0. -1.
        -12    1    6    6    0    0  0.23064762158E+02 -0.35254899686E+02 -0.23528480902E+02  0.48254332643E+02  0.00000000000E+00 0.  1.
</event>
<event>
12    1  0.8493057E-002  0.3054247E+03  0.7818608E-02  0.1082615E+00
         21   -1    0    0  503  502  0.00000000000E+00  0.00000000000E+00  0.74770751967E+03  0.74770751967E+03  0.00000000000E+00 0.  1.
         21   -1    0    0  501  503 -0.00000000000E+00 -0.00000000000E+00 -0.17497938384E+03  0.17497938384E+03  0.00000000000E+00 0. -1.
          6    2    1    2  501    0 -0.24520072379E+03 -0.59237114683E+02  0.38909144115E+02  0.30789306336E+03  0.17219694036E+03 0.  0.
         24    2    3    3    0    0 -0.79464107136E+02 -0.58864839590E+02  0.59417605474E+02  0.14082585630E+03  0.80758010751E+02 0.  0.
         -6    2    1    2    0  502  0.24520072379E+03  0.59237114683E+02  0.53381899172E+03  0.61479384014E+03  0.17139521364E+03 0.  0.
        -24    2    5    5    0    0  0.38673409257E+02  0.49422360937E+01  0.18647017069E+03  0.20702581913E+03  0.81046325951E+02 0.  0.
          5    1    3    3  501    0 -0.16573661665E+03 -0.37227509296E+00 -0.20508461359E+02  0.16706720706E+03  0.47000000000E+01 0. -1.
        -13    1    4    4    0    0 -0.58613593284E+02 -0.76178622014E+02  0.60722869573E+02  0.11369257961E+03  0.00000000000E+00 0.  1.
         14    1    4    4    0    0 -0.20850513852E+02  0.17313782423E+02 -0.13052640989E+01  0.27133276692E+02  0.00000000000E+00 0. -1.
         -5    1    5    5    0  502  0.20652731453E+03  0.54294878590E+02  0.34734882103E+03  0.40776802101E+03  0.47000000000E+01 0.  1.
         13    1    6    6    0    0  0.23792652043E+02  0.33466905913E+02  0.16052851449E+03  0.16569709728E+03  0.00000000000E+00 0. -1.
        -14    1    6    6    0    0  0.14880757214E+02 -0.28524669820E+02  0.25941656193E+02  0.41328721849E+02  0.00000000000E+00 0.  1.
</event>
<event>
12    1  0.8493057E-002  0.1959257E+03  0.7818608E-02  0.1153570E+00
         21   -1    0    0  501  502  0.00000000000E+00  0.00000000000E+00  0.13747209106E+03  0.13747209106E+03  0.00000000000E+00 0. -1.
         21   -1    0    0  502  503 -0.00000000000E+00 -0.00000000000E+00 -0.45511350217E+03  0.45511350217E+03  0.00000000000E+00 0.  1.
         -6    2    1    2    0  503 -0.17217768420E+02  0.89296227143E+02 -0.34380118546E+03  0.39492124271E+03  0.17173603317E+03 0.  0.
        -24    2    3    3    0    0 -0.49477474175E+02  0.61825384600E+02 -0.10997357568E+03  0.15723915062E+03  0.79746877731E+02 0.  0.
          6    2    1    2  501    0  0.17217768420E+02 -0.89296227143E+02  0.26159774343E+02  0.19766435052E+03  0.17354133209E+03 0.  0.
         24    2    5    5    0    0 -0.75498990503E+01  0.16957854805E+02  0.21923523758E+02  0.88378472656E+02  0.83579565204E+02 0.  0.
          5    1    5    5  501    0  0.24767667470E+02 -0.10625408195E+03  0.42362505852E+01  0.10928587787E+03  0.47000000000E+01 0. -1.
        -11    1    6    6    0    0 -0.43374188276E+02  0.19562342467E+02  0.27461952939E+01  0.47660749469E+02  0.00000000000E+00 0.  1.
         12    1    6    6    0    0  0.35824289226E+02 -0.26044876612E+01  0.19177328464E+02  0.40717723187E+02  0.00000000000E+00 0. -1.
         -5    1    3    3    0  503  0.32259705755E+02  0.27470842543E+02 -0.23382760978E+03  0.23768209209E+03  0.47000000000E+01 0.  1.
         11    1    4    4    0    0 -0.22226726714E+02  0.48788105682E+02 -0.11474862049E+03  0.12665525074E+03  0.00000000000E+00 0. -1.
        -12    1    4    4    0    0 -0.27250747460E+02  0.13037278917E+02  0.47750448093E+01  0.30583899876E+02  0.00000000000E+00 0.  1.
</event>
<event>
12    1  0.8493057E-002  0.2356861E+03  0.7818608E-02  0.1122741E+00
         21   -1    0    0  503  502  0.00000000000E+00  0.00000000000E+00  0.79155760654E+03  0.79155760654E+03  0.00000000000E+00 0.  1.
         21   -1    0    0  501  503 -0.00000000000E+00 -0.00000000000E+00 -0.90290940899E+02  0.90290940899E+02  0.00000000000E+00 0.  1.
          6    2    1    2  501    0  0.15728654132E+03  0.32708609845E+02  0.14201128513E+03  0.27495932145E+03  0.17212354315E+03 0.  0.
         24    2    3    3    0    0  0.13511380248E+03  0.74734298636E+02  0.14617153613E+03  0.22703034739E+03  0.79597145965E+02 0.  0.
         -6    2    1    2    0  502 -0.15728654132E+03 -0.32708609845E+02  0.55925538051E+03  0.60688922599E+03  0.17245011670E+03 0.  0.
        -24    2    5    5    0    0 -0.16218386183E+03 -0.44525136865E+02  0.34327659699E+03  0.39048095676E+03  0.79689790434E+02 0.  0.
          5    1    3    3  501    0  0.22172738840E+02 -0.42025688791E+02 -0.41602510038E+01  0.47928974060E+02  0.47000000000E+01 0. -1.
        -13    1    4    4    0    0  0.10699858413E+03  0.16338850549E+02  0.10088925518E+03  0.14796721547E+03  0.00000000000E+00 0.  1.
         14    1    4    4    0    0  0.28115218351E+02  0.58395448088E+02  0.45282280956E+02  0.79063131919E+02  0.00000000000E+00 0. -1.
         -5    1    5    5    0  502  0.48973205100E+01  0.11816527020E+02  0.21597878352E+03  0.21640826923E+03  0.47000000000E+01 0.  1.
         11    1    6    6    0    0 -0.12407184353E+03 -0.74345131356E+00  0.19363768613E+03  0.22997810454E+03  0.00000000000E+00 0. -1.
        -12    1    6    6    0    0 -0.38112018307E+02 -0.43781685551E+02  0.14963891085E+03  0.16050285222E+03  0.00000000000E+00 0.  1.
</event>
<event>
12    1  0.8493057E-002  0.2097286E+03  0.7818608E-02  0.1142118E+00
         21   -1    0    0  503  502  0.00000000000E+00  0.00000000000E+00  0.51860050638E+03  0.51860050638E+03  0.00000000000E+00 0.  1.
         21   -1    0    0  501  503 -0.00000000000E+00 -0.00000000000E+00 -0.84556073259E+02  0.84556073259E+02  0.00000000000E+00 0.  1.
          6    2    1    2  501    0  0.12843735959E+02  0.12014314497E+03  0.23744806719E+03  0.31569145268E+03  0.16935221241E+03 0.  0.
         24    2    3    3    0    0 -0.36103063002E+01  0.79199828268E+01  0.15782453302E+03  0.17703082085E+03  0.79721815503E+02 0.  0.
         -6    2    1    2    0  502 -0.12843735959E+02 -0.12014314497E+03  0.19659636593E+03  0.28746512696E+03  0.17142558527E+03 0.  0.
        -24    2    5    5    0    0  0.41786765089E+02 -0.25702456692E+02  0.76223973326E+02  0.12493778111E+03  0.85980259494E+02 0.  0.
          5    1    3    3  501    0  0.16454042259E+02  0.11222316214E+03  0.79623534172E+02  0.13866063184E+03  0.47000000000E+01 0. -1.
        -13    1    4    4    0    0 -0.10375101462E+02  0.34156799091E+02  0.30799007844E+02  0.47147731002E+02  0.00000000000E+00 0.  1.
         14    1    4    4    0    0  0.67647951620E+01 -0.26236816264E+02  0.12702552518E+03  0.12988308984E+03  0.00000000000E+00 0. -1.
         -5    1    5    5    0  502 -0.54630501048E+02 -0.94440688275E+02  0.12037239260E+03  0.16252734585E+03  0.47000000000E+01 0.  1.
         13    1    6    6    0    0  0.53175551650E+02  0.11284179413E+02  0.64810647749E+02  0.84589550537E+02  0.00000000000E+00 0. -1.
        -14    1    6    6    0    0 -0.11388786561E+02 -0.36986636105E+02  0.11413325576E+02  0.40348230574E+02  0.00000000000E+00 0.  1.
</event>
<event>
12    1  0.8493057E-002  0.1913444E+03  0.7818608E-02  0.1157716E+00
         21   -1    0    0  503  502  0.00000000000E+00  0.00000000000E+00  0.22589942374E+03  0.22589942374E+03  0.00000000000E+00 0. -1.
         21   -1    0    0  501  503 -0.00000000000E+00 -0.00000000000E+00 -0.25601591018E+03  0.25601591018E+03  0.00000000000E+00 0. -1.
          6    2    1    2  501    0 -0.58681605619E+02  0.55135993763E+02 -0.16240965996E+03  0.25097720938E+03  0.17357751391E+03 0.  0.
         24    2    3    3    0    0 -0.26711014529E+01 -0.33166356794E+02 -0.79540920481E+02  0.11747140549E+03  0.79784905027E+02 0.  0.
         -6    2    1    2    0  502  0.58681605619E+02 -0.55135993763E+02  0.13229317352E+03  0.23093812455E+03  0.17131090148E+03 0.  0.
        -24    2    5    5    0    0  0.45399402847E+02  0.29442191329E+02  0.10110172325E+03  0.13969732845E+03  0.79786193800E+02 0.  0.
          5    1    3    3  501    0 -0.56010504166E+02  0.88302350557E+02 -0.82868739474E+02  0.13350580389E+03  0.47000000000E+01 0. -1.
        -11    1    4    4    0    0  0.14322757459E+02 -0.69248159086E+01  0.12521392920E+02  0.20245486836E+02  0.00000000000E+00 0.  1.
         12    1    4    4    0    0 -0.16993858912E+02 -0.26241540885E+02 -0.92062313401E+02  0.97225918651E+02  0.00000000000E+00 0. -1.
         -5    1    5    5    0  502  0.13282202772E+02 -0.84578185093E+02  0.31191450264E+02  0.91240796104E+02  0.47000000000E+01 0.  1.
         11    1    6    6    0    0  0.66514076546E+02  0.10125989683E+02  0.77269024596E+02  0.10245564996E+03  0.00000000000E+00 0. -1.
        -12    1    6    6    0    0 -0.21114673699E+02  0.19316201646E+02  0.23832698656E+02  0.37241678489E+02  0.00000000000E+00 0.  1.
</event>
<event>
12    1  0.8493057E-002  0.1760991E+03  0.7818608E-02  0.1172211E+00
         21   -1    0    0  503  502  0.00000000000E+00  0.00000000000E+00  0.61210618321E+02  0.61210618321E+02  0.00000000000E+00 0. -1.
         21   -1    0    0  501  503 -0.00000000000E+00 -0.00000000000E+00 -0.52456660072E+03  0.52456660072E+03  0.00000000000E+00 0. -1.
          6    2    1    2  501    0 -0.10440601841E+02 -0.23980475833E+02 -0.29649516361E+03  0.34484819220E+03  0.17414598540E+03 0.  0.
         24    2    3    3    0    0 -0.50925172485E+02  0.34963132424E+02 -0.20610161814E+03  0.22949468130E+03  0.79838198390E+02 0.  0.
         -6    2    1    2    0  502  0.10440601841E+02  0.23980475833E+02 -0.16686081879E+03  0.24092902685E+03  0.17181441657E+03 0.  0.
        -24    2    5    5    0    0  0.40393096390E+02  0.68371049443E+02 -0.14369583259E+03  0.18239372518E+03  0.79452980080E+02 0.  0.
          5    1    3    3  501    0  0.40484570644E+02 -0.58943608256E+02 -0.90393545466E+02  0.11535351090E+03  0.47000000000E+01 0. -1.
        -11    1    4    4    0    0  0.13618431000E+02  0.24593797990E+02 -0.27587562268E+02  0.39387690391E+02  0.00000000000E+00 0.  1.
         12    1    4    4    0    0 -0.64543603484E+02  0.10369334434E+02 -0.17851405588E+03  0.19010699091E+03  0.00000000000E+00 0. -1.
         -5    1    5    5    0  502 -0.29952494549E+02 -0.44390573611E+02 -0.23164986200E+02  0.58535301663E+02  0.47000000000E+01 0.  1.
         11    1    6    6    0    0  0.81587951567E+01  0.70797110251E+02 -0.61728608336E+02  0.94282648698E+02  0.00000000000E+00 0. -1.
        -12    1    6    6    0    0  0.32234301233E+02 -0.24260608079E+01 -0.81967224256E+02  0.88111076484E+02  0.00000000000E+00 0.  1.
</event>
<event>
12    1  0.8493057E-002  0.2173321E+03  0.7818608E-02  0.1137108E+00
         21   -1    0    0  503  502  0.00000000000E+00  0.00000000000E+00  0.41860289050E+02  0.41860289050E+02  0.00000000000E+00 0. -1.
         21   -1    0    0  501  503 -0.00000000000E+00 -0.00000000000E+00 -0.11399030586E+04  0.11399030586E+04  0.00000000000E+00 0. -1.
          6    2    1    2  501    0 -0.45481074982E+02  0.11526372427E+03 -0.67323970565E+03  0.70744960378E+03  0.17854687427E+03 0.  0.
         24    2    3    3    0    0  0.15731159761E+02  0.61901797639E+01 -0.17427786701E+03  0.19302858728E+03  0.81249448411E+02 0.  0.
         -6    2    1    2    0  502  0.45481074982E+02 -0.11526372427E+03 -0.42480306390E+03  0.47431374387E+03  0.17076776690E+03 0.  0.
        -24    2    5    5    0    0  0.79171787171E+02 -0.28131614083E+02 -0.26270567285E+03  0.28716481147E+03  0.79936217101E+02 0.  0.
          5    1    3    3  501    0 -0.61212234743E+02  0.10907354450E+03 -0.49896183864E+03  0.51442101649E+03  0.47000000000E+01 0. -1.
        -11    1    4    4    0    0 -0.81812497457E+01 -0.30791280473E+02 -0.11405662977E+03  0.11842276215E+03  0.00000000000E+00 0.  1.
         12    1    4    4    0    0  0.23912409507E+02  0.36981460237E+02 -0.60221237242E+02  0.74605825138E+02  0.00000000000E+00 0. -1.
         -5    1    5    5    0  502 -0.33690712188E+02 -0.87132110185E+02 -0.16209739105E+03  0.18714893240E+03  0.47000000000E+01 0.  1.
         11    1    6    6    0    0  0.45685213095E+02 -0.46938573428E+02 -0.22084977791E+03  0.23035840070E+03  0.00000000000E+00 0. -1.
        -12    1    6    6    0    0  0.33486574076E+02  0.18806959345E+02 -0.41855894939E+02  0.56806410768E+02  0.00000000000E+00 0.  1.
</event>
<event>
12    1  0.8493057E-002  0.1738152E+03  0.7818608E-02  0.1174225E+00
         21   -1    0    0  501  502  0.00000000000E+00  0.00000000000E+00  0.10032001517E+04  0.10032001517E+04  0.00000000000E+00 0. -1.
         21   -1    0    0  502  503 -0.00000000000E+00 -0.00000000000E+00 -0.45562715629E+02  0.45562715629E+02  0.00000000000E+00 0. -1.
         -6    2    1    2    0  503 -0.16322711665E+02  0.19589999964E+02  0.17255363817E+03  0.24492136305E+03  0.17193463007E+03 0.  0.
        -24    2    3    3    0    0 -0.72878208914E+02  0.75994913952E+01  0.74803913942E+02  0.13125784581E+03  0.79145504867E+02 0.  0.
          6    2    1    2  501    0  0.16322711665E+02 -0.19589999964E+02  0.78508379790E+03  0.80384150428E+03  0.17074658200E+03 0.  0.
         24    2    5    5    0    0 -0.17728718268E+02 -0.67170990213E+02  0.39393464523E+03  0.40831249126E+03  0.81904434696E+02 0.  0.
          5    1    5    5  501    0  0.34051429932E+02  0.47580990249E+02  0.39114915266E+03  0.39552901302E+03  0.47000000000E+01 0. -1.
        -11    1    6    6    0    0  0.92709500297E+01 -0.10595749930E+02  0.59308734410E+01  0.15277293307E+02  0.00000000000E+00 0.  1.
         12    1    6    6    0    0 -0.26999668297E+02 -0.56575240283E+02  0.38800377179E+03  0.39303519795E+03  0.00000000000E+00 0. -1.
         -5    1    3    3    0  503  0.56555497249E+02  0.11990508569E+02  0.97749724229E+02  0.11366351724E+03  0.47000000000E+01 0.  1.
         13    1    4    4    0    0 -0.51422698233E+02 -0.31872094296E+02  0.28969181057E+02  0.67077102945E+02  0.00000000000E+00 0. -1.
        -14    1    4    4    0    0 -0.21455510680E+02  0.39471585691E+02  0.45834732885E+02  0.64180742861E+02  0.00000000000E+00 0.  1.
</event>
<event>
12    1  0.8493057E-002  0.1916156E+03  0.7818608E-02  0.1157179E+00
         21   -1    0    0  503  502  0.00000000000E+00  0.00000000000E+00  0.81015516881E+02  0.81015516881E+02  0.00000000000E+00 0. -1.
         21   -1    0    0  501  503 -0.00000000000E+00 -0.00000000000E+00 -0.52045646309E+03  0.52045646309E+03  0.00000000000E+00 0.  1.
          6    2    1    2  501    0 -0.77838986026E+02 -0.33019182609E+02 -0.32960998306E+03  0.38126013006E+03  0.17195165506E+03 0.  0.
         24    2    3    3    0    0 -0.37999395145E+02 -0.83375272702E+02 -0.25285902459E+03  0.28108164716E+03  0.81693426439E+02 0.  0.
         -6    2    1    2    0  502  0.77838986026E+02  0.33019182609E+02 -0.10983096315E+03  0.22021184991E+03  0.17111763266E+03 0.  0.
        -24    2    5    5    0    0 -0.21978613652E+01  0.36432241538E+02 -0.10940312288E+03  0.13996336731E+03  0.79300454448E+02 0.  0.
          5    1    3    3  501    0 -0.39839590881E+02  0.50356090093E+02 -0.76750958473E+02  0.10017848291E+03  0.47000000000E+01 0. -1.
        -13    1    4    4    0    0 -0.46799703159E+02 -0.61838662867E+02 -0.24426418995E+03  0.25627958743E+03  0.00000000000E+00 0.  1.
         14    1    4    4    0    0  0.88003080143E+01 -0.21536609835E+02 -0.85948346395E+01  0.24802059729E+02  0.00000000000E+00 0. -1.
         -5    1    5    5    0  502  0.80036847391E+02 -0.34130589295E+01 -0.42784026891E+00  0.80248482596E+02  0.47000000000E+01 0.  1.
         11    1    6    6    0    0 -0.25541076430E+02  0.13869764026E+01 -0.32757063560E+01  0.25787604403E+02  0.00000000000E+00 0. -1.
        -12    1    6    6    0    0  0.23343215064E+02  0.35045265136E+02 -0.10612741653E+03  0.11417576291E+03  0.00000000000E+00 0.  1.
</event>
<event>
12    1  0.8493057E-002  0.1928164E+03  0.7818608E-02  0.1156064E+00
         21   -1    0    0  503  502  0.00000000000E+00  0.00000000000E+00  0.79102143960E+03  0.79102143960E+03  0.00000000000E+00 0.  1.
         21   -1    0    0  501  503 -0.00000000000E+00 -0.00000000000E+00 -0.69221780875E+02  0.69221780875E+02  0.00000000000E+00 0.  1.
          6    2    1    2  501    0 -0.22371826764E+02 -0.82024993738E+02  0.11682530376E+03  0.22544696016E+03  0.17305947537E+03 0.  0.
         24    2    3    3    0    0  0.42397332740E+02 -0.10469225806E+02  0.28576357201E+02  0.94583525560E+02  0.78881535254E+02 0.  0.
         -6    2    1    2    0  502  0.22371826764E+02  0.82024993738E+02  0.60497435497E+03  0.63479626031E+03  0.17246368809E+03 0.  0.
        -24    2    5    5    0    0  0.75497529879E+02  0.65377934874E+02  0.32375666283E+03  0.34808221240E+03  0.79804125681E+02 0.  0.
          5    1    3    3  501    0 -0.64769159504E+02 -0.71555767932E+02  0.88248946555E+02  0.13086343460E+03  0.47000000000E+01 0. -1.
        -13    1    4    4    0    0 -0.94795848173E+01 -0.12693855630E+02  0.38578029490E+02  0.41704446506E+02  0.00000000000E+00 0.  1.
         14    1    4    4    0    0  0.51876917557E+02  0.22246298231E+01 -0.10001672289E+02  0.52879079054E+02  0.00000000000E+00 0. -1.
         -5    1    5    5    0  502 -0.53125703115E+02  0.16647058864E+02  0.28121769214E+03  0.28671404791E+03  0.47000000000E+01 0.  1.
         13    1    6    6    0    0 -0.15764797410E+02  0.14447390012E+02  0.81185473454E+02  0.83954374606E+02  0.00000000000E+00 0. -1.
        -14    1    6    6    0    0  0.91262327289E+02  0.50930544862E+02  0.24257118938E+03  0.26412783779E+03  0.00000000000E+00 0.  1.
</event>
<event>
12    1  0.8493057E-002  0.1749206E+03  0.7818608E-02  0.1172972E+00
         21   -1    0    0  501  502  0.00000000000E+00  0.00000000000E+00  0.27214928020E+03  0.27214928020E+03  0.00000000000E+00 0. -1.
         21   -1    0    0  502  503 -0.00000000000E+00 -0.00000000000E+00 -0.11218509028E+03  0.11218509028E+03  0.00000000000E+00 0. -1.
         -6    2    1    2    0  503 -0.19477187368E+02  0.15994249941E+02  0.72454171936E+02  0.18874492325E+03  0.17245249249E+03 0.  0.
        -24    2    3    3    0    0 -0.51670353397E+02  0.66820426938E+02  0.44424814577E+02  0.12220594910E+03  0.76327812557E+02 0.  0.
          6    2    1    2  501    0  0.19477187368E+02 -0.15994249941E+02  0.87510017982E+02  0.19558944723E+03  0.17309549896E+03 0.  0.
         24    2    5    5    0    0 -0.29630369046E+02 -0.66718367995E+01  0.11102250512E+03  0.14015131472E+03  0.79962004717E+02 0.  0.
          5    1    5    5  501    0  0.49107556413E+02 -0.93224131415E+01 -0.23512487143E+02  0.55438132502E+02  0.47000000000E+01 0. -1.
        -11    1    6    6    0    0  0.68003677148E+01  0.21840692389E+02  0.82931848972E+02  0.86028788316E+02  0.00000000000E+00 0.  1.
         12    1    6    6    0    0 -0.36430736760E+02 -0.28512529189E+02  0.28090656153E+02  0.54122526408E+02  0.00000000000E+00 0. -1.
         -5    1    3    3    0  503  0.32193166029E+02 -0.50826176997E+02  0.28029357359E+02  0.66538974151E+02  0.47000000000E+01 0.  1.
         11    1    4    4    0    0 -0.66390926708E+02  0.38782811321E+02  0.47519772745E+02  0.90387999230E+02  0.00000000000E+00 0. -1.
        -12    1    4    4    0    0  0.14720573310E+02  0.28037615617E+02 -0.30949581681E+01  0.31817949873E+02  0.00000000000E+00 0.  1.
</event>
<event>
12    1  0.8493057E-002  0.1922932E+03  0.7818608E-02  0.1156582E+00
         21   -1    0    0  503  502  0.00000000000E+00  0.00000000000E+00  0.11597407542E+03  0.11597407542E+03  0.00000000000E+00 0. -1.
         21   -1    0    0  501  503 -0.00000000000E+00 -0.00000000000E+00 -0.33314565639E+03  0.33314565639E+03  0.00000000000E+00 0.  1.
          6    2    1    2  501    0  0.83585593983E+02  0.32169671765E+02 -0.15738188696E+03  0.24848690785E+03  0.17016240985E+03 0.  0.
         24    2    3    3    0    0  0.54480121315E+02  0.22275598606E+02 -0.18327845937E+03  0.20801786183E+03  0.78842572631E+02 0.  0.
         -6    2    1    2    0  502 -0.83585593983E+02 -0.32169671765E+02 -0.59789694013E+02  0.20063282396E+03  0.16928462197E+03 0.  0.
        -24    2    5    5    0    0 -0.78201880722E+02  0.20604735439E+02  0.68016467294E+01  0.11536489865E+03  0.81992122622E+02 0.  0.
          5    1    3    3  501    0  0.29105472667E+02  0.98940731586E+01  0.25896572409E+02  0.40469046016E+02  0.47000000000E+01 0. -1.
        -11    1    4    4    0    0  0.15021979863E+02  0.47985450952E+02 -0.10945090618E+03  0.12044818075E+03  0.00000000000E+00 0.  1.
         12    1    4    4    0    0  0.39458141452E+02 -0.25709852345E+02 -0.73827553189E+02  0.87569681079E+02  0.00000000000E+00 0. -1.
         -5    1    5    5    0  502 -0.53837132602E+01 -0.52774407205E+02 -0.66591340742E+02  0.85267925307E+02  0.47000000000E+01 0.  1.
         13    1    6    6    0    0 -0.38761711245E+02  0.51284294920E+02  0.11007843938E+02  0.65220562649E+02  0.00000000000E+00 0. -1.
        -14    1    6    6    0    0 -0.39440169478E+02 -0.30679559481E+02 -0.42061972089E+01  0.50144336004E+02  0.00000000000E+00 0.  1.
</event>
<event>
12    1  0.8493057E-002  0.1964220E+03  0.7818608E-02  0.1152904E+00
         21   -1    0    0  503  502  0.00000000000E+00  0.00000000000E+00  0.61993529512E+02  0.61993529512E+02  0.00000000000E+00 0.  1.
         21   -1    0    0  501  503 -0.00000000000E+00 -0.00000000000E+00 -0.68520659712E+03  0.68520659712E+03  0.00000000000E+00 0. -1.
          6    2    1    2  501    0 -0.65773523121E+02  0.68240299447E+02 -0.42658600522E+03  0.46963519594E+03  0.17204273483E+03 0.  0.
         24    2    3    3    0    0 -0.81772475613E+02 -0.87602278190E+01 -0.29377705069E+03  0.31521577979E+03  0.79325613522E+02 0.  0.
         -6    2    1    2    0  502  0.65773523121E+02 -0.68240299447E+02 -0.19662706239E+03  0.27756493069E+03  0.17145610013E+03 0.  0.
        -24    2    5    5    0    0  0.90943737213E+02 -0.11836277496E+02 -0.17363428722E+03  0.21149140287E+03  0.78542262408E+02 0.  0.
          5    1    3    3  501    0  0.15998952492E+02  0.77000527266E+02 -0.13280895453E+03  0.15441941614E+03  0.47000000000E+01 0. -1.
        -11    1    4    4    0    0 -0.90898484338E+02 -0.25928218789E+02 -0.25170448658E+03  0.26886791469E+03  0.00000000000E+00 0.  1.
         12    1    4    4    0    0  0.91260087247E+01  0.17167990970E+02 -0.42072564109E+02  0.46347865106E+02  0.00000000000E+00 0. -1.
         -5    1    5    5    0  502 -0.25170214091E+02 -0.56404021951E+02 -0.22992775173E+02  0.66073527829E+02  0.47000000000E+01 0.  1.
         13    1    6    6    0    0  0.35646216783E+02 -0.38499125210E+02 -0.11587959346E+03  0.12720422789E+03  0.00000000000E+00 0. -1.
        -14    1    6    6    0    0  0.55297520430E+02  0.26662847713E+02 -0.57754693763E+02  0.84287174977E+02  0.00000000000E+00 0.  1.
</event>
<event>
12    1  0.8493057E-002  0.2414384E+03  0.7818608E-02  0.1118910E+00
         21   -1    0    0  503  502  0.00000000000E+00  0.00000000000E+00  0.70111315100E+03  0.70111315100E+03  0.00000000000E+00 0.  1.
         21   -1    0    0  501  503 -0.00000000000E+00 -0.00000000000E+00 -0.14413225081E+03  0.14413225081E+03  0.00000000000E+00 0.  1.
          6    2    1    2  501    0  0.14509912222E+03 -0.86449604856E+02  0.33814936408E+01  0.24146204388E+03  0.17252592468E+03 0.  0.
         24    2    3    3    0    0 -0.18996422425E+01 -0.26169912316E+02  0.59305763081E+01  0.82493915286E+02  0.77984622668E+02 0.  0.
         -6    2    1    2    0  502 -0.14509912222E+03  0.86449604856E+02  0.55359940655E+03  0.60378335793E+03  0.17191495263E+03 0.  0.
        -24    2    5    5    0    0 -0.95562832476E+02  0.14001089446E+02  0.45268223690E+03  0.46995885900E+03  0.81313197483E+02 0.  0.
          5    1    3    3  501    0  0.14699876446E+03 -0.60279692540E+02 -0.25490826673E+01  0.15896812859E+03  0.47000000000E+01 0. -1.
        -13    1    4    4    0    0 -0.27101213841E+02 -0.26127399219E+02 -0.23008746148E+02  0.44119374213E+02  0.00000000000E+00 0.  1.
         14    1    4    4    0    0  0.25201571599E+02 -0.42513096755E-01  0.28939322456E+02  0.38374541074E+02  0.00000000000E+00 0. -1.
         -5    1    5    5    0  502 -0.49536289740E+02  0.72448515410E+02  0.10091716965E+03  0.13382449894E+03  0.47000000000E+01 0.  1.
         11    1    6    6    0    0  0.14547842325E+02 -0.10719954477E+01  0.40126889338E+02  0.42696090436E+02  0.00000000000E+00 0. -1.
        -12    1    6    6    0    0 -0.11011067480E+03  0.15073084894E+02  0.41255534756E+03  0.42726276856E+03  0.00000000000E+00 0.  1.
</event>
<event>
12    1  0.8493057E-002  0.2644901E+03  0.7818608E-02  0.1104487E+00
         21   -1    0    0  503  502  0.00000000000E+00  0.00000000000E+00  0.72196035625E+03  0.72196035625E+03  0.00000000000E+00 0. -1.
         21   -1    0    0  501  503 -0.00000000000E+00 -0.00000000000E+00 -0.11772215895E+03  0.11772215895E+03  0.00000000000E+00 0.  1.
          6    2    1    2  501    0  0.11643322385E+03  0.16383201851E+03  0.12537070595E+03  0.29262757135E+03  0.17180062776E+03 0.  0.
         24    2    3    3    0    0  0.61141719538E+02  0.15809228950E+03  0.41645025689E+02  0.19201855349E+03  0.80033335896E+02 0.  0.
         -6    2    1    2    0  502 -0.11643322385E+03 -0.16383201851E+03  0.47886749134E+03  0.54705494385E+03  0.17192269026E+03 0.  0.
        -24    2    5    5    0    0 -0.16357428231E+02 -0.80645217944E+02  0.32920950001E+03  0.34867446844E+03  0.80148446061E+02 0.  0.
          5    1    3    3  501    0  0.55291504311E+02  0.57397290158E+01  0.83725680266E+02  0.10060901786E+03  0.47000000000E+01 0. -1.
        -11    1    4    4    0    0  0.72704261454E+02  0.78530073066E+02  0.22022264333E+02  0.10926052414E+03  0.00000000000E+00 0.  1.
         12    1    4    4    0    0 -0.11562541916E+02  0.79562216433E+02  0.19622761356E+02  0.82758029353E+02  0.00000000000E+00 0. -1.
         -5    1    5    5    0  502 -0.10007579562E+03 -0.83186800570E+02  0.14965799133E+03  0.19838047541E+03  0.47000000000E+01 0.  1.
         13    1    6    6    0    0 -0.40466649788E+02 -0.80147703206E+02  0.27647039263E+03  0.29068381805E+03  0.00000000000E+00 0. -1.
        -14    1    6    6    0    0  0.24109221557E+02 -0.49751473783E+00  0.52739107382E+02  0.57990650388E+02  0.00000000000E+00 0.  1.
</event>
<event>
12    1  0.8493057E-002  0.1819583E+03  0.7818608E-02  0.1167378E+00
         21   -1    0    0  501  502  0.00000000000E+00  0.00000000000E+00  0.64807390638E+02  0.64807390638E+02  0.00000000000E+00 0.  1.
         21   -1    0    0  502  503 -0.00000000000E+00 -0.00000000000E+00 -0.50194129215E+03  0.50194129215E+03  0.00000000000E+00 0.  1.
         -6    2    1    2    0  503 -0.32628104392E+02 -0.14332639927E+02 -0.25019965571E+03  0.30587852621E+03  0.17231305034E+03 0.  0.
        -24    2    3    3    0    0 -0.19580855892E+02  0.14669114701E+02 -0.40851811460E+02  0.94076868151E+02  0.81135650476E+02 0.  0.
          6    2    1    2  501    0  0.32628104392E+02  0.14332639927E+02 -0.18693424580E+03  0.26087015657E+03  0.17843432566E+03 0.  0.
         24    2    5    5    0    0  0.83898875347E+02 -0.20704259638E+02 -0.10378632833E+03  0.15698588219E+03  0.80032978241E+02 0.  0.
          5    1    5    5  501    0 -0.51270770955E+02  0.35036899565E+02 -0.83147917470E+02  0.10388427439E+03  0.47000000000E+01 0. -1.
        -13    1    6    6    0    0  0.52346604712E+02  0.19249206676E+02 -0.87070317542E+02  0.10340183354E+03  0.00000000000E+00 0.  1.
         14    1    6    6    0    0  0.31552270635E+02 -0.39953466314E+02 -0.16716010788E+02  0.53584048647E+02  0.00000000000E+00 0. -1.
         -5    1    3    3    0  503 -0.13047248501E+02 -0.29001754628E+02 -0.20934784425E+03  0.21180165806E+03  0.47000000000E+01 0.  1.
         11    1    4    4    0    0  0.19455427883E+02 -0.21402769400E+02 -0.35459754863E+01  0.29140455629E+02  0.00000000000E+00 0. -1.
        -12    1    4    4    0    0 -0.39036283775E+02  0.36071884101E+02 -0.37305835973E+02  0.64936412522E+02  0.00000000000E+00 0.  1.
</event>
<event>
12    1  0.8493057E-002  0.1859627E+03  0.7818608E-02  0.1163600E+00
         21   -1    0    0  503  502  0.00000000000E+00  0.00000000000E+00  0.22033246330E+03  0.22033246330E+03  0.00000000000E+00 0. -1.
         21   -1    0    0  501  503 -0.00000000000E+00 -0.00000000000E+00 -0.40457171824E+03  0.40457171824E+03  0.00000000000E+00 0. -1.
          6    2    1    2  501    0  0.68553745764E+01  0.53324795559E+02 -0.33848817052E+03  0.38329529152E+03  0.17161150583E+03 0.  0.
         24    2    3    3    0    0  0.11720488883E+02  0.16859092759E+02 -0.42082064258E+02  0.84577888863E+02  0.70433800722E+02 0.  0.
         -6    2    1    2    0  502 -0.68553745764E+01 -0.53324795559E+02  0.15424891558E+03  0.24160889003E+03  0.17802134086E+03 0.  0.
        -24    2    5    5    0    0  0.49642317191E+02 -0.71253887616E+02  0.64104871220E+02  0.13362055616E+03  0.78762569530E+02 0.  0.
          5    1    3    3  501    0 -0.48651143062E+01  0.36465702800E+02 -0.29640610626E+03  0.29871740266E+03  0.47000000000E+01 0. -1.
        -13    1    4    4    0    0 -0.31302504584E+01 -0.22944887002E+02  0.21386993834E+01  0.23255974340E+02  0.00000000000E+00 0.  1.
         14    1    4    4    0    0  0.14850739341E+02  0.39803979761E+02 -0.44220763641E+02  0.61321914523E+02  0.00000000000E+00 0. -1.
         -5    1    5    5    0  502 -0.56497691767E+02  0.17929092057E+02  0.90144044359E+02  0.10798833386E+03  0.47000000000E+01 0.  1.
         11    1    6    6    0    0  0.63123897434E+02 -0.23114198378E+02  0.35408116776E+02  0.75977808126E+02  0.00000000000E+00 0. -1.
        -12    1    6    6    0    0 -0.13481580244E+02 -0.48139689238E+02  0.28696754444E+02  0.57642748038E+02  0.00000000000E+00 0.  1.
</event>
<event>
12    1  0.8493057E-002  0.2336284E+03  0.7818608E-02  0.1124187E+00
         21   -1    0    0  501  502  0.00000000000E+00  0.00000000000E+00  0.29368550812E+03  0.29368550812E+03  0.00000000000E+00 0. -1.
         21   -1    0    0  502  503 -0.00000000000E+00 -0.00000000000E+00 -0.19414998711E+03  0.19414998711E+03  0.00000000000E+00 0. -1.
         -6    2    1    2    0  503 -0.10444799574E+02 -0.15695709621E+03 -0.16585810126E+01  0.23363429330E+03  0.17273565998E+03 0.  0.
        -24    2    3    3    0    0  0.36597727419E+02 -0.31846228729E+02  0.29601455379E+02  0.96284344698E+02  0.77722924140E+02 0.  0.
          6    2    1    2  501    0  0.10444799574E+02  0.15695709621E+03  0.10119410202E+03  0.25420120193E+03  0.17214348925E+03 0.  0.
         24    2    5    5    0    0 -0.15281965306E+02  0.10825145307E+03  0.13368375915E+03  0.19007808655E+03  0.79412945876E+02 0.  0.
          5    1    5    5  501    0  0.25726764881E+02  0.48705643141E+02 -0.32489657131E+02  0.64123115376E+02  0.47000000000E+01 0. -1.
        -11    1    6    6    0    0 -0.63712923321E+00 -0.22314590568E+01  0.51627127864E+02  0.51679257683E+02  0.00000000000E+00 0.  1.
         12    1    6    6    0    0 -0.14644836073E+02  0.11048291212E+03  0.82056631289E+02  0.13839882887E+03  0.00000000000E+00 0. -1.
         -5    1    3    3    0  503 -0.47042526993E+02 -0.12511086748E+03 -0.31260036391E+02  0.13734994861E+03  0.47000000000E+01 0.  1.
         11    1    4    4    0    0 -0.51667238341E+00 -0.30122176004E+02 -0.18614731345E+02  0.35413566054E+02  0.00000000000E+00 0. -1.
        -12    1    4    4    0    0  0.37114399803E+02 -0.17240527248E+01  0.48216186724E+02  0.60870778644E+02  0.00000000000E+00 0.  1.
</event>
<event>
12    1  0.8493057E-002  0.1825062E+03  0.7818608E-02  0.1166151E+00
         21   -1    0    0  501  502  0.00000000000E+00  0.00000000000E+00  0.25565598068E+03  0.25565598068E+03  0.00000000000E+00 0. -1.
         21   -1    0    0  502  503 -0.00000000000E+00 -0.00000000000E+00 -0.19620785486E+03  0.19620785486E+03  0.00000000000E+00 0. -1.
         -6    2    1    2    0  503  0.22525328284E+02 -0.49857120128E+02  0.16270408637E+03  0.24217281681E+03  0.17082719526E+03 0.  0.
        -24    2    3    3    0    0  0.50697551403E+02 -0.52343772427E+02  0.36966550824E+02  0.11320818817E+03  0.78354679242E+02 0.  0.
          6    2    1    2  501    0 -0.22525328284E+02  0.49857120128E+02 -0.10325596055E+03  0.20969101872E+03  0.17411320198E+03 0.  0.
         24    2    5    5    0    0  0.31533231960E+02 -0.98093063898E+01 -0.98715893920E+01  0.86300819900E+02  0.79118999163E+02 0.  0.
          5    1    5    5  501    0 -0.54058560243E+02  0.59666426518E+02 -0.93384371157E+02  0.12339019882E+03  0.47000000000E+01 0. -1.
        -13    1    6    6    0    0  0.30190177289E+02  0.24868507239E+02  0.16762799195E+02  0.42554446229E+02  0.00000000000E+00 0.  1.
         14    1    6    6    0    0  0.13430546711E+01 -0.34677813629E+02 -0.26634388587E+02  0.43746373671E+02  0.00000000000E+00 0. -1.
         -5    1    3    3    0  503 -0.28172223119E+02  0.24866522987E+01  0.12573753555E+03  0.12896462864E+03  0.47000000000E+01 0.  1.
         13    1    4    4    0    0 -0.11422852557E+02  0.70527421728E+01  0.22284999924E+02  0.26016224829E+02  0.00000000000E+00 0. -1.
        -14    1    4    4    0    0  0.62120403960E+02 -0.59396514599E+02  0.14681550900E+02  0.87191963343E+02  0.00000000000E+00 0.  1.
</event>
<event>
12    1  0.8493057E-002  0.1848646E+03  0.7818608E-02  0.1163863E+00
         21   -1    0    0  501  502  0.00000000000E+00  0.00000000000E+00  0.36072258796E+03  0.36072258796E+03  0.00000000000E+00 0.  1.
         21   -1    0    0  502  503 -0.00000000000E+00 -0.00000000000E+00 -0.96971096024E+02  0.96971096024E+02  0.00000000000E+00 0.  1.
         -6    2    1    2    0  503 -0.61318607261E+02 -0.15352349410E+02  0.17769582964E+03  0.25641902275E+03  0.17372173475E+03 0.  0.
        -24    2    3    3    0    0 -0.12226138857E+02 -0.35535298613E+02  0.20688759871E+02  0.90615730106E+02  0.79818229990E+02 0.  0.
          6    2    1    2  501    0  0.61318607261E+02  0.15352349410E+02  0.86055662290E+02  0.20127466123E+03  0.17061725005E+03 0.  0.
         24    2    5    5    0    0  0.57616877774E+02  0.43167110582E+02 -0.24064503464E+01  0.10834996531E+03  0.80937135725E+02 0.  0.
          5    1    5    5  501    0  0.37017294875E+01 -0.27814761172E+02  0.88462112636E+02  0.92924695922E+02  0.47000000000E+01 0. -1.
        -11    1    6    6    0    0  0.46998212912E+02 -0.73237704138E+01  0.20628581302E+02  0.51846002706E+02  0.00000000000E+00 0.  1.
         12    1    6    6    0    0  0.10618664861E+02  0.50490880995E+02 -0.23035031648E+02  0.56503962606E+02  0.00000000000E+00 0. -1.
         -5    1    3    3    0  503 -0.49092468405E+02  0.20182949202E+02  0.15700706977E+03  0.16580329264E+03  0.47000000000E+01 0.  1.
         11    1    4    4    0    0  0.83310682122E+01  0.23710682365E+02  0.97552070130E+01  0.26958620507E+02  0.00000000000E+00 0. -1.
        -12    1    4    4    0    0 -0.20557207069E+02 -0.59245980977E+02  0.10933552858E+02  0.63657109599E+02  0.00000000000E+00 0.  1.
</event>
<event>
12    1  0.8493057E-002  0.2091484E+03  0.7818608E-02  0.1142329E+00
         21   -1    0    0  503  502  0.00000000000E+00  0.00000000000E+00  0.48481200317E+03  0.48481200317E+03  0.00000000000E+00 0.  1.
         21   -1    0    0  501  503 -0.00000000000E+00 -0.00000000000E+00 -0.90063263668E+02  0.90063263668E+02  0.00000000000E+00 0. -1.
          6    2    1    2  501    0 -0.98443762387E+02  0.65955471559E+02  0.19294598242E+03  0.28455437463E+03  0.17234193166E+03 0.  0.
         24    2    3    3    0    0 -0.97969629745E+02 -0.12150993481E+02  0.10870266370E+03  0.16957667492E+03  0.84819128654E+02 0.  0.
         -6    2    1    2    0  502  0.98443762387E+02 -0.65955471559E+02  0.20180275708E+03  0.29032089220E+03  0.17181550892E+03 0.  0.
        -24    2    5    5    0    0 -0.86830567108E+01 -0.50197400757E+02  0.58534495662E+02  0.11067580628E+03  0.78915603005E+02 0.  0.
          5    1    3    3  501    0 -0.47413264232E+00  0.78106465040E+02  0.84243318715E+02  0.11497769971E+03  0.47000000000E+01 0. -1.
        -11    1    4    4    0    0 -0.20934458911E+02 -0.15085167117E+00  0.85801442892E+02  0.88318525398E+02  0.00000000000E+00 0.  1.
         12    1    4    4    0    0 -0.77035170834E+02 -0.12000141810E+02  0.22901220810E+02  0.81258149520E+02  0.00000000000E+00 0. -1.
         -5    1    5    5    0  502  0.10712681910E+03 -0.15758070801E+02  0.14326826142E+03  0.17964508592E+03  0.47000000000E+01 0.  1.
         11    1    6    6    0    0  0.14681454399E+02  0.23045622441E+01 -0.12420969540E+02  0.19368443271E+02  0.00000000000E+00 0. -1.
        -12    1    6    6    0    0 -0.23364511110E+02 -0.52501963002E+02  0.70955465202E+02  0.91307363013E+02  0.00000000000E+00 0.  1.
</event>
<event>
12    1  0.8493057E-002  0.2171174E+03  0.7818608E-02  0.1139190E+00
         21   -1    0    0  501  502  0.00000000000E+00  0.00000000000E+00  0.36489915657E+03  0.36489915657E+03  0.00000000000E+00 0.  1.
         21   -1    0    0  502  503 -0.00000000000E+00 -0.00000000000E+00 -0.12632272869E+03  0.12632272869E+03  0.00000000000E+00 0. -1.
         -6    2    1    2    0  503 -0.11209965537E+03  0.67818894713E+02  0.59639830430E+02  0.20987108852E+03  0.15271944608E+03 0.  0.
        -24    2    3    3    0    0 -0.25978894020E+02  0.70350516370E+02  0.57865143513E+02  0.12356677717E+03  0.79349073713E+02 0.  0.
          6    2    1    2  501    0  0.11209965537E+03 -0.67818894713E+02  0.17893659745E+03  0.28135079674E+03  0.17313067234E+03 0.  0.
         24    2    5    5    0    0  0.10301936950E+03 -0.18303385660E+02  0.51336799389E+02  0.14409907292E+03  0.84741202642E+02 0.  0.
          5    1    5    5  501    0  0.90802858716E+01 -0.49515509053E+02  0.12759979806E+03  0.13725172383E+03  0.47000000000E+01 0. -1.
        -11    1    6    6    0    0  0.63935776574E+02 -0.52407507001E+02  0.34279336595E+02  0.89495269336E+02  0.00000000000E+00 0.  1.
         12    1    6    6    0    0  0.39083592926E+02  0.34104121341E+02  0.17057462794E+02  0.54603803580E+02  0.00000000000E+00 0. -1.
         -5    1    3    3    0  503 -0.86120761352E+02 -0.25316216572E+01  0.17746869168E+01  0.86304311350E+02  0.47000000000E+01 0.  1.
         11    1    4    4    0    0 -0.54358006653E+02  0.42597616463E+02  0.31431591190E+02  0.75876839288E+02  0.00000000000E+00 0. -1.
        -12    1    4    4    0    0  0.28379112633E+02  0.27752899907E+02  0.26433552324E+02  0.47689937886E+02  0.00000000000E+00 0.  1.
</event>
<event>
12    1  0.8493057E-002  0.1980704E+03  0.7818608E-02  0.1151573E+00
         21   -1    0    0  501  502  0.00000000000E+00  0.00000000000E+00  0.84238203643E+03  0.84238203643E+03  0.00000000000E+00 0. -1.
         21   -1    0    0  502  503 -0.00000000000E+00 -0.00000000000E+00 -0.69120061988E+02  0.69120061988E+02  0.00000000000E+00 0. -1.
         -6    2    1    2    0  503 -0.96224652663E+02 -0.13427891086E+02  0.12449196969E+03  0.23317001974E+03  0.17155324407E+03 0.  0.
        -24    2    3    3    0    0 -0.42288767946E+02  0.52457007269E+02  0.10005568165E+03  0.14446194985E+03  0.79486086944E+02 0.  0.
          6    2    1    2  501    0  0.96224652663E+02  0.13427891086E+02  0.64877000475E+03  0.67833207867E+03  0.17260474459E+03 0.  0.
         24    2    5    5    0    0  0.38298718416E+02 -0.17405741339E+02  0.14675136224E+03  0.17202097454E+03  0.79281156003E+02 0.  0.
          5    1    5    5  501    0  0.57925934246E+02  0.30833632425E+02  0.50201864250E+03  0.50631110413E+03  0.47000000000E+01 0. -1.
        -11    1    6    6    0    0  0.57039605571E+01 -0.43369277190E+02  0.10139292445E+03  0.11042624008E+03  0.00000000000E+00 0.  1.
         12    1    6    6    0    0  0.32594757859E+02  0.25963535852E+02  0.45358437794E+02  0.61594734458E+02  0.00000000000E+00 0. -1.
         -5    1    3    3    0  503 -0.53935884716E+02 -0.65884898355E+02  0.24436288044E+02  0.88708069897E+02  0.47000000000E+01 0.  1.
         13    1    4    4    0    0 -0.64379634729E+02  0.29473368049E+02  0.79839525904E+02  0.10671347941E+03  0.00000000000E+00 0. -1.
        -14    1    4    4    0    0  0.22090866783E+02  0.22983639220E+02  0.20216155743E+02  0.37748470433E+02  0.00000000000E+00 0.  1.
</event>
<event>
12    1  0.8493057E-002  0.2542580E+03  0.7818608E-02  0.1111287E+00
         21   -1    0    0  501  502  0.00000000000E+00  0.00000000000E+00  0.14536608039E+03  0.14536608039E+03  0.00000000000E+00 0.  1.
         21   -1    0    0  502  503 -0.00000000000E+00 -0.00000000000E+00 -0.43771405121E+03  0.43771405121E+03  0.00000000000E+00 0. -1.
         -6    2    1    2    0  503 -0.37130436923E+02  0.18124172063E+03 -0.15333619641E+03  0.29691601920E+03  0.17441302328E+03 0.  0.
        -24    2    3    3    0    0 -0.34386225730E+02  0.19207626386E+03 -0.17374935505E+03  0.27317354528E+03  0.79744866946E+02 0.  0.
          6    2    1    2  501    0  0.37130436923E+02 -0.18124172063E+03 -0.13901177441E+03  0.28616411239E+03  0.16834011749E+03 0.  0.
         24    2    5    5    0    0  0.49253796170E+02 -0.80597319034E+02 -0.13014637867E+02  0.12438141917E+03  0.79871724422E+02 0.  0.
          5    1    5    5  501    0 -0.12123359247E+02 -0.10064440159E+03 -0.12599713654E+03  0.16178269323E+03  0.47000000000E+01 0. -1.
        -13    1    6    6    0    0 -0.20065874969E+02 -0.50078678425E+01  0.17797912572E+01  0.20757787346E+02  0.00000000000E+00 0.  1.
         14    1    6    6    0    0  0.69319671139E+02 -0.75589451192E+02 -0.14794429124E+02  0.10362363182E+03  0.00000000000E+00 0. -1.
         -5    1    3    3    0  503 -0.27442111934E+01 -0.10834543232E+02  0.20413158643E+02  0.23742473922E+02  0.47000000000E+01 0.  1.
         13    1    4    4    0    0 -0.48432537674E+02  0.56723591460E+02 -0.66118544942E+02  0.99674161741E+02  0.00000000000E+00 0. -1.
        -14    1    4    4    0    0  0.14046311944E+02  0.13535267240E+03 -0.10763081011E+03  0.17349938354E+03  0.00000000000E+00 0.  1.
</event>
<event>
12    1  0.8493057E-002  0.2162365E+03  0.7818608E-02  0.1136905E+00
         21   -1    0    0  503  502  0.00000000000E+00  0.00000000000E+00  0.62869042940E+02  0.62869042940E+02  0.00000000000E+00 0.  1.
         21   -1    0    0  501  503 -0.00000000000E+00 -0.00000000000E+00 -0.92222403954E+03  0.92222403954E+03  0.00000000000E+00 0.  1.
          6    2    1    2  501    0 -0.11523769674E+03  0.62397816877E+02 -0.64759678568E+03  0.68243857672E+03  0.17078524491E+03 0.  0.
         24    2    3    3    0    0 -0.14621617355E+03  0.67605876880E+02 -0.50642235037E+03  0.53773508299E+03  0.82132201515E+02 0.  0.
         -6    2    1    2    0  502  0.11523769674E+03 -0.62397816877E+02 -0.21175821093E+03  0.30265450576E+03  0.17200289434E+03 0.  0.
        -24    2    5    5    0    0  0.12102187508E+03 -0.99150457765E+02 -0.19953956930E+03  0.26321342902E+03  0.70626921056E+02 0.  0.
          5    1    3    3  501    0  0.30978476814E+02 -0.52080600030E+01 -0.14117443530E+03  0.14470349373E+03  0.47000000000E+01 0. -1.
        -13    1    4    4    0    0 -0.75026898026E+02  0.39554822773E+02 -0.14229169564E+03  0.16565188221E+03  0.00000000000E+00 0.  1.
         14    1    4    4    0    0 -0.71189275526E+02  0.28051054107E+02 -0.36413065474E+03  0.37208320078E+03  0.00000000000E+00 0. -1.
         -5    1    5    5    0  502 -0.57841783409E+01  0.36752640888E+02 -0.12218641631E+02  0.39441076742E+02  0.47000000000E+01 0.  1.
         11    1    6    6    0    0  0.71552079045E+02 -0.15386125292E+02 -0.10114813805E+03  0.12484942410E+03  0.00000000000E+00 0. -1.
        -12    1    6    6    0    0  0.49469796033E+02 -0.83764332473E+02 -0.98391431250E+02  0.13836400492E+03  0.00000000000E+00 0.  1.
</event>
<event>
12    1  0.8493057E-002  0.1934425E+03  0.7818608E-02  0.1155595E+00
         21   -1    0    0  503  502  0.00000000000E+00  0.00000000000E+00  0.12774885280E+03  0.12774885280E+03  0.00000000000E+00 0. -1.
         21   -1    0    0  501  503 -0.00000000000E+00 -0.00000000000E+00 -0.76339104202E+03  0.76339104202E+03  0.00000000000E+00 0.  1.
          6    2    1    2  501    0 -0.36347141854E+02  0.79344483343E+02 -0.66783902479E+03  0.69503621404E+03  0.17160918985E+03 0.  0.
         24    2    3    3    0    0 -0.37251785066E+02  0.79120528888E+02 -0.67522197076E+03  0.68623471268E+03  0.85706577954E+02 0.  0.
         -6    2    1    2    0  502  0.36347141854E+02 -0.79344483343E+02  0.32196835564E+02  0.19610368078E+03  0.17263648408E+03 0.  0.
        -24    2    5    5    0    0 -0.29079455143E+02 -0.80584649202E+01 -0.17466171497E+02  0.87242115994E+02  0.79972283249E+02 0.  0.
          5    1    3    3  501    0  0.90464321205E+00  0.22395445505E+00  0.73829459742E+01  0.88015013604E+01  0.47000000000E+01 0. -1.
        -13    1    4    4    0    0 -0.29531887860E+02  0.95561399281E+02 -0.48869684017E+03  0.49882733989E+03  0.00000000000E+00 0.  1.
         14    1    4    4    0    0 -0.77198972058E+01 -0.16440870393E+02 -0.18652513060E+03  0.18740737279E+03  0.00000000000E+00 0. -1.
         -5    1    5    5    0  502  0.65426596996E+02 -0.71286018423E+02  0.49663007061E+02  0.10886156478E+03  0.47000000000E+01 0.  1.
         13    1    6    6    0    0  0.73964492514E+01  0.26544868415E+02  0.10760510398E+02  0.29582530060E+02  0.00000000000E+00 0. -1.
        -14    1    6    6    0    0 -0.36475904394E+02 -0.34603333336E+02 -0.28226681895E+02  0.57659585934E+02  0.00000000000E+00 0.  1.
</event>
<event>
12    1  0.8493057E-002  0.1785198E+03  0.7818608E-02  0.1172701E+00
         21   -1    0    0  501  502  0.00000000000E+00  0.00000000000E+00  0.18508077535E+02  0.18508077535E+02  0.00000000000E+00 0. -1.
         21   -1    0    0  502  503 -0.00000000000E+00 -0.00000000000E+00 -0.17795922150E+04  0.17795922150E+04  0.00000000000E+00 0. -1.
         -6    2    1    2    0  503  0.46840502360E+02 -0.12440297555E+02 -0.11398161568E+04  0.11516923472E+04  0.15768829245E+03 0.  0.
        -24    2    3    3    0    0 -0.92041680184E+01  0.19142707167E+02 -0.38266927191E+03  0.39180289037E+03  0.81379194464E+02 0.  0.
          6    2    1    2  501    0 -0.46840502360E+02  0.12440297555E+02 -0.62126798062E+03  0.64640794532E+03  0.17181540780E+03 0.  0.
         24    2    5    5    0    0 -0.23383652138E+02  0.69993766609E+02 -0.30600548676E+03  0.32504342385E+03  0.81042870809E+02 0.  0.
          5    1    5    5  501    0 -0.23456850222E+02 -0.57553469054E+02 -0.31526249386E+03  0.32136452147E+03  0.47000000000E+01 0. -1.
        -13    1    6    6    0    0 -0.33435515956E+02  0.42152735253E+02 -0.75863314408E+02  0.93005533650E+02  0.00000000000E+00 0.  1.
         14    1    6    6    0    0  0.10051863819E+02  0.27841031356E+02 -0.23014217235E+03  0.23203789020E+03  0.00000000000E+00 0. -1.
         -5    1    3    3    0  503  0.56044670378E+02 -0.31583004722E+02 -0.75714688491E+03  0.75988945682E+03  0.47000000000E+01 0.  1.
         11    1    4    4    0    0  0.29293053972E+02 -0.51836968448E+01 -0.24494964873E+03  0.24674943594E+03  0.00000000000E+00 0. -1.
        -12    1    4    4    0    0 -0.38497221990E+02  0.24326404012E+02 -0.13771962318E+03  0.14505345443E+03  0.00000000000E+00 0.  1.
</event>
<event>
12    1  0.8493057E-002  0.1766945E+03  0.7818608E-02  0.1171084E+00
         21   -1    0    0  503  502  0.00000000000E+00  0.00000000000E+00  0.10736067648E+03  0.10736067648E+03  0.00000000000E+00 0. -1.
         21   -1    0    0  501  503 -0.00000000000E+00 -0.00000000000E+00 -0.29168027043E+03  0.29168027043E+03  0.00000000000E+00 0. -1.
          6    2    1    2  501    0 -0.29273510640E+02  0.13153099565E+02 -0.10468694382E+03  0.20523097397E+03  0.17358126055E+03 0.  0.
         24    2    3    3    0    0 -0.51172810934E+02  0.55697998508E+02 -0.25938579845E+02  0.11296482303E+03  0.79795474192E+02 0.  0.
         -6    2    1    2    0  502  0.29273510640E+02 -0.13153099565E+02 -0.79632650132E+02  0.19380997294E+03  0.17375558751E+03 0.  0.
        -24    2    5    5    0    0  0.77297055075E+02 -0.45026653097E+02 -0.54841547679E+02  0.13089039733E+03  0.78246191907E+02 0.  0.
          5    1    3    3  501    0  0.21899300294E+02 -0.42544898943E+02 -0.78748363979E+02  0.92266150937E+02  0.47000000000E+01 0. -1.
        -13    1    4    4    0    0 -0.68652653547E+02  0.56498588389E+02 -0.31927230219E+02  0.94470235304E+02  0.00000000000E+00 0.  1.
         14    1    4    4    0    0  0.17479842613E+02 -0.80058988085E+00  0.59886503739E+01  0.18494587728E+02  0.00000000000E+00 0. -1.
         -5    1    5    5    0  502 -0.48023544435E+02  0.31873553532E+02 -0.24791102452E+02  0.62919575616E+02  0.47000000000E+01 0.  1.
         13    1    6    6    0    0  0.41403181902E+02  0.13433477632E+02 -0.75744548553E+00  0.43534532461E+02  0.00000000000E+00 0. -1.
        -14    1    6    6    0    0  0.35893873173E+02 -0.58460130729E+02 -0.54084102194E+02  0.87355864865E+02  0.00000000000E+00 0.  1.
</event>
<event>
12    1  0.8493057E-002  0.1903973E+03  0.7818608E-02  0.1158656E+00
         21   -1    0    0  503  502  0.00000000000E+00  0.00000000000E+00  0.67539146440E+03  0.67539146440E+03  0.00000000000E+00 0. -1.
         21   -1    0    0  501  503 -0.00000000000E+00 -0.00000000000E+00 -0.10208930981E+03  0.10208930981E+03  0.00000000000E+00 0.  1.
          6    2    1    2  501    0  0.74109847220E+02 -0.13028734597E+02  0.18016696720E+02  0.19124785418E+03  0.17489746421E+03 0.  0.
         24    2    3    3    0    0  0.10924002925E+03  0.23474424469E+02  0.25796927841E+02  0.13977716050E+03  0.79923341496E+02 0.  0.
         -6    2    1    2    0  502 -0.74109847220E+02  0.13028734597E+02  0.55528545787E+03  0.58623292004E+03  0.17223553476E+03 0.  0.
        -24    2    5    5    0    0  0.22797167318E+02 -0.16397684248E+02  0.23031372352E+03  0.24581317661E+03  0.81185661692E+02 0.  0.
          5    1    3    3  501    0 -0.35130182031E+02 -0.36503159066E+02 -0.77802311212E+01  0.51470693677E+02  0.47000000000E+01 0. -1.
        -11    1    4    4    0    0  0.15069553150E+02 -0.16689169054E+02 -0.17626408140E+02  0.28571140330E+02  0.00000000000E+00 0.  1.
         12    1    4    4    0    0  0.94170476101E+02  0.40163593524E+02  0.43423335981E+02  0.11120602017E+03  0.00000000000E+00 0. -1.
         -5    1    5    5    0  502 -0.96907014538E+02  0.29426418845E+02  0.32497173435E+03  0.34041974343E+03  0.47000000000E+01 0.  1.
         13    1    6    6    0    0 -0.13731591865E+02  0.16570925627E+02  0.18564196603E+02  0.28421498673E+02  0.00000000000E+00 0. -1.
        -14    1    6    6    0    0  0.36528759184E+02 -0.32968609874E+02  0.21174952692E+03  0.21739167794E+03  0.00000000000E+00 0.  1.
</event>
<event>
12    1  0.8493057E-002  0.1933072E+03  0.7818608E-02  0.1156414E+00
         21   -1    0    0  503  502  0.00000000000E+00  0.00000000000E+00  0.92626600583E+02  0.92626600583E+02  0.00000000000E+00 0.  1.
         21   -1    0    0  501  503 -0.00000000000E+00 -0.00000000000E+00 -0.30752564409E+04  0.30752564409E+04  0.00000000000E+00 0.  1.
          6    2    1    2  501    0  0.76836643843E+02  0.16175701910E+02 -0.29679942530E+04  0.29740225906E+04  0.17220615686E+03 0.  0.
         24    2    3    3    0    0  0.11733723569E+03  0.30468491649E+02 -0.18751305640E+04  0.18803052073E+04  0.68823577138E+02 0.  0.
         -6    2    1    2    0  502 -0.76836643843E+02 -0.16175701910E+02 -0.14635587256E+02  0.19386045081E+03  0.17664130549E+03 0.  0.
        -24    2    5    5    0    0 -0.35334117223E+02  0.57882452831E+02  0.11285912184E+02  0.10497240812E+03  0.79328156842E+02 0.  0.
          5    1    3    3  501    0 -0.40500591843E+02 -0.14292789739E+02 -0.10928636891E+04  0.10937173834E+04  0.47000000000E+01 0. -1.
        -11    1    4    4    0    0  0.90002709777E+02  0.17960433125E+02 -0.17099815677E+04  0.17124427076E+04  0.00000000000E+00 0.  1.
         12    1    4    4    0    0  0.27334525908E+02  0.12508058524E+02 -0.16514899623E+03  0.16786249965E+03  0.00000000000E+00 0. -1.
         -5    1    5    5    0  502 -0.41502526620E+02 -0.74058154740E+02 -0.25921499441E+02  0.88888042687E+02  0.47000000000E+01 0.  1.
         13    1    6    6    0    0 -0.39551980556E+02  0.35096475310E+01 -0.17399463611E+02  0.43352256293E+02  0.00000000000E+00 0. -1.
        -14    1    6    6    0    0  0.42178633336E+01  0.54372805300E+02  0.28685375795E+02  0.61620151832E+02  0.00000000000E+00 0.  1.
</event>
<event>
12    1  0.8493057E-002  0.2411865E+03  0.7818608E-02  0.1119282E+00
         21   -1    0    0  503  502  0.00000000000E+00  0.00000000000E+00  0.14797096092E+04  0.14797096092E+04  0.00000000000E+00 0. -1.
         21   -1    0    0  501  503 -0.00000000000E+00 -0.00000000000E+00 -0.50490477098E+02  0.50490477098E+02  0.00000000000E+00 0. -1.
          6    2    1    2  501    0  0.16915243423E+03 -0.87141653229E+01  0.10808577085E+04  0.11074404357E+04  0.17170454235E+03 0.  0.
         24    2    3    3    0    0  0.13599187630E+03 -0.57772137683E+02  0.59236885515E+03  0.61535329187E+03  0.76989628843E+02 0.  0.
         -6    2    1    2    0  502 -0.16915243423E+03  0.87141653229E+01  0.34836142363E+03  0.42275965065E+03  0.16935630505E+03 0.  0.
        -24    2    5    5    0    0 -0.16935642142E+03  0.30408689216E+02  0.35230442520E+03  0.40021344832E+03  0.80287672435E+02 0.  0.
          5    1    3    3  501    0  0.33160557933E+02  0.49057972360E+02  0.48848885333E+03  0.49208714379E+03  0.47000000000E+01 0. -1.
        -11    1    4    4    0    0 -0.39365233174E+01 -0.12970190815E+02  0.18253547875E+02  0.22735744449E+02  0.00000000000E+00 0.  1.
         12    1    4    4    0    0  0.13992839962E+03 -0.44801946868E+02  0.57411530727E+03  0.59261754742E+03  0.00000000000E+00 0. -1.
         -5    1    5    5    0  502  0.20398718791E+00 -0.21694523893E+02 -0.39430015780E+01  0.22546202322E+02  0.47000000000E+01 0.  1.
         11    1    6    6    0    0 -0.69001306290E+02  0.49263126153E+02  0.12515357359E+03  0.15116697011E+03  0.00000000000E+00 0. -1.
        -12    1    6    6    0    0 -0.10035511513E+03 -0.18854436937E+02  0.22715085161E+03  0.24904647822E+03  0.00000000000E+00 0.  1.
</event>
<event>
12    1  0.8493057E-002  0.2094098E+03  0.7818608E-02  0.1142405E+00
         21   -1    0    0  503  502  0.00000000000E+00  0.00000000000E+00  0.73478323917E+03  0.73478323917E+03  0.00000000000E+00 0. -1.
         21   -1    0    0  501  503 -0.00000000000E+00 -0.00000000000E+00 -0.78034073869E+02  0.78034073869E+02  0.00000000000E+00 0. -1.
          6    2    1    2  501    0  0.10829312531E+03  0.44564283996E+02  0.12735837099E+03  0.24351328474E+03  0.17136274037E+03 0.  0.
         24    2    3    3    0    0  0.12163748272E+03  0.75529177447E+02  0.13042720160E+03  0.20933135643E+03  0.79423095010E+02 0.  0.
         -6    2    1    2    0  502 -0.10829312531E+03 -0.44564283996E+02  0.52939079432E+03  0.56930402830E+03  0.17360612644E+03 0.  0.
        -24    2    5    5    0    0 -0.23663353745E+02  0.39847574313E+01  0.12725896695E+03  0.15547881853E+03  0.86040605191E+02 0.  0.
          5    1    3    3  501    0 -0.13344357410E+02 -0.30964893451E+02 -0.30688306153E+01  0.34181928302E+02  0.47000000000E+01 0. -1.
        -13    1    4    4    0    0  0.79619292141E+02  0.21607415578E+02  0.11093129766E+03  0.13824566861E+03  0.00000000000E+00 0.  1.
         14    1    4    4    0    0  0.42018190579E+02  0.53921761869E+02  0.19495903936E+02  0.71085687820E+02  0.00000000000E+00 0. -1.
         -5    1    5    5    0  502 -0.84629771565E+02 -0.48549041428E+02  0.40213182737E+03  0.41382520977E+03  0.47000000000E+01 0.  1.
         11    1    6    6    0    0 -0.88651077023E+01 -0.38617158550E+02  0.35340114785E+02  0.53092360863E+02  0.00000000000E+00 0. -1.
        -12    1    6    6    0    0 -0.14798246042E+02  0.42601915981E+02  0.91918852164E+02  0.10238645767E+03  0.00000000000E+00 0.  1.
</event>
<event>
12    1  0.8493057E-002  0.2462464E+03  0.7818608E-02  0.1116445E+00
         21   -1    0    0  503  502  0.00000000000E+00  0.00000000000E+00  0.16651901887E+03  0.16651901887E+03  0.00000000000E+00 0. -1.
         21   -1    0    0  501  503 -0.00000000000E+00 -0.00000000000E+00 -0.36522459958E+03  0.36522459958E+03  0.00000000000E+00 0.  1.
          6    2    1    2  501    0  0.15774964982E+03 -0.65227081524E+02 -0.13914696942E+03  0.28284120714E+03  0.17747604113E+03 0.  0.
         24    2    3    3    0    0  0.30529609654E+02  0.27727888772E+02 -0.49229660386E+02  0.10136730382E+03  0.78427533050E+02 0.  0.
         -6    2    1    2    0  502 -0.15774964982E+03  0.65227081524E+02 -0.59558611292E+02  0.24890241132E+03  0.17107208422E+03 0.  0.
        -24    2    5    5    0    0 -0.15785773893E+03  0.97279059479E+02 -0.30892533794E+02  0.20564533128E+03  0.83386884349E+02 0.  0.
          5    1    3    3  501    0  0.12722004016E+03 -0.92954970296E+02 -0.89917309030E+02  0.18147390332E+03  0.47000000000E+01 0. -1.
        -11    1    4    4    0    0 -0.16316927293E+02 -0.16407496896E+02 -0.20379537374E+02  0.30834617142E+02  0.00000000000E+00 0.  1.
         12    1    4    4    0    0  0.46846536948E+02  0.44135385668E+02 -0.28850123012E+02  0.70532686677E+02  0.00000000000E+00 0. -1.
         -5    1    5    5    0  502  0.10808910805E+00 -0.32051977954E+02 -0.28666077498E+02  0.43257080035E+02  0.47000000000E+01 0.  1.
         11    1    6    6    0    0 -0.60788979968E+02 -0.59870071377E+01 -0.27010043933E+01  0.61142781787E+02  0.00000000000E+00 0. -1.
        -12    1    6    6    0    0 -0.97068758959E+02  0.10326606662E+03 -0.28191529400E+02  0.14450254949E+03  0.00000000000E+00 0.  1.
</event>
<event>
12    1  0.8493057E-002  0.1862562E+03  0.7818608E-02  0.1162117E+00
         21   -1    0    0  501  502  0.00000000000E+00  0.00000000000E+00  0.37770166489E+02  0.37770166489E+02  0.00000000000E+00 0. -1.
         21   -1    0    0  502  503 -0.00000000000E+00 -0.00000000000E+00 -0.10141831610E+04  0.10141831610E+04  0.00000000000E+00 0.  1.
         -6    2    1    2    0  503 -0.70135412785E+02  0.48302622712E+01 -0.65512116447E+03  0.68108378467E+03  0.17247919889E+03 0.  0.
        -24    2    3    3    0    0  0.20088270878E+02  0.32978444887E+02 -0.37975722764E+03  0.38991369524E+03  0.79536289401E+02 0.  0.
          6    2    1    2  501    0  0.70135412785E+02 -0.48302622712E+01 -0.32129183000E+03  0.37086954277E+03  0.17138690198E+03 0.  0.
         24    2    5    5    0    0  0.95114200025E+02 -0.46843249106E+02 -0.19918384064E+03  0.23925844164E+03  0.79557516884E+02 0.  0.
          5    1    5    5  501    0 -0.24978787240E+02  0.42012986835E+02 -0.12210798936E+03  0.13161110113E+03  0.47000000000E+01 0. -1.
        -11    1    6    6    0    0  0.86418926493E+02 -0.19135171091E+02 -0.18862201430E+03  0.20835702509E+03  0.00000000000E+00 0.  1.
         12    1    6    6    0    0  0.86952735321E+01 -0.27708078015E+02 -0.10561826343E+02  0.30901416549E+02  0.00000000000E+00 0. -1.
         -5    1    3    3    0  503 -0.90223683663E+02 -0.28148182616E+02 -0.27536393682E+03  0.29117008944E+03  0.47000000000E+01 0.  1.
         11    1    4    4    0    0  0.15615379729E+02 -0.61411867890E+01 -0.13472940919E+02  0.21519163465E+02  0.00000000000E+00 0. -1.
        -12    1    4    4    0    0  0.44728911494E+01  0.39119631676E+02 -0.36628428672E+03  0.36839453177E+03  0.00000000000E+00 0.  1.
</event>
<event>
12    1  0.8493057E-002  0.1986012E+03  0.7818608E-02  0.1151013E+00
         21   -1    0    0  501  502  0.00000000000E+00  0.00000000000E+00  0.26631328212E+03  0.26631328212E+03  0.00000000000E+00 0. -1.
         21   -1    0    0  502  503 -0.00000000000E+00 -0.00000000000E+00 -0.25121268634E+03  0.25121268634E+03  0.00000000000E+00 0. -1.
         -6    2    1    2    0  503 -0.26929805992E+02 -0.95435352685E+02 -0.15848147330E+03  0.25375866517E+03  0.17159242926E+03 0.  0.
        -24    2    3    3    0    0  0.47985948313E+02  0.12571922219E+01 -0.81435784511E+02  0.10912137176E+03  0.54511054007E+02 0.  0.
          6    2    1    2  501    0  0.26929805992E+02  0.95435352685E+02  0.17358206908E+03  0.26376730329E+03  0.17207363130E+03 0.  0.
         24    2    5    5    0    0 -0.34047735922E+02  0.12522793000E+02  0.11667939867E+03  0.14606956724E+03  0.80038539060E+02 0.  0.
          5    1    5    5  501    0  0.60977541914E+02  0.82912559685E+02  0.56902670413E+02  0.11769773605E+03  0.47000000000E+01 0. -1.
        -13    1    6    6    0    0 -0.15968257618E+02 -0.29800832492E+02  0.81201992537E+02  0.87959300023E+02  0.00000000000E+00 0.  1.
         14    1    6    6    0    0 -0.18079478304E+02  0.42323625491E+02  0.35477406129E+02  0.58110267217E+02  0.00000000000E+00 0. -1.
         -5    1    3    3    0  503 -0.74915754305E+02 -0.96692544907E+02 -0.77045688786E+02  0.14463729341E+03  0.47000000000E+01 0.  1.
         11    1    4    4    0    0  0.30560256159E+01 -0.17858876562E+02 -0.44031692929E+02  0.47613745355E+02  0.00000000000E+00 0. -1.
        -12    1    4    4    0    0  0.44929922697E+02  0.19116068784E+02 -0.37404091583E+02  0.61507626409E+02  0.00000000000E+00 0.  1.
</event>
<event>
12    1  0.8493057E-002  0.2206863E+03  0.7818608E-02  0.1133443E+00
         21   -1    0    0  501  502  0.00000000000E+00  0.00000000000E+00  0.22140150353E+03  0.22140150353E+03  0.00000000000E+00 0.  1.
         21   -1    0    0  502  503 -0.00000000000E+00 -0.00000000000E+00 -0.30828796890E+03  0.30828796890E+03  0.00000000000E+00 0. -1.
         -6    2    1    2    0  503  0.71279872189E+02 -0.11675740603E+03 -0.18552446535E+03  0.28830848209E+03  0.17317430976E+03 0.  0.
        -24    2    3    3    0    0  0.83860217083E+02 -0.15483576323E+02 -0.11829756704E+03  0.16601294040E+03  0.79332873819E+02 0.  0.
          6    2    1    2  501    0 -0.71279872189E+02  0.11675740603E+03  0.98637999981E+02  0.24138099034E+03  0.17269109825E+03 0.  0.
         24    2    5    5    0    0  0.25197498391E+02  0.24608551673E+02  0.34986457635E+02  0.93486084284E+02  0.79215535069E+02 0.  0.
          5    1    5    5  501    0 -0.96477370580E+02  0.92148854360E+02  0.63651542346E+02  0.14789490605E+03  0.47000000000E+01 0. -1.
        -13    1    6    6    0    0  0.12873003925E+02  0.48087447752E+02  0.43004073339E+02  0.65783487176E+02  0.00000000000E+00 0.  1.
         14    1    6    6    0    0  0.12324494466E+02 -0.23478896079E+02 -0.80176157039E+01  0.27702597107E+02  0.00000000000E+00 0. -1.
         -5    1    3    3    0  503 -0.12580344894E+02 -0.10127382971E+03 -0.67226898308E+02  0.12229554169E+03  0.47000000000E+01 0.  1.
         11    1    4    4    0    0  0.38499663886E+02 -0.12818585036E+02 -0.11324352628E+03  0.12029395864E+03  0.00000000000E+00 0. -1.
        -12    1    4    4    0    0  0.45360553197E+02 -0.26649912872E+01 -0.50540407580E+01  0.45718981757E+02  0.00000000000E+00 0.  1.
</event>
<event>
12    1  0.8493057E-002  0.2393954E+03  0.7818608E-02  0.1120475E+00
         21   -1    0    0  503  502  0.00000000000E+00  0.00000000000E+00  0.12990212807E+03  0.12990212807E+03  0.00000000000E+00 0. -1.
         21   -1    0    0  501  503 -0.00000000000E+00 -0.00000000000E+00 -0.66483246515E+03  0.66483246515E+03  0.00000000000E+00 0. -1.
          6    2    1    2  501    0  0.77178257887E+02 -0.14519942561E+03 -0.49889612373E+03  0.55264238422E+03  0.17168839762E+03 0.  0.
         24    2    3    3    0    0  0.10192782733E+03 -0.64961549636E+02 -0.38376229913E+03  0.41006417588E+03  0.79182328762E+02 0.  0.
         -6    2    1    2    0  502 -0.77178257887E+02  0.14519942561E+03 -0.36034213354E+02  0.24209220899E+03  0.17398510406E+03 0.  0.
        -24    2    5    5    0    0 -0.10787055627E+03  0.11472178391E+03  0.12399182178E+02  0.17698623671E+03  0.79832597683E+02 0.  0.
          5    1    3    3  501    0 -0.24749569439E+02 -0.80237875975E+02 -0.11513382459E+03  0.14257820834E+03  0.47000000000E+01 0. -1.
        -13    1    4    4    0    0  0.32466312078E+02 -0.13969951475E+02 -0.31266688869E+02  0.47189265697E+02  0.00000000000E+00 0.  1.
         14    1    4    4    0    0  0.69461515247E+02 -0.50991598161E+02 -0.35249561027E+03  0.36287491018E+03  0.00000000000E+00 0. -1.
         -5    1    5    5    0  502  0.30692298387E+02  0.30477641704E+02 -0.48433395532E+02  0.65105972282E+02  0.47000000000E+01 0.  1.
         13    1    6    6    0    0 -0.48008017375E+02  0.90172289848E+02  0.35705120440E+02  0.10821583625E+03  0.00000000000E+00 0. -1.
        -14    1    6    6    0    0 -0.59862538898E+02  0.24549494060E+02 -0.23305938261E+02  0.68770400466E+02  0.00000000000E+00 0.  1.
</event>
<event>
12    1  0.8493057E-002  0.1765341E+03  0.7818608E-02  0.1171299E+00
         21   -1    0    0  501  502  0.00000000000E+00  0.00000000000E+00  0.12282042649E+03  0.12282042649E+03  0.00000000000E+00 0. -1.
         21   -1    0    0  502  503 -0.00000000000E+00 -0.00000000000E+00 -0.26006294706E+03  0.26006294706E+03  0.00000000000E+00 0. -1.
         -6    2    1    2    0  503  0.42189493473E+00  0.31084608314E+02 -0.99869756562E+02  0.20282564459E+03  0.17377526567E+03 0.  0.
        -24    2    3    3    0    0 -0.18120449909E+02  0.83959801831E+02 -0.83301612016E+02  0.14420655167E+03  0.80490819047E+02 0.  0.
          6    2    1    2  501    0 -0.42189493473E+00 -0.31084608314E+02 -0.37372764008E+02  0.18005772895E+03  0.17337136844E+03 0.  0.
         24    2    5    5    0    0 -0.18684416978E+02 -0.85042874311E+02 -0.31944405732E+02  0.12264195364E+03  0.80244662289E+02 0.  0.
          5    1    5    5  501    0  0.18262522043E+02  0.53958265998E+02 -0.54283582755E+01  0.57415775310E+02  0.47000000000E+01 0. -1.
        -13    1    6    6    0    0 -0.40381186235E+02 -0.65525483441E+02  0.31072162246E+01  0.77031707592E+02  0.00000000000E+00 0.  1.
         14    1    6    6    0    0  0.21696769258E+02 -0.19517390871E+02 -0.35051621957E+02  0.45610246047E+02  0.00000000000E+00 0. -1.
         -5    1    3    3    0  503  0.18542344844E+02 -0.52875193517E+02 -0.16568144546E+02  0.58619092926E+02  0.47000000000E+01 0.  1.
         11    1    4    4    0    0 -0.40289657582E+02  0.15979947875E+02 -0.47285856921E+02  0.64144894628E+02  0.00000000000E+00 0. -1.
        -12    1    4    4    0    0  0.22169207673E+02  0.67979853956E+02 -0.36015755095E+02  0.80061657039E+02  0.00000000000E+00 0.  1.
</event>
<event>
12    1  0.8493057E-002  0.2877049E+03  0.7818608E-02  0.1091667E+00
         21   -1    0    0  503  502  0.00000000000E+00  0.00000000000E+00  0.42690986472E+03  0.42690986472E+03  0.00000000000E+00 0.  1.
         21   -1    0    0  501  503 -0.00000000000E+00 -0.00000000000E+00 -0.23024778019E+03  0.23024778019E+03  0.00000000000E+00 0. -1.
          6    2    1    2  501    0 -0.14005348319E+03 -0.18219345387E+03  0.23005648459E+03  0.36837492042E+03  0.17310304189E+03 0.  0.
         24    2    3    3    0    0 -0.53590647907E+02 -0.17425580488E+03  0.17212552068E+03  0.26389087985E+03  0.82305276377E+02 0.  0.
         -6    2    1    2    0  502  0.14005348319E+03  0.18219345387E+03 -0.33394400056E+02  0.28878272449E+03  0.17167074073E+03 0.  0.
        -24    2    5    5    0    0  0.89838547311E+02  0.26620241203E+02 -0.11259713930E+02  0.12374758091E+03  0.80044242763E+02 0.  0.
          5    1    3    3  501    0 -0.86462835280E+02 -0.79376489938E+01  0.57930963903E+02  0.10448404058E+03  0.47000000000E+01 0. -1.
        -13    1    4    4    0    0 -0.21463431847E+02 -0.10162195405E+02  0.54512858417E+02  0.59460918719E+02  0.00000000000E+00 0.  1.
         14    1    4    4    0    0 -0.32127216060E+02 -0.16409360947E+03  0.11761266227E+03  0.20442996113E+03  0.00000000000E+00 0. -1.
         -5    1    5    5    0  502  0.50214935875E+02  0.15557321267E+03 -0.22134686126E+02  0.16503514358E+03  0.47000000000E+01 0.  1.
         13    1    6    6    0    0  0.93839278635E+02  0.22298453525E+02  0.14310380140E+02  0.97508041843E+02  0.00000000000E+00 0. -1.
        -14    1    6    6    0    0 -0.40007313241E+01  0.43217876783E+01 -0.25570094070E+02  0.26239539070E+02  0.00000000000E+00 0.  1.
</event>
<event>
12    1  0.8493057E-002  0.2407171E+03  0.7818608E-02  0.1119342E+00
         21   -1    0    0  503  502  0.00000000000E+00  0.00000000000E+00  0.33739531851E+03  0.33739531851E+03  0.00000000000E+00 0. -1.
         21   -1    0    0  501  503 -0.00000000000E+00 -0.00000000000E+00 -0.38669889401E+03  0.38669889401E+03  0.00000000000E+00 0.  1.
          6    2    1    2  501    0 -0.14021383405E+03 -0.92610862050E+02 -0.29465651429E+03  0.38048283264E+03  0.17236018534E+03 0.  0.
         24    2    3    3    0    0 -0.78654651119E+02 -0.12320186390E+03 -0.24400585546E+03  0.29496721046E+03  0.78112382717E+02 0.  0.
         -6    2    1    2    0  502  0.14021383405E+03  0.92610862050E+02  0.24535293879E+03  0.34361137989E+03  0.17214535946E+03 0.  0.
        -24    2    5    5    0    0  0.53223338183E+01  0.43956151652E+02  0.13108881758E+03  0.16019552159E+03  0.80733243070E+02 0.  0.
          5    1    3    3  501    0 -0.61559182930E+02  0.30591001853E+02 -0.50650658831E+02  0.85515622184E+02  0.47000000000E+01 0. -1.
        -13    1    4    4    0    0  0.99513038189E+01 -0.10203598761E+02 -0.59417118026E+02  0.61102665980E+02  0.00000000000E+00 0.  1.
         14    1    4    4    0    0 -0.88605954938E+02 -0.11299826514E+03 -0.18458873744E+03  0.23386454448E+03  0.00000000000E+00 0. -1.
         -5    1    5    5    0  502  0.13489150023E+03  0.48654710398E+02  0.11426412121E+03  0.18341585830E+03  0.47000000000E+01 0.  1.
         13    1    6    6    0    0  0.12120587111E+02  0.57465676771E+02  0.48309944535E+02  0.76046455405E+02  0.00000000000E+00 0. -1.
        -14    1    6    6    0    0 -0.67982532927E+01 -0.13509525119E+02  0.82778873045E+02  0.84149066182E+02  0.00000000000E+00 0.  1.
</event>
<event>
12    1  0.8493057E-002  0.1797626E+03  0.7818608E-02  0.1168356E+00
         21   -1    0    0  503  502  0.00000000000E+00  0.00000000000E+00  0.88117155629E+03  0.88117155629E+03  0.00000000000E+00 0.  1.
         21   -1    0    0  501  503 -0.00000000000E+00 -0.00000000000E+00 -0.45365433775E+02  0.45365433775E+02  0.00000000000E+00 0.  1.
          6    2    1    2  501    0 -0.27752389565E+02 -0.41800268536E+02  0.21322376642E+03  0.27888883171E+03  0.17261850512E+03 0.  0.
         24    2    3    3    0    0 -0.58732092523E+02 -0.78350924803E+02  0.14810506837E+03  0.19790594892E+03  0.87426124429E+02 0.  0.
         -6    2    1    2    0  502  0.27752389565E+02  0.41800268536E+02  0.62258235609E+03  0.64764815835E+03  0.17123635514E+03 0.  0.
        -24    2    5    5    0    0  0.65303997296E+02 -0.20873072144E+02  0.35340268821E+03  0.36868964087E+03  0.79613403678E+02 0.  0.
          5    1    3    3  501    0  0.30979702958E+02  0.36550656268E+02  0.65118698052E+02  0.80982882790E+02  0.47000000000E+01 0. -1.
        -11    1    4    4    0    0 -0.63136330388E+01  0.16620703631E+01 -0.10690125308E+02  0.12526101514E+02  0.00000000000E+00 0.  1.
         12    1    4    4    0    0 -0.52418459484E+02 -0.80012995166E+02  0.15879519368E+03  0.18537984741E+03  0.00000000000E+00 0. -1.
         -5    1    5    5    0  502 -0.37551607731E+02  0.62673340680E+02  0.26917966788E+03  0.27895851748E+03  0.47000000000E+01 0.  1.
         13    1    6    6    0    0 -0.43344293466E+01 -0.29928639101E+02  0.16228425679E+03  0.16507783230E+03  0.00000000000E+00 0. -1.
        -14    1    6    6    0    0  0.69638426643E+02  0.90555669561E+01  0.19111843142E+03  0.20361180856E+03  0.00000000000E+00 0.  1.
</event>
<event>
12    1  0.8493057E-002  0.2149122E+03  0.7818608E-02  0.1138138E+00
         21   -1    0    0  503  502  0.00000000000E+00  0.00000000000E+00  0.14246015171E+03  0.14246015171E+03  0.00000000000E+00 0.  1.
         21   -1    0    0  501  503 -0.00000000000E+00 -0.00000000000E+00 -0.55259095188E+03  0.55259095188E+03  0.00000000000E+00 0.  1.
          6    2    1    2  501    0 -0.12595426328E+03  0.37186882266E+01 -0.43059498617E+03  0.48124765006E+03  0.17409466819E+03 0.  0.
         24    2    3    3    0    0 -0.11478211755E+03  0.50501658292E+02 -0.39221642445E+03  0.41953487076E+03  0.80314582613E+02 0.  0.
         -6    2    1    2    0  502  0.12595426328E+03 -0.37186882266E+01  0.20464186000E+02  0.21380345353E+03  0.17150751807E+03 0.  0.
        -24    2    5    5    0    0  0.26607377217E+02 -0.15467533728E+02 -0.44591203122E+02  0.94379281799E+02  0.77277916089E+02 0.  0.
          5    1    3    3  501    0 -0.11172145728E+02 -0.46782970065E+02 -0.38378561722E+02  0.61712779294E+02  0.47000000000E+01 0. -1.
        -11    1    4    4    0    0 -0.84210044290E+02 -0.61229021620E+01 -0.23129568084E+03  0.24622451841E+03  0.00000000000E+00 0.  1.
         12    1    4    4    0    0 -0.30572073257E+02  0.56624560454E+02 -0.16092074361E+03  0.17331035236E+03  0.00000000000E+00 0. -1.
         -5    1    5    5    0  502  0.99346886058E+02  0.11748845502E+02  0.65055389122E+02  0.11942417173E+03  0.47000000000E+01 0.  1.
         11    1    6    6    0    0 -0.17970124314E+02 -0.29879411849E+02 -0.10415679184E+02  0.36389435186E+02  0.00000000000E+00 0. -1.
        -12    1    6    6    0    0  0.44577501531E+02  0.14411878121E+02 -0.34175523938E+02  0.57989846613E+02  0.00000000000E+00 0.  1.
</event>
<event>
12    1  0.8493057E-002  0.2155684E+03  0.7818608E-02  0.1137946E+00
         21   -1    0    0  503  502  0.00000000000E+00  0.00000000000E+00  0.28680376963E+02  0.28680376963E+02  0.00000000000E+00 0. -1.
         21   -1    0    0  501  503 -0.00000000000E+00 -0.00000000000E+00 -0.16182985224E+04  0.16182985224E+04  0.00000000000E+00 0. -1.
          6    2    1    2  501    0 -0.10716866304E+03 -0.72485060365E+02 -0.69774545595E+03  0.73028655932E+03  0.17242543636E+03 0.  0.
         24    2    3    3    0    0  0.16071567941E+01 -0.47502841787E+02 -0.43901070847E+03  0.44846738009E+03  0.78316575018E+02 0.  0.
         -6    2    1    2    0  502  0.10716866304E+03  0.72485060365E+02 -0.89187268946E+03  0.91669234002E+03  0.16777587947E+03 0.  0.
        -24    2    5    5    0    0 -0.57082215287E+01  0.52772371732E+02 -0.45689977094E+03  0.46685535731E+03  0.79868748318E+02 0.  0.
          5    1    3    3  501    0 -0.10877581984E+03 -0.24982218578E+02 -0.25873474748E+03  0.28181917923E+03  0.47000000000E+01 0. -1.
        -11    1    4    4    0    0 -0.36083465448E+02 -0.38352411349E+02 -0.26606401029E+03  0.27122496476E+03  0.00000000000E+00 0.  1.
         12    1    4    4    0    0  0.37690622242E+02 -0.91504304384E+01 -0.17294669818E+03  0.17724241533E+03  0.00000000000E+00 0. -1.
         -5    1    5    5    0  502  0.11287688457E+03  0.19712688634E+02 -0.43497291852E+03  0.44983698271E+03  0.47000000000E+01 0.  1.
         11    1    6    6    0    0  0.35000807932E+02  0.12778557203E+02 -0.14087655495E+03  0.14572080090E+03  0.00000000000E+00 0. -1.
        -12    1    6    6    0    0 -0.40709029460E+02  0.39993814529E+02 -0.31602321599E+03  0.32113455641E+03  0.00000000000E+00 0.  1.
</event>
<event>
12    1  0.8493057E-002  0.1921286E+03  0.7818608E-02  0.1156578E+00
         21   -1    0    0  503  502  0.00000000000E+00  0.00000000000E+00  0.43487852510E+02  0.43487852510E+02  0.00000000000E+00 0.  1.
         21   -1    0    0  501  503 -0.00000000000E+00 -0.00000000000E+00 -0.87523781722E+03  0.87523781722E+03  0.00000000000E+00 0.  1.
          6    2    1    2  501    0  0.78524061531E+02  0.35633408791E+02 -0.49626259904E+03  0.53211841202E+03  0.17157409231E+03 0.  0.
         24    2    3    3    0    0  0.18806228839E+02  0.68325312846E+02 -0.18692393012E+03  0.21534170483E+03  0.80059175425E+02 0.  0.
         -6    2    1    2    0  502 -0.78524061531E+02 -0.35633408791E+02 -0.33548736568E+03  0.38660725771E+03  0.17169050971E+03 0.  0.
        -24    2    5    5    0    0 -0.10979912148E+03  0.38532625116E+01 -0.28174568178E+03  0.31279949949E+03  0.79951253703E+02 0.  0.
          5    1    3    3  501    0  0.59717832692E+02 -0.32691904055E+02 -0.30933866892E+03  0.31677670719E+03  0.47000000000E+01 0. -1.
        -13    1    4    4    0    0  0.15612177979E+02  0.18738762417E+02 -0.27057614669E+01  0.24539813840E+02  0.00000000000E+00 0.  1.
         14    1    4    4    0    0  0.31940508605E+01  0.49586550429E+02 -0.18421816865E+03  0.19080189099E+03  0.00000000000E+00 0. -1.
         -5    1    5    5    0  502  0.31275059951E+02 -0.39486671303E+02 -0.53741683893E+02  0.73807758218E+02  0.47000000000E+01 0.  1.
         11    1    6    6    0    0 -0.28248561471E+02 -0.79633113608E+01 -0.13729786631E+02  0.32402200449E+02  0.00000000000E+00 0. -1.
        -12    1    6    6    0    0 -0.81550560011E+02  0.11816573872E+02 -0.26801589515E+03  0.28039729904E+03  0.00000000000E+00 0.  1.
</event>
<event>
12    1  0.8493057E-002  0.2485703E+03  0.7818608E-02  0.1114342E+00
         21   -1    0    0  503  502  0.00000000000E+00  0.00000000000E+00  0.84390875309E+03  0.84390875309E+03  0.00000000000E+00 0. -1.
         21   -1    0    0  501  503 -0.00000000000E+00 -0.00000000000E+00 -0.45415104515E+03  0.45415104515E+03  0.00000000000E+00 0.  1.
          6    2    1    2  501    0 -0.11381944058E+03 -0.13860280044E+03 -0.39977586261E+03  0.47032164108E+03  0.17092719034E+03 0.  0.
         24    2    3    3    0    0 -0.12228648243E+03 -0.49259856600E+02 -0.28894970533E+03  0.32763884762E+03  0.80465924468E+02 0.  0.
         -6    2    1    2    0  502  0.11381944058E+03  0.13860280044E+03  0.78953357055E+03  0.82773815715E+03  0.17210925727E+03 0.  0.
        -24    2    5    5    0    0  0.12266649725E+03  0.10372953258E+03  0.41956506424E+03  0.45599469603E+03  0.78034826853E+02 0.  0.
          5    1    3    3  501    0  0.84670418506E+01 -0.89342943842E+02 -0.11082615728E+03  0.14268279346E+03  0.47000000000E+01 0. -1.
        -13    1    4    4    0    0 -0.48250596348E+02 -0.36238254892E+02 -0.54073486728E+02  0.81026373067E+02  0.00000000000E+00 0.  1.
         14    1    4    4    0    0 -0.74035886083E+02 -0.13021601708E+02 -0.23487621860E+03  0.24661247455E+03  0.00000000000E+00 0. -1.
         -5    1    5    5    0  502 -0.88470566746E+01  0.34873267859E+02  0.36996850631E+03  0.37174346112E+03  0.47000000000E+01 0.  1.
         13    1    6    6    0    0  0.50026289905E+02  0.27923298305E+02  0.25060850916E+03  0.25707385152E+03  0.00000000000E+00 0. -1.
        -14    1    6    6    0    0  0.72640207350E+02  0.75806234279E+02  0.16895655508E+03  0.19892084452E+03  0.00000000000E+00 0.  1.
</event>
<event>
12    1  0.8493057E-002  0.2015091E+03  0.7818608E-02  0.1148491E+00
         21   -1    0    0  503  502  0.00000000000E+00  0.00000000000E+00  0.38363176571E+02  0.38363176571E+02  0.00000000000E+00 0. -1.
         21   -1    0    0  501  503 -0.00000000000E+00 -0.00000000000E+00 -0.33836138777E+04  0.33836138777E+04  0.00000000000E+00 0. -1.
          6    2    1    2  501    0  0.93917264109E+02 -0.39447326619E+02 -0.30912427614E+04  0.30978036951E+04  0.17386598122E+03 0.  0.
         24    2    3    3    0    0 -0.10125994081E+02 -0.26792152051E+02 -0.82425470773E+03  0.82838921588E+03  0.77540406304E+02 0.  0.
         -6    2    1    2    0  502 -0.93917264109E+02  0.39447326619E+02 -0.25400793972E+03  0.32417335915E+03  0.17375784664E+03 0.  0.
        -24    2    5    5    0    0 -0.10161664976E+03 -0.10755889593E+02 -0.79803907489E+02  0.14265537574E+03  0.59500083263E+02 0.  0.
          5    1    3    3  501    0  0.10404325819E+03 -0.12655174568E+02 -0.22669880537E+04  0.22694144793E+04  0.47000000000E+01 0. -1.
        -13    1    4    4    0    0 -0.45745489149E+01  0.24322147707E+02 -0.13726428770E+03  0.13947751806E+03  0.00000000000E+00 0.  1.
         14    1    4    4    0    0 -0.55514451659E+01 -0.51114299758E+02 -0.68699042003E+03  0.68891169783E+03  0.00000000000E+00 0. -1.
         -5    1    5    5    0  502  0.76993856492E+01  0.50203216212E+02 -0.17420403223E+03  0.18151798341E+03  0.47000000000E+01 0.  1.
         11    1    6    6    0    0 -0.77463743082E+02  0.16030732131E+02 -0.69093103067E+02  0.10503081813E+03  0.00000000000E+00 0. -1.
        -12    1    6    6    0    0 -0.24152906677E+02 -0.26786621724E+02 -0.10710804421E+02  0.37624557614E+02  0.00000000000E+00 0.  1.
</event>
<event>
12    1  0.8493057E-002  0.2534856E+03  0.7818608E-02  0.1111159E+00
         21   -1    0    0  503  502  0.00000000000E+00  0.00000000000E+00  0.21633061007E+03  0.21633061007E+03  0.00000000000E+00 0. -1.
         21   -1    0    0  501  503 -0.00000000000E+00 -0.00000000000E+00 -0.37944606829E+03  0.37944606829E+03  0.00000000000E+00 0.  1.
          6    2    1    2  501    0 -0.17199948632E+03 -0.71173724370E+02  0.57489022840E+02  0.25992290545E+03  0.17206221751E+03 0.  0.
         24    2    3    3    0    0 -0.19583405862E+02  0.26690187665E+02  0.14279445722E+02  0.73651156608E+02  0.64223939438E+02 0.  0.
         -6    2    1    2    0  502  0.17199948632E+03  0.71173724370E+02 -0.22060448106E+03  0.33585377291E+03  0.17170293352E+03 0.  0.
        -24    2    5    5    0    0  0.10445559944E+03 -0.25836463612E+02 -0.98130451528E+02  0.16557420533E+03  0.78782846140E+02 0.  0.
          5    1    3    3  501    0 -0.15241608046E+03 -0.97863912035E+02  0.43209577118E+02  0.18627174884E+03  0.47000000000E+01 0. -1.
        -11    1    4    4    0    0  0.12534595939E+02 -0.28629703403E+01  0.25524581655E+02  0.28580009853E+02  0.00000000000E+00 0.  1.
         12    1    4    4    0    0 -0.32118001800E+02  0.29553158005E+02 -0.11245135933E+02  0.45071146756E+02  0.00000000000E+00 0. -1.
         -5    1    5    5    0  502  0.67543886883E+02  0.97010187982E+02 -0.12247402953E+03  0.17027956758E+03  0.47000000000E+01 0.  1.
         11    1    6    6    0    0  0.40109223426E+02 -0.47706968299E+02 -0.64692018265E+02  0.89831853233E+02  0.00000000000E+00 0. -1.
        -12    1    6    6    0    0  0.64346376015E+02  0.21870504687E+02 -0.33438433263E+02  0.75742352093E+02  0.00000000000E+00 0.  1.
</event>
<event>
12    1  0.8493057E-002  0.2160867E+03  0.7818608E-02  0.1137380E+00
         21   -1    0    0  501  502  0.00000000000E+00  0.00000000000E+00  0.29557854164E+03  0.29557854164E+03  0.00000000000E+00 0.  1.
         21   -1    0    0  502  503 -0.00000000000E+00 -0.00000000000E+00 -0.18192010523E+03  0.18192010523E+03  0.00000000000E+00 0.  1.
         -6    2    1    2    0  503  0.10112839139E+03  0.84419835535E+02  0.14743434828E+03  0.26159193073E+03  0.17128861898E+03 0.  0.
        -24    2    3    3    0    0  0.83654188524E+01 -0.13606308483E+01  0.96755974492E+02  0.12538016525E+03  0.79288307388E+02 0.  0.
          6    2    1    2  501    0 -0.10112839139E+03 -0.84419835535E+02 -0.33775911867E+02  0.21590671614E+03  0.16769388086E+03 0.  0.
         24    2    5    5    0    0 -0.23758145797E+02 -0.99715941586E+02 -0.18625351575E+01  0.13069709594E+03  0.81058888166E+02 0.  0.
          5    1    5    5  501    0 -0.77370245589E+02  0.15296106051E+02 -0.31913376710E+02  0.85209620207E+02  0.47000000000E+01 0. -1.
        -13    1    6    6    0    0 -0.26316207154E+02 -0.92542965771E+01  0.23758687226E+02  0.36642325019E+02  0.00000000000E+00 0.  1.
         14    1    6    6    0    0  0.25580613570E+01 -0.90461645009E+02 -0.25621222384E+02  0.94054770916E+02  0.00000000000E+00 0. -1.
         -5    1    3    3    0  503  0.92762972534E+02  0.85780466384E+02  0.50678373791E+02  0.13621176548E+03  0.47000000000E+01 0.  1.
         11    1    4    4    0    0  0.51395293322E+01  0.38027064982E+02  0.61113836790E+02  0.72162133284E+02  0.00000000000E+00 0. -1.
        -12    1    4    4    0    0  0.32258895203E+01 -0.39387695830E+02  0.35642137701E+02  0.53218031962E+02  0.00000000000E+00 0.  1.
</event>
<event>
12    1  0.8493057E-002  0.1742067E+03  0.7818608E-02  0.1174632E+00
         21   -1    0    0  503  502  0.00000000000E+00  0.00000000000E+00  0.14257792894E+02  0.14257792894E+02  0.00000000000E+00 0.  1.
         21   -1    0    0  501  503 -0.00000000000E+00 -0.00000000000E+00 -0.21792072432E+04  0.21792072432E+04  0.00000000000E+00 0.  1.
          6    2    1    2  501    0 -0.26451672475E+02  0.89526030947E+01 -0.13079279183E+04  0.13189172150E+04  0.16759278164E+03 0.  0.
         24    2    3    3    0    0  0.39017258125E+02  0.28436967755E+02 -0.92989923882E+03  0.93473809811E+03  0.81802873627E+02 0.  0.
         -6    2    1    2    0  502  0.26451672475E+02 -0.89526030947E+01 -0.85702153200E+03  0.87454782109E+03  0.17195390368E+03 0.  0.
        -24    2    5    5    0    0 -0.60534132028E+01 -0.27938481196E+02 -0.80874431694E+03  0.81314893140E+03  0.79540001899E+02 0.  0.
          5    1    3    3  501    0 -0.65468930599E+02 -0.19484364660E+02 -0.37802867949E+03  0.38417911689E+03  0.47000000000E+01 0. -1.
        -11    1    4    4    0    0 -0.14646646391E+02 -0.80293879416E+01 -0.56110893292E+02  0.58544236841E+02  0.00000000000E+00 0.  1.
         12    1    4    4    0    0  0.53663904516E+02  0.36466355696E+02 -0.87378834553E+03  0.87619386127E+03  0.00000000000E+00 0. -1.
         -5    1    5    5    0  502  0.32505085677E+02  0.18985878102E+02 -0.48277215053E+02  0.61398889692E+02  0.47000000000E+01 0.  1.
         13    1    6    6    0    0 -0.14088764632E+02  0.22452512027E+02 -0.45165487093E+03  0.45243201812E+03  0.00000000000E+00 0. -1.
        -14    1    6    6    0    0  0.80353514290E+01 -0.50390993224E+02 -0.35708944602E+03  0.36071691328E+03  0.00000000000E+00 0.  1.
</event>
<event>
12    1  0.8493057E-002  0.1899759E+03  0.7818608E-02  0.1159223E+00
         21   -1    0    0  501  502  0.00000000000E+00  0.00000000000E+00  0.29978074591E+03  0.29978074591E+03  0.00000000000E+00 0.  1.
         21   -1    0    0  502  503 -0.00000000000E+00 -0.00000000000E+00 -0.13492083108E+03  0.13492083108E+03  0.00000000000E+00 0. -1.
         -6    2    1    2    0  503  0.47361173668E+02 -0.59750051728E+02  0.68602498173E+01  0.19009973574E+03  0.17400487650E+03 0.  0.
        -24    2    3    3    0    0 -0.25037170314E+02 -0.68393447417E+02  0.28498088999E+02  0.11389924634E+03  0.82803222718E+02 0.  0.
          6    2    1    2  501    0 -0.47361173668E+02  0.59750051728E+02  0.15799966501E+03  0.24460184125E+03  0.17044945629E+03 0.  0.
         24    2    5    5    0    0 -0.84060999731E+02  0.83208908312E+02  0.12751763252E+03  0.19123106751E+03  0.79489624977E+02 0.  0.
          5    1    5    5  501    0  0.36699826063E+02 -0.23458856584E+02  0.30482032491E+02  0.53370773744E+02  0.47000000000E+01 0. -1.
        -11    1    6    6    0    0 -0.16549514627E+02 -0.45967885924E+01  0.57936728827E+02  0.60429144019E+02  0.00000000000E+00 0.  1.
         12    1    6    6    0    0 -0.67511485104E+02  0.87805696904E+02  0.69580903691E+02  0.13080192349E+03  0.00000000000E+00 0. -1.
         -5    1    3    3    0  503  0.72398343982E+02  0.86433956898E+01 -0.21637839182E+02  0.76200489400E+02  0.47000000000E+01 0.  1.
         13    1    4    4    0    0 -0.36288084309E+01 -0.26050376052E+02 -0.29132959637E+02  0.39249454522E+02  0.00000000000E+00 0. -1.
        -14    1    4    4    0    0 -0.21408361884E+02 -0.42343071366E+02  0.57631048635E+02  0.74649791815E+02  0.00000000000E+00 0.  1.
</event>
<event>
12    1  0.8493057E-002  0.1971088E+03  0.7818608E-02  0.1158177E+00
         21   -1    0    0  501  502  0.00000000000E+00  0.00000000000E+00  0.21411389950E+03  0.21411389950E+03  0.00000000000E+00 0. -1.
         21   -1    0    0  502  503 -0.00000000000E+00 -0.00000000000E+00 -0.15978220613E+03  0.15978220613E+03  0.00000000000E+00 0.  1.
         -6    2    1    2    0  503  0.25655529816E+02  0.32849184317E+02  0.42108594398E+02  0.17640871981E+03  0.16616145035E+03 0.  0.
        -24    2    3    3    0    0  0.95680860232E+01 -0.28890979770E+02  0.66615378104E+02  0.10790086510E+03  0.79238570835E+02 0.  0.
          6    2    1    2  501    0 -0.25655529816E+02 -0.32849184317E+02  0.12223098974E+02  0.19748738581E+03  0.19265146842E+03 0.  0.
         24    2    5    5    0    0  0.38090521461E+02  0.41238685151E+02 -0.11146777653E+02  0.96885136388E+02  0.78172642419E+02 0.  0.
          5    1    5    5  501    0 -0.63746051277E+02 -0.74087869468E+02  0.23369876627E+02  0.10060224942E+03  0.47000000000E+01 0. -1.
        -13    1    6    6    0    0 -0.77534581176E+00  0.19297761351E+02 -0.39528159135E+02  0.43994091864E+02  0.00000000000E+00 0.  1.
         14    1    6    6    0    0  0.38865867273E+02  0.21940923799E+02  0.28381381482E+02  0.52891044524E+02  0.00000000000E+00 0. -1.
         -5    1    3    3    0  503  0.16087443793E+02  0.61740164087E+02 -0.24506783706E+02  0.68507854709E+02  0.47000000000E+01 0.  1.
         13    1    4    4    0    0  0.12115220084E+02  0.26206113485E+02  0.30360953867E+02  0.41896616348E+02  0.00000000000E+00 0. -1.
        -14    1    4    4    0    0 -0.25471340606E+01 -0.55097093255E+02  0.36254424237E+02  0.66004248756E+02  0.00000000000E+00 0.  1.
</event>
<event>
12    1  0.8493057E-002  0.1849868E+03  0.7818608E-02  0.1163093E+00
         21   -1    0    0  501  502  0.00000000000E+00  0.00000000000E+00  0.14229926380E+03  0.14229926380E+03  0.00000000000E+00 0. -1.
         21   -1    0    0  502  503 -0.00000000000E+00 -0.00000000000E+00 -0.38367312650E+03  0.38367312650E+03  0.00000000000E+00 0.  1.
         -6    2    1    2    0  503 -0.67930126709E+02 -0.77751253580E+01 -0.28147389043E+03  0.33681993818E+03  0.17188707069E+03 0.  0.
        -24    2    3    3    0    0 -0.91175125085E+02 -0.18965878852E+02 -0.28516184456E+03  0.31033873883E+03  0.79499982583E+02 0.  0.
          6    2    1    2  501    0  0.67930126709E+02  0.77751253580E+01  0.40100027729E+02  0.18915245212E+03  0.17174307331E+03 0.  0.
         24    2    5    5    0    0 -0.36436540006E+02 -0.22888635619E+02  0.19228321344E+02  0.78290441104E+02  0.62515228052E+02 0.  0.
          5    1    5    5  501    0  0.10436666672E+03  0.30663760977E+02  0.20871706384E+02  0.11086201101E+03  0.47000000000E+01 0. -1.
        -13    1    6    6    0    0 -0.31656571163E+02  0.54010992232E+01 -0.13439117464E+02  0.34812644956E+02  0.00000000000E+00 0.  1.
         14    1    6    6    0    0 -0.47799688438E+01 -0.28289734843E+02  0.32667438809E+02  0.43477796148E+02  0.00000000000E+00 0. -1.
         -5    1    3    3    0  503  0.23244998376E+02  0.11190753494E+02  0.36879541303E+01  0.26481199349E+02  0.47000000000E+01 0.  1.
         13    1    4    4    0    0 -0.51763106263E+02 -0.49466326501E+02 -0.14812841087E+03  0.16452465692E+03  0.00000000000E+00 0. -1.
        -14    1    4    4    0    0 -0.39412018822E+02  0.30500447649E+02 -0.13703343370E+03  0.14581408192E+03  0.00000000000E+00 0.  1.
</event>
<event>
12    1  0.8493057E-002  0.1780543E+03  0.7818608E-02  0.1170519E+00
         21   -1    0    0  503  502  0.00000000000E+00  0.00000000000E+00  0.12316811947E+03  0.12316811947E+03  0.00000000000E+00 0.  1.
         21   -1    0    0  501  503 -0.00000000000E+00 -0.00000000000E+00 -0.25380678166E+03  0.25380678166E+03  0.00000000000E+00 0.  1.
          6    2    1    2  501    0 -0.37520009436E+02  0.47775437383E+01 -0.53172331737E+02  0.18582421189E+03  0.17399070329E+03 0.  0.
         24    2    3    3    0    0  0.15520597791E+02  0.44996033658E+02 -0.71156055483E+02  0.11671316164E+03  0.79329980891E+02 0.  0.
         -6    2    1    2    0  502  0.37520009436E+02 -0.47775437383E+01 -0.77466330456E+02  0.19115068924E+03  0.17060767161E+03 0.  0.
        -24    2    5    5    0    0 -0.36027668279E+02 -0.22719248564E+02 -0.60310162094E+02  0.11338443832E+03  0.86049741808E+02 0.  0.
          5    1    3    3  501    0 -0.53040607227E+02 -0.40218489919E+02  0.17983723745E+02  0.69111050247E+02  0.47000000000E+01 0. -1.
        -13    1    4    4    0    0  0.10483625397E+01  0.19604560922E+02 -0.82916828957E+02  0.85209379749E+02  0.00000000000E+00 0.  1.
         14    1    4    4    0    0  0.14472235252E+02  0.25391472736E+02  0.11760773475E+02  0.31503781894E+02  0.00000000000E+00 0. -1.
         -5    1    5    5    0  502  0.73547677715E+02  0.17941704826E+02 -0.17156168362E+02  0.77766250920E+02  0.47000000000E+01 0.  1.
         11    1    6    6    0    0 -0.11529507261E+02 -0.46647405851E+02 -0.62770863361E+02  0.79051194156E+02  0.00000000000E+00 0. -1.
        -12    1    6    6    0    0 -0.24498161018E+02  0.23928157286E+02  0.24607012675E+01  0.34333244168E+02  0.00000000000E+00 0.  1.
</event>
<event>
12    1  0.8493057E-002  0.1988172E+03  0.7818608E-02  0.1150801E+00
         21   -1    0    0  503  502  0.00000000000E+00  0.00000000000E+00  0.28386056916E+03  0.28386056916E+03  0.00000000000E+00 0.  1.
         21   -1    0    0  501  503 -0.00000000000E+00 -0.00000000000E+00 -0.14025056229E+03  0.14025056229E+03  0.00000000000E+00 0.  1.
          6    2    1    2  501    0  0.15642055140E+02 -0.97362282386E+02  0.91442096764E+02  0.21883771917E+03  0.17263893638E+03 0.  0.
         24    2    3    3    0    0  0.21677282570E+02 -0.13453092649E+02 -0.21945415062E+02  0.77572033566E+02  0.69892266152E+02 0.  0.
         -6    2    1    2    0  502 -0.15642055140E+02  0.97362282386E+02  0.52167910102E+02  0.20527341228E+03  0.17231249236E+03 0.  0.
        -24    2    5    5    0    0 -0.57235468620E+02  0.11655547980E+03  0.44792269931E+02  0.15863779349E+03  0.79363236685E+02 0.  0.
          5    1    3    3  501    0 -0.60352274296E+01 -0.83909189737E+02  0.11338751183E+03  0.14126568561E+03  0.47000000000E+01 0. -1.
        -11    1    4    4    0    0  0.42707948948E+02 -0.23437889741E+02 -0.54085055318E+01  0.49015869991E+02  0.00000000000E+00 0.  1.
         12    1    4    4    0    0 -0.21030666379E+02  0.99847970920E+01 -0.16536909530E+02  0.28556163575E+02  0.00000000000E+00 0. -1.
         -5    1    5    5    0  502  0.41593413480E+02 -0.19193197417E+02  0.73756401712E+01  0.46635618790E+02  0.47000000000E+01 0.  1.
         13    1    6    6    0    0 -0.27496909086E+02 -0.16743735022E+01 -0.29605494952E+01  0.27706468364E+02  0.00000000000E+00 0. -1.
        -14    1    6    6    0    0 -0.29738559534E+02  0.11822985330E+03  0.47752819426E+02  0.13093132512E+03  0.00000000000E+00 0.  1.
</event>
<event>
12    1  0.8493057E-002  0.1936931E+03  0.7818608E-02  0.1155289E+00
         21   -1    0    0  503  502  0.00000000000E+00  0.00000000000E+00  0.83548206462E+03  0.83548206462E+03  0.00000000000E+00 0.  1.
         21   -1    0    0  501  503 -0.00000000000E+00 -0.00000000000E+00 -0.72936012680E+02  0.72936012680E+02  0.00000000000E+00 0.  1.
          6    2    1    2  501    0  0.51564275654E+02  0.73619644818E+02  0.99393531873E+02  0.21770644336E+03  0.17157591519E+03 0.  0.
         24    2    3    3    0    0  0.39634004717E+02  0.87181281429E+02  0.10330587974E+02  0.12670893060E+03  0.82322547850E+02 0.  0.
         -6    2    1    2    0  502 -0.51564275654E+02 -0.73619644818E+02  0.66315252007E+03  0.69071163394E+03  0.17097534841E+03 0.  0.
        -24    2    5    5    0    0  0.24313243940E+01 -0.91084016663E+02  0.56266447758E+03  0.57521069978E+03  0.77290525850E+02 0.  0.
          5    1    3    3  501    0  0.11930270936E+02 -0.13561636611E+02  0.89062943899E+02  0.90997512758E+02  0.47000000000E+01 0. -1.
        -11    1    4    4    0    0  0.19239212440E+02 -0.12903300446E+02 -0.41872052099E+01  0.23540924900E+02  0.00000000000E+00 0.  1.
         12    1    4    4    0    0  0.20394792278E+02  0.10008458188E+03  0.14517793183E+02  0.10316800570E+03  0.00000000000E+00 0. -1.
         -5    1    5    5    0  502 -0.53995600048E+02  0.17464371845E+02  0.10048804249E+03  0.11550093416E+03  0.47000000000E+01 0.  1.
         13    1    6    6    0    0  0.81665070239E+01 -0.44259202382E+02  0.94441531325E+02  0.10461726278E+03  0.00000000000E+00 0. -1.
        -14    1    6    6    0    0 -0.57351826299E+01 -0.46824814281E+02  0.46822294625E+03  0.47059343700E+03  0.00000000000E+00 0.  1.
</event>
<event>
12    1  0.8493057E-002  0.1848435E+03  0.7818608E-02  0.1163713E+00
         21   -1    0    0  503  502  0.00000000000E+00  0.00000000000E+00  0.91501600853E+02  0.91501600853E+02  0.00000000000E+00 0.  1.
         21   -1    0    0  501  503 -0.00000000000E+00 -0.00000000000E+00 -0.45420935847E+03  0.45420935847E+03  0.00000000000E+00 0. -1.
          6    2    1    2  501    0 -0.65859674973E+02 -0.70109028285E+01 -0.64041317706E+02  0.19562316578E+03  0.17257022649E+03 0.  0.
         24    2    3    3    0    0 -0.78789742848E+02  0.29084397304E+02  0.51950585672E+01  0.11633998253E+03  0.80338516020E+02 0.  0.
         -6    2    1    2    0  502  0.65859674973E+02  0.70109028285E+01 -0.29866643992E+03  0.35008779355E+03  0.17021507370E+03 0.  0.
        -24    2    5    5    0    0  0.14471513624E+02 -0.30677001698E+02 -0.26499515296E+03  0.27785921998E+03  0.76372847902E+02 0.  0.
          5    1    3    3  501    0  0.12930067875E+02 -0.36095300132E+02 -0.69236376274E+02  0.79283183251E+02  0.47000000000E+01 0. -1.
        -11    1    4    4    0    0 -0.75882671226E+01  0.40901232886E+02  0.13389421268E+02  0.43700906757E+02  0.00000000000E+00 0.  1.
         12    1    4    4    0    0 -0.71201475725E+02 -0.11816835582E+02 -0.81943627004E+01  0.72639075770E+02  0.00000000000E+00 0. -1.
         -5    1    5    5    0  502  0.51388161349E+02  0.37687904527E+02 -0.33671286952E+02  0.72228573567E+02  0.47000000000E+01 0.  1.
         11    1    6    6    0    0  0.51906598171E+00 -0.95897880602E+01 -0.24611646901E+03  0.24630377542E+03  0.00000000000E+00 0. -1.
        -12    1    6    6    0    0  0.13952447642E+02 -0.21087213638E+02 -0.18878683949E+02  0.31555444567E+02  0.00000000000E+00 0.  1.
</event>
<event>
12    1  0.8493057E-002  0.1914899E+03  0.7818608E-02  0.1157490E+00
         21   -1    0    0  503  502  0.00000000000E+00  0.00000000000E+00  0.35516501289E+03  0.35516501289E+03  0.00000000000E+00 0.  1.
         21   -1    0    0  501  503 -0.00000000000E+00 -0.00000000000E+00 -0.11963870961E+03  0.11963870961E+03  0.00000000000E+00 0.  1.
          6    2    1    2  501    0 -0.79661972099E+02  0.29637628808E+02  0.27992067029E+02  0.19352499048E+03  0.17159238702E+03 0.  0.
         24    2    3    3    0    0 -0.88819524888E+02 -0.16169396833E+01 -0.33240093611E+02  0.12401113343E+03  0.79889516816E+02 0.  0.
         -6    2    1    2    0  502  0.79661972099E+02 -0.29637628808E+02  0.20753423625E+03  0.28127873202E+03  0.16977292784E+03 0.  0.
        -24    2    5    5    0    0  0.23177553796E+02  0.43343191070E+02  0.13266573592E+03  0.16234987966E+03  0.79633251384E+02 0.  0.
          5    1    3    3  501    0  0.91575527892E+01  0.31254568492E+02  0.61232160640E+02  0.69513857045E+02  0.47000000000E+01 0. -1.
        -13    1    4    4    0    0 -0.76011419670E+02  0.17612974221E+02  0.62322167396E+01  0.78273835390E+02  0.00000000000E+00 0.  1.
         14    1    4    4    0    0 -0.12808105219E+02 -0.19229913904E+02 -0.39472310351E+02  0.45737298045E+02  0.00000000000E+00 0. -1.
         -5    1    5    5    0  502  0.56484418303E+02 -0.72980819879E+02  0.74868500335E+02  0.11892885236E+03  0.47000000000E+01 0.  1.
         13    1    6    6    0    0 -0.82118282695E+01  0.11303543693E+02 -0.70224910768E+01  0.15637122641E+02  0.00000000000E+00 0. -1.
        -14    1    6    6    0    0  0.31389382065E+02  0.32039647377E+02  0.13968822699E+03  0.14671275702E+03  0.00000000000E+00 0.  1.
</event>
<event>
12    1  0.8493057E-002  0.1932118E+03  0.7818608E-02  0.1157656E+00
         21   -1    0    0  501  502  0.00000000000E+00  0.00000000000E+00  0.33144263044E+03  0.33144263044E+03  0.00000000000E+00 0. -1.
         21   -1    0    0  502  503 -0.00000000000E+00 -0.00000000000E+00 -0.13748878282E+03  0.13748878282E+03  0.00000000000E+00 0. -1.
         -6    2    1    2    0  503 -0.53841103626E+02  0.35123146954E+02 -0.14528010268E+02  0.18468595514E+03  0.17252634307E+03 0.  0.
        -24    2    3    3    0    0 -0.16102244930E+01 -0.24667464792E+02 -0.49405177120E+02  0.97844209672E+02  0.80756059821E+02 0.  0.
          6    2    1    2  501    0  0.53841103626E+02 -0.35123146954E+02  0.20848185789E+03  0.28424545812E+03  0.18220399420E+03 0.  0.
         24    2    5    5    0    0 -0.12509978720E+02 -0.39088460431E+02  0.19734595136E+03  0.21668594174E+03  0.79517076926E+02 0.  0.
          5    1    5    5  501    0  0.66351082346E+02  0.39653134762E+01  0.11135906526E+02  0.67559516381E+02  0.47000000000E+01 0. -1.
        -13    1    6    6    0    0 -0.27042200296E+02  0.99456112426E+01  0.12378319718E+03  0.12709239035E+03  0.00000000000E+00 0.  1.
         14    1    6    6    0    0  0.14532221575E+02 -0.49034071673E+02  0.73562754185E+02  0.89593551398E+02  0.00000000000E+00 0. -1.
         -5    1    3    3    0  503 -0.52230879133E+02  0.59790611747E+02  0.34877166852E+02  0.86841745467E+02  0.47000000000E+01 0.  1.
         13    1    4    4    0    0  0.48183618784E+01 -0.49364334342E+02 -0.95365218810E+01  0.50507418918E+02  0.00000000000E+00 0. -1.
        -14    1    4    4    0    0 -0.64285863713E+01  0.24696869550E+02 -0.39868655239E+02  0.47336790754E+02  0.00000000000E+00 0.  1.
</event>
<event>
12    1  0.8493057E-002  0.2142111E+03  0.7818608E-02  0.1138296E+00
         21   -1    0    0  503  502  0.00000000000E+00  0.00000000000E+00  0.83270555255E+02  0.83270555255E+02  0.00000000000E+00 0.  1.
         21   -1    0    0  501  503 -0.00000000000E+00 -0.00000000000E+00 -0.61820995793E+03  0.61820995793E+03  0.00000000000E+00 0.  1.
          6    2    1    2  501    0 -0.12723269589E+03 -0.26795102124E+02 -0.38339191622E+03  0.43917620695E+03  0.17023584502E+03 0.  0.
         24    2    3    3    0    0 -0.13498460065E+03  0.20984344150E+02 -0.33390864022E+03  0.36979571894E+03  0.81195496292E+02 0.  0.
         -6    2    1    2    0  502  0.12723269589E+03  0.26795102124E+02 -0.15154748646E+03  0.26230430624E+03  0.17009048185E+03 0.  0.
        -24    2    5    5    0    0  0.86893832035E+02  0.71393010682E+02 -0.55652810698E+02  0.14901672428E+03  0.80381893221E+02 0.  0.
          5    1    3    3  501    0  0.77519047553E+01 -0.47779446273E+02 -0.49483275991E+02  0.69380488009E+02  0.47000000000E+01 0. -1.
        -11    1    4    4    0    0 -0.10097657345E+03 -0.27214073816E+01 -0.29899478225E+03  0.31559713917E+03  0.00000000000E+00 0.  1.
         12    1    4    4    0    0 -0.34008027204E+02  0.23705751531E+02 -0.34913857977E+02  0.54198579767E+02  0.00000000000E+00 0. -1.
         -5    1    5    5    0  502  0.40338863858E+02 -0.44597908558E+02 -0.95894675764E+02  0.11328758195E+03  0.47000000000E+01 0.  1.
         13    1    6    6    0    0  0.26039806619E+01  0.45976489252E+02 -0.36882546275E+02  0.58999495752E+02  0.00000000000E+00 0. -1.
        -14    1    6    6    0    0  0.84289851373E+02  0.25416521430E+02 -0.18770264422E+02  0.90017228532E+02  0.00000000000E+00 0.  1.
</event>
<event>
12    1  0.8493057E-002  0.1819232E+03  0.7818608E-02  0.1166898E+00
         21   -1    0    0  501  502  0.00000000000E+00  0.00000000000E+00  0.37848110168E+03  0.37848110168E+03  0.00000000000E+00 0. -1.
         21   -1    0    0  502  503 -0.00000000000E+00 -0.00000000000E+00 -0.13606118638E+03  0.13606118638E+03  0.00000000000E+00 0. -1.
         -6    2    1    2    0  503 -0.47938619887E+02  0.22602077977E+02 -0.36324100112E+02  0.18168451901E+03  0.16994369360E+03 0.  0.
        -24    2    3    3    0    0 -0.18543398356E+02  0.37493999795E+01 -0.88167615482E+02  0.11900005042E+03  0.77650292704E+02 0.  0.
          6    2    1    2  501    0  0.47938619887E+02 -0.22602077977E+02  0.27874401541E+03  0.33285776905E+03  0.17403190249E+03 0.  0.
         24    2    5    5    0    0  0.47598438727E+02  0.35346284551E+02  0.24886638059E+03  0.26749041095E+03  0.78113208613E+02 0.  0.
          5    1    5    5  501    0  0.34018116030E+00 -0.57948362528E+02  0.29877634820E+02  0.65367358102E+02  0.47000000000E+01 0. -1.
        -11    1    6    6    0    0 -0.17167359786E+01 -0.12551505954E+02  0.41959480056E+01  0.13345166308E+02  0.00000000000E+00 0.  1.
         12    1    6    6    0    0  0.49315174705E+02  0.47897790504E+02  0.24467043258E+03  0.25414524464E+03  0.00000000000E+00 0. -1.
         -5    1    3    3    0  503 -0.29395221531E+02  0.18852677997E+02  0.51843515370E+02  0.62684468590E+02  0.47000000000E+01 0.  1.
         11    1    4    4    0    0  0.15474954917E+02  0.23872635507E+02 -0.78954227954E+01  0.29524814256E+02  0.00000000000E+00 0. -1.
        -12    1    4    4    0    0 -0.34018353273E+02 -0.20123235528E+02 -0.80272192687E+02  0.89475236162E+02  0.00000000000E+00 0.  1.
</event>
<event>
12    1  0.8493057E-002  0.1863910E+03  0.7818608E-02  0.1162370E+00
         21   -1    0    0  501  502  0.00000000000E+00  0.00000000000E+00  0.10321309936E+03  0.10321309936E+03  0.00000000000E+00 0. -1.
         21   -1    0    0  502  503 -0.00000000000E+00 -0.00000000000E+00 -0.37629354257E+03  0.37629354257E+03  0.00000000000E+00 0. -1.
         -6    2    1    2    0  503  0.24501796955E+01 -0.73079366433E+02 -0.21977216192E+03  0.28816906268E+03  0.17144972544E+03 0.  0.
        -24    2    3    3    0    0  0.68060204391E+02 -0.45102065330E+02 -0.14721919792E+03  0.18631903911E+03  0.79842998306E+02 0.  0.
          6    2    1    2  501    0 -0.24501796955E+01  0.73079366433E+02 -0.53308281297E+02  0.19133757924E+03  0.16858736369E+03 0.  0.
         24    2    5    5    0    0  0.44800506422E+02  0.45063921731E+02 -0.80066743885E+02  0.13005464687E+03  0.80409485001E+02 0.  0.
          5    1    5    5  501    0 -0.47250686118E+02  0.28015444702E+02  0.26758462588E+02  0.61282932375E+02  0.47000000000E+01 0. -1.
        -13    1    6    6    0    0  0.16916988220E+01 -0.17329257269E+02  0.28985784139E+01  0.17651253758E+02  0.00000000000E+00 0.  1.
         14    1    6    6    0    0  0.43108807600E+02  0.62393179000E+02 -0.82965322299E+02  0.11240339311E+03  0.00000000000E+00 0. -1.
         -5    1    3    3    0  503 -0.65610024696E+02 -0.27977301103E+02 -0.72552963997E+02  0.10185002358E+03  0.47000000000E+01 0.  1.
         13    1    4    4    0    0 -0.30328882580E+01  0.14786147047E+02 -0.48183369241E+02  0.50492233335E+02  0.00000000000E+00 0. -1.
        -14    1    4    4    0    0  0.71093092649E+02 -0.59888212377E+02 -0.99035828681E+02  0.13582680577E+03  0.00000000000E+00 0.  1.
</event>
<event>
12    1  0.8493057E-002  0.3306607E+03  0.7818608E-02  0.1070905E+00
         21   -1    0    0  503  502  0.00000000000E+00  0.00000000000E+00  0.31068155562E+03  0.31068155562E+03  0.00000000000E+00 0. -1.
         21   -1    0    0  501  503 -0.00000000000E+00 -0.00000000000E+00 -0.41233515765E+03  0.41233515765E+03  0.00000000000E+00 0. -1.
          6    2    1    2  501    0 -0.16513361687E+03 -0.22819306342E+03 -0.18989198865E+03  0.38130759226E+03  0.17319159028E+03 0.  0.
         24    2    3    3    0    0 -0.18557697699E+02 -0.82553127933E+02 -0.10887323228E+03  0.15931295319E+03  0.79798679632E+02 0.  0.
         -6    2    1    2    0  502  0.16513361687E+03  0.22819306342E+03  0.88238386622E+02  0.34170912101E+03  0.17215668703E+03 0.  0.
        -24    2    5    5    0    0  0.18864071342E+03  0.19586126362E+03  0.99285555170E+02  0.29997114311E+03  0.78600966197E+02 0.  0.
          5    1    3    3  501    0 -0.14657591918E+03 -0.14563993549E+03 -0.81018756371E+02  0.22199463907E+03  0.47000000000E+01 0. -1.
        -11    1    4    4    0    0 -0.12342433405E+02 -0.34932336103E+02  0.33953922672E+01  0.37203930661E+02  0.00000000000E+00 0.  1.
         12    1    4    4    0    0 -0.62152642939E+01 -0.47620791830E+02 -0.11226862455E+03  0.12210902253E+03  0.00000000000E+00 0. -1.
         -5    1    5    5    0  502 -0.23507096540E+02  0.32331799799E+02 -0.11047168548E+02  0.41737977897E+02  0.47000000000E+01 0.  1.
         13    1    6    6    0    0  0.27026829203E+02  0.68678937249E+02  0.57071940674E+01  0.74025792685E+02  0.00000000000E+00 0. -1.
        -14    1    6    6    0    0  0.16161388421E+03  0.12718232637E+03  0.93578361103E+02  0.22594535042E+03  0.00000000000E+00 0.  1.
</event>
<event>
12    1  0.8493057E-002  0.1729353E+03  0.7818608E-02  0.1175158E+00
         21   -1    0    0  503  502  0.00000000000E+00  0.00000000000E+00  0.23137719103E+03  0.23137719103E+03  0.00000000000E+00 0. -1.
         21   -1    0    0  501  503 -0.00000000000E+00 -0.00000000000E+00 -0.38693966230E+03  0.38693966230E+03  0.00000000000E+00 0. -1.
          6    2    1    2  501    0 -0.32870527459E+01 -0.69227918152E+01 -0.33065212588E+03  0.37314533810E+03  0.17276540521E+03 0.  0.
         24    2    3    3    0    0 -0.88923446653E+01 -0.66876226163E+02 -0.19219466798E+03  0.22208776220E+03  0.88502431052E+02 0.  0.
         -6    2    1    2    0  502  0.32870527459E+01  0.69227918152E+01  0.17508965461E+03  0.24517151523E+03  0.17144665342E+03 0.  0.
        -24    2    5    5    0    0  0.37263113287E+02 -0.44997716306E+02  0.69271834693E+02  0.12241316372E+03  0.82298611691E+02 0.  0.
          5    1    3    3  501    0  0.56052919195E+01  0.59953434348E+02 -0.13845745790E+03  0.15105757590E+03  0.47000000000E+01 0. -1.
        -13    1    4    4    0    0  0.71682179467E+01 -0.34855729644E+02 -0.10797442921E+02  0.37187229141E+02  0.00000000000E+00 0.  1.
         14    1    4    4    0    0 -0.16060562612E+02 -0.32020496520E+02 -0.18139722506E+03  0.18490053306E+03  0.00000000000E+00 0. -1.
         -5    1    5    5    0  502 -0.33976060541E+02  0.51920508121E+02  0.10581781992E+03  0.12275835151E+03  0.47000000000E+01 0.  1.
         11    1    6    6    0    0  0.18057516760E+02 -0.46536637325E+02  0.84305184683E+02  0.97974979916E+02  0.00000000000E+00 0. -1.
        -12    1    6    6    0    0  0.19205596527E+02  0.15389210185E+01 -0.15033349990E+02  0.24438183807E+02  0.00000000000E+00 0.  1.
</event>
<event>
12    1  0.8493057E-002  0.1744987E+03  0.7818608E-02  0.1173458E+00
         21   -1    0    0  501  502  0.00000000000E+00  0.00000000000E+00  0.23587573259E+03  0.23587573259E+03  0.00000000000E+00 0.  1.
         21   -1    0    0  502  503 -0.00000000000E+00 -0.00000000000E+00 -0.30908277705E+03  0.30908277705E+03  0.00000000000E+00 0.  1.
         -6    2    1    2    0  503  0.20611375280E+02  0.20375653700E+02 -0.24494855839E+03  0.30074840063E+03  0.17207500740E+03 0.  0.
        -24    2    3    3    0    0  0.73367959927E+02  0.40300397584E+02 -0.15093887880E+03  0.19102072637E+03  0.81849820891E+02 0.  0.
          6    2    1    2  501    0 -0.20611375280E+02 -0.20375653700E+02  0.17174151393E+03  0.24421010901E+03  0.17118245727E+03 0.  0.
         24    2    5    5    0    0 -0.51592585310E+02  0.28667417039E+02  0.46243330903E+02  0.10587377211E+03  0.74747537139E+02 0.  0.
          5    1    5    5  501    0  0.30981210030E+02 -0.49043070739E+02  0.12549818303E+03  0.13833633690E+03  0.47000000000E+01 0. -1.
        -13    1    6    6    0    0 -0.33851941791E+02 -0.13717313251E+02  0.47486772176E+02  0.59909199440E+02  0.00000000000E+00 0.  1.
         14    1    6    6    0    0 -0.17740643519E+02  0.42384730290E+02 -0.12434412722E+01  0.45964572667E+02  0.00000000000E+00 0. -1.
         -5    1    3    3    0  503 -0.52756584646E+02 -0.19924743884E+02 -0.94009679596E+02  0.10972767427E+03  0.47000000000E+01 0.  1.
         13    1    4    4    0    0  0.57365648723E+02 -0.12144921482E+02 -0.54340982908E+02  0.79945351301E+02  0.00000000000E+00 0. -1.
        -14    1    4    4    0    0  0.16002311204E+02  0.52445319066E+02 -0.96597895889E+02  0.11107537507E+03  0.00000000000E+00 0.  1.
</event>
<event>
12    1  0.8493057E-002  0.2281723E+03  0.7818608E-02  0.1127937E+00
         21   -1    0    0  503  502  0.00000000000E+00  0.00000000000E+00  0.18943857488E+04  0.18943857488E+04  0.00000000000E+00 0. -1.
         21   -1    0    0  501  503 -0.00000000000E+00 -0.00000000000E+00 -0.29520755040E+02  0.29520755040E+02  0.00000000000E+00 0.  1.
          6    2    1    2  501    0 -0.13163453122E+03 -0.70471232100E+02  0.67954843804E+03  0.71683239303E+03  0.17253624458E+03 0.  0.
         24    2    3    3    0    0 -0.86864493796E+02 -0.11126688541E+03  0.42232950823E+03  0.45253651824E+03  0.80630805199E+02 0.  0.
         -6    2    1    2    0  502  0.13163453122E+03  0.70471232100E+02  0.11853165557E+04  0.12070741108E+04  0.17250718060E+03 0.  0.
        -24    2    5    5    0    0  0.29563019225E+00  0.22633610147E+02  0.57938800203E+03  0.58521412080E+03  0.79200647618E+02 0.  0.
          5    1    3    3  501    0 -0.44770037421E+02  0.40795653308E+02  0.25721892981E+03  0.26429587479E+03  0.47000000000E+01 0. -1.
        -13    1    4    4    0    0 -0.81132717249E+02 -0.43215938893E+02  0.20351203811E+03  0.22330984044E+03  0.00000000000E+00 0.  1.
         14    1    4    4    0    0 -0.57317765470E+01 -0.68050946515E+02  0.21881747012E+03  0.22922667780E+03  0.00000000000E+00 0. -1.
         -5    1    5    5    0  502  0.13133890103E+03  0.47837621953E+02  0.60592855370E+03  0.62185999002E+03  0.47000000000E+01 0.  1.
         11    1    6    6    0    0 -0.32122599527E+02 -0.82994244351E+01  0.15770397688E+03  0.16115609256E+03  0.00000000000E+00 0. -1.
        -12    1    6    6    0    0  0.32418229719E+02  0.30933034582E+02  0.42168402515E+03  0.42405802824E+03  0.00000000000E+00 0.  1.
</event>
<event>
12    1  0.8493057E-002  0.2475677E+03  0.7818608E-02  0.1116558E+00
         21   -1    0    0  501  502  0.00000000000E+00  0.00000000000E+00  0.52454273207E+03  0.52454273207E+03  0.00000000000E+00 0. -1.
         21   -1    0    0  502  503 -0.00000000000E+00 -0.00000000000E+00 -0.21283582012E+03  0.21283582012E+03  0.00000000000E+00 0.  1.
         -6    2    1    2    0  503  0.14634070435E+03 -0.77275334552E+02 -0.99681514623E+02  0.25724296504E+03  0.16985423052E+03 0.  0.
        -24    2    3    3    0    0  0.11331164773E+03 -0.11459233742E+03 -0.10100854483E+03  0.20716973573E+03  0.82131845037E+02 0.  0.
          6    2    1    2  501    0 -0.14634070435E+03  0.77275334552E+02  0.41138842657E+03  0.48013558715E+03  0.18412676462E+03 0.  0.
         24    2    5    5    0    0 -0.13985528037E+03  0.91252311462E+02  0.21614558106E+03  0.28422929493E+03  0.78618675198E+02 0.  0.
          5    1    5    5  501    0 -0.64854239805E+01 -0.13976976910E+02  0.19524284551E+03  0.19590629222E+03  0.47000000000E+01 0. -1.
        -13    1    6    6    0    0 -0.32459107963E+02  0.30820973110E+02  0.12968076735E+02  0.46601470872E+02  0.00000000000E+00 0.  1.
         14    1    6    6    0    0 -0.10739617241E+03  0.60431338352E+02  0.20317750433E+03  0.23762782406E+03  0.00000000000E+00 0. -1.
         -5    1    3    3    0  503  0.33029056628E+02  0.37317002865E+02  0.13270302078E+01  0.50073229312E+02  0.47000000000E+01 0.  1.
         11    1    4    4    0    0  0.24399155452E+02  0.11432856159E+00  0.79804615963E+01  0.25671377546E+02  0.00000000000E+00 0. -1.
        -12    1    4    4    0    0  0.88912492275E+02 -0.11470666598E+03 -0.10898900643E+03  0.18149835819E+03  0.00000000000E+00 0.  1.
</event>
<event>
12    1  0.8493057E-002  0.3642950E+03  0.7818608E-02  0.1056981E+00
         21   -1    0    0  501  502  0.00000000000E+00  0.00000000000E+00  0.36591879995E+03  0.36591879995E+03  0.00000000000E+00 0. -1.
         21   -1    0    0  502  503 -0.00000000000E+00 -0.00000000000E+00 -0.52131248014E+03  0.52131248014E+03  0.00000000000E+00 0.  1.
         -6    2    1    2    0  503 -0.67624383429E+02  0.31355734057E+03 -0.32301401211E+03  0.48622323847E+03  0.17083243998E+03 0.  0.
        -24    2    3    3    0    0 -0.10196231303E+03  0.25624663993E+03 -0.21565865190E+03  0.35968915934E+03  0.82516564703E+02 0.  0.
          6    2    1    2  501    0  0.67624383429E+02 -0.31355734057E+03  0.16762033192E+03  0.40100804162E+03  0.17268355657E+03 0.  0.
         24    2    5    5    0    0 -0.30212877004E+02 -0.18410546963E+03  0.96249871362E+02  0.22367854870E+03  0.77203714462E+02 0.  0.
          5    1    5    5  501    0  0.97837260433E+02 -0.12945187094E+03  0.71370460559E+02  0.17732949292E+03  0.47000000000E+01 0. -1.
        -11    1    6    6    0    0 -0.19920766388E+02 -0.26235215181E+01  0.11006448362E+02  0.22909860414E+02  0.00000000000E+00 0.  1.
         12    1    6    6    0    0 -0.10292110616E+02 -0.18148194811E+03  0.85243423000E+02  0.20076868828E+03  0.00000000000E+00 0. -1.
         -5    1    3    3    0  503  0.34337929605E+02  0.57310700643E+02 -0.10735536020E+03  0.12653407913E+03  0.47000000000E+01 0.  1.
         11    1    4    4    0    0 -0.35257544242E+02  0.41171691724E+02 -0.10810961334E+02  0.55272773680E+02  0.00000000000E+00 0. -1.
        -12    1    4    4    0    0 -0.66704768791E+02  0.21507494821E+03 -0.20484769057E+03  0.30441638566E+03  0.00000000000E+00 0.  1.
</event>
<event>
12    1  0.8493057E-002  0.1761790E+03  0.7818608E-02  0.1171671E+00
         21   -1    0    0  503  502  0.00000000000E+00  0.00000000000E+00  0.79942339534E+03  0.79942339534E+03  0.00000000000E+00 0.  1.
         21   -1    0    0  501  503 -0.00000000000E+00 -0.00000000000E+00 -0.39318983114E+02  0.39318983114E+02  0.00000000000E+00 0.  1.
          6    2    1    2  501    0  0.22286554117E+02 -0.28758729031E+02  0.32789112341E+03  0.37200117323E+03  0.17189685594E+03 0.  0.
         24    2    3    3    0    0  0.37150201014E+02  0.70927588318E+01  0.32144624446E+03  0.33237941600E+03  0.75617084328E+02 0.  0.
         -6    2    1    2    0  502 -0.22286554117E+02  0.28758729031E+02  0.43221328882E+03  0.46674120523E+03  0.17238117831E+03 0.  0.
        -24    2    5    5    0    0 -0.26456000490E+02  0.40876447981E+02  0.17187049033E+03  0.20604082908E+03  0.10267693919E+03 0.  0.
          5    1    3    3  501    0 -0.14863646897E+02 -0.35851487863E+02  0.64448789514E+01  0.39621757227E+02  0.47000000000E+01 0. -1.
        -13    1    4    4    0    0 -0.19210866688E+01 -0.20070237651E+02  0.24898950572E+02  0.32038457406E+02  0.00000000000E+00 0.  1.
         14    1    4    4    0    0  0.39071287683E+02  0.27162996483E+02  0.29654729388E+03  0.30034095859E+03  0.00000000000E+00 0. -1.
         -5    1    5    5    0  502  0.41694463734E+01 -0.12117718950E+02  0.26034279850E+03  0.26070037615E+03  0.47000000000E+01 0.  1.
         11    1    6    6    0    0  0.20029003625E+02 -0.15161961748E+02  0.74203601418E+01  0.26193659823E+02  0.00000000000E+00 0. -1.
        -12    1    6    6    0    0 -0.46485004116E+02  0.56038409729E+02  0.16445013018E+03  0.17984716926E+03  0.00000000000E+00 0.  1.
</event>
<event>
12    1  0.8493057E-002  0.2002129E+03  0.7818608E-02  0.1149791E+00
         21   -1    0    0  503  502  0.00000000000E+00  0.00000000000E+00  0.81442463502E+03  0.81442463502E+03  0.00000000000E+00 0.  1.
         21   -1    0    0  501  503 -0.00000000000E+00 -0.00000000000E+00 -0.54898106639E+02  0.54898106639E+02  0.00000000000E+00 0.  1.
          6    2    1    2  501    0  0.10014476295E+03  0.55140065713E+01  0.52190459820E+03  0.55859879816E+03  0.17201403974E+03 0.  0.
         24    2    3    3    0    0  0.12922428797E+03  0.27118083541E+02  0.47318250426E+03  0.49770308932E+03  0.79827161576E+02 0.  0.
         -6    2    1    2    0  502 -0.10014476295E+03 -0.55140065713E+01  0.23762193019E+03  0.31072394350E+03  0.17327957049E+03 0.  0.
        -24    2    5    5    0    0 -0.48106895330E+02 -0.22841408877E+02  0.23716152310E+03  0.25567414322E+03  0.79294868281E+02 0.  0.
          5    1    3    3  501    0 -0.29079525020E+02 -0.21604076970E+02  0.48722093936E+02  0.60895708836E+02  0.47000000000E+01 0. -1.
        -13    1    4    4    0    0  0.73906117936E+02  0.22707471838E+01  0.13312830615E+03  0.15228399935E+03  0.00000000000E+00 0.  1.
         14    1    4    4    0    0  0.55318170029E+02  0.24847336358E+02  0.34005419812E+03  0.34541908997E+03  0.00000000000E+00 0. -1.
         -5    1    5    5    0  502 -0.52037867615E+02  0.17327402305E+02  0.46040708760E+00  0.55049800283E+02  0.47000000000E+01 0.  1.
         11    1    6    6    0    0  0.16800188318E+02  0.35165905645E+01  0.15225256627E+02  0.22943870120E+02  0.00000000000E+00 0. -1.
        -12    1    6    6    0    0 -0.64907083649E+02 -0.26357999441E+02  0.22193626647E+03  0.23273027310E+03  0.00000000000E+00 0.  1.
</event>
<event>
12    1  0.8493057E-002  0.1817988E+03  0.7818608E-02  0.1166805E+00
         21   -1    0    0  501  502  0.00000000000E+00  0.00000000000E+00  0.53274485147E+03  0.53274485147E+03  0.00000000000E+00 0. -1.
         21   -1    0    0  502  503 -0.00000000000E+00 -0.00000000000E+00 -0.17839010319E+03  0.17839010319E+03  0.00000000000E+00 0. -1.
         -6    2    1    2    0  503 -0.15439835566E+02  0.46572225363E+02 -0.11073782088E+03  0.21287004047E+03  0.17505264481E+03 0.  0.
        -24    2    3    3    0    0  0.14889519907E+02 -0.12599622875E+02 -0.12006369227E+03  0.14556298805E+03  0.79955268674E+02 0.  0.
          6    2    1    2  501    0  0.15439835566E+02 -0.46572225363E+02  0.46509256916E+03  0.49826491420E+03  0.17189958155E+03 0.  0.
         24    2    5    5    0    0 -0.56858814079E+02 -0.30646971893E+02  0.29037211756E+03  0.30844912284E+03  0.81564288175E+02 0.  0.
          5    1    5    5  501    0  0.72298649644E+02 -0.15925253470E+02  0.17472045161E+03  0.18981579136E+03  0.47000000000E+01 0. -1.
        -11    1    6    6    0    0 -0.46769768172E+02 -0.58092996558E+02  0.19927832994E+03  0.21277702002E+03  0.00000000000E+00 0.  1.
         12    1    6    6    0    0 -0.10089045907E+02  0.27446024665E+02  0.91093787613E+02  0.95672102825E+02  0.00000000000E+00 0. -1.
         -5    1    3    3    0  503 -0.30329355473E+02  0.59171848238E+02  0.93258713905E+01  0.67307052413E+02  0.47000000000E+01 0.  1.
         13    1    4    4    0    0  0.47440455259E+02 -0.13698724145E+02 -0.78821814535E+02  0.93011452440E+02  0.00000000000E+00 0. -1.
        -14    1    4    4    0    0 -0.32550935352E+02  0.10991012701E+01 -0.41241877740E+02  0.52551535614E+02  0.00000000000E+00 0.  1.
</event>
<event>
12    1  0.8493057E-002  0.1881565E+03  0.7818608E-02  0.1160764E+00
         21   -1    0    0  503  502  0.00000000000E+00  0.00000000000E+00  0.96383233635E+02  0.96383233635E+02  0.00000000000E+00 0. -1.
         21   -1    0    0  501  503 -0.00000000000E+00 -0.00000000000E+00 -0.65616055890E+03  0.65616055890E+03  0.00000000000E+00 0. -1.
          6    2    1    2  501    0 -0.58715033992E+02  0.36612286574E+02 -0.53295350751E+03  0.56519228215E+03  0.17497131160E+03 0.  0.
         24    2    3    3    0    0 -0.53436807277E+02 -0.32220278628E+02 -0.18821644974E+03  0.21357955384E+03  0.79354616355E+02 0.  0.
         -6    2    1    2    0  502  0.58715033992E+02 -0.36612286574E+02 -0.26823817752E+02  0.18735151039E+03  0.17202661568E+03 0.  0.
        -24    2    5    5    0    0  0.62946931159E+02  0.35665656681E+02  0.46797576430E+01  0.10825299398E+03  0.80389398343E+02 0.  0.
          5    1    3    3  501    0 -0.52782267149E+01  0.68832565201E+02 -0.34473705777E+03  0.35161272831E+03  0.47000000000E+01 0. -1.
        -13    1    4    4    0    0 -0.69257675684E+02 -0.85301529407E+01 -0.15389086322E+03  0.16897274020E+03  0.00000000000E+00 0.  1.
         14    1    4    4    0    0  0.15820868407E+02 -0.23690125687E+02 -0.34325586528E+02  0.44606813636E+02  0.00000000000E+00 0. -1.
         -5    1    5    5    0  502 -0.42318971671E+01 -0.72277943254E+02 -0.31503575395E+02  0.79098516404E+02  0.47000000000E+01 0.  1.
         13    1    6    6    0    0  0.47386689879E+02 -0.16825194414E+02 -0.10646269353E+02  0.51399694512E+02  0.00000000000E+00 0. -1.
        -14    1    6    6    0    0  0.15560241280E+02  0.52490851095E+02  0.15326026996E+02  0.56853299471E+02  0.00000000000E+00 0.  1.
</event>
<event>
12    1  0.8493057E-002  0.2007396E+03  0.7818608E-02  0.1149380E+00
         21   -1    0    0  501  502  0.00000000000E+00  0.00000000000E+00  0.14741496207E+04  0.14741496207E+04  0.00000000000E+00 0.  1.
         21   -1    0    0  502  503 -0.00000000000E+00 -0.00000000000E+00 -0.10511903197E+03  0.10511903197E+03  0.00000000000E+00 0. -1.
         -6    2    1    2    0  503 -0.21894282765E+02  0.99203734728E+02  0.39703032112E+01  0.19952737821E+03  0.17168188822E+03 0.  0.
        -24    2    3    3    0    0 -0.53448004243E-01  0.12671110354E+03 -0.27268781273E+02  0.15228705855E+03  0.79950329290E+02 0.  0.
          6    2    1    2  501    0  0.21894282765E+02 -0.99203734728E+02  0.13650602855E+04  0.13797412744E+04  0.17313480515E+03 0.  0.
         24    2    5    5    0    0 -0.49761446860E+02 -0.84982904027E+02  0.81909937332E+03  0.82889448700E+03  0.80274476817E+02 0.  0.
          5    1    5    5  501    0  0.71655729625E+02 -0.14220830701E+02  0.54596091215E+03  0.55084678742E+03  0.47000000000E+01 0. -1.
        -11    1    6    6    0    0 -0.31096633185E+02 -0.26774702543E+02  0.60075694903E+03  0.60215678781E+03  0.00000000000E+00 0.  1.
         12    1    6    6    0    0 -0.18664813675E+02 -0.58208201484E+02  0.21834242429E+03  0.22673769919E+03  0.00000000000E+00 0. -1.
         -5    1    3    3    0  503 -0.21840834761E+02 -0.27507368808E+02  0.31239084484E+02  0.47240319656E+02  0.47000000000E+01 0.  1.
         13    1    4    4    0    0  0.31328915891E+02  0.99817169575E+02 -0.34845566574E+02  0.11026868015E+03  0.00000000000E+00 0. -1.
        -14    1    4    4    0    0 -0.31382363896E+02  0.26893933961E+02  0.75767853005E+01  0.42018378397E+02  0.00000000000E+00 0.  1.
</event>
<event>
12    1  0.8493057E-002  0.1977645E+03  0.7818608E-02  0.1152017E+00
         21   -1    0    0  501  502  0.00000000000E+00  0.00000000000E+00  0.15305025260E+03  0.15305025260E+03  0.00000000000E+00 0.  1.
         21   -1    0    0  502  503 -0.00000000000E+00 -0.00000000000E+00 -0.26548405223E+03  0.26548405223E+03  0.00000000000E+00 0.  1.
         -6    2    1    2    0  503  0.70611074419E+02  0.67413646123E+02 -0.10132613927E+03  0.22221111525E+03  0.17198915585E+03 0.  0.
        -24    2    3    3    0    0 -0.14586521683E+02 -0.46351643935E+01 -0.67793449256E+02  0.10560840183E+03  0.79516862432E+02 0.  0.
          6    2    1    2  501    0 -0.70611074419E+02 -0.67413646123E+02 -0.11107660362E+02  0.19632318957E+03  0.16996732371E+03 0.  0.
         24    2    5    5    0    0 -0.30895130540E+01 -0.93704364281E+02 -0.10701084500E+02  0.12371039170E+03  0.79998092658E+02 0.  0.
          5    1    5    5  501    0 -0.67521561365E+02  0.26290718158E+02 -0.40657586281E+00  0.72612797869E+02  0.47000000000E+01 0. -1.
        -13    1    6    6    0    0  0.11558870225E+02 -0.12942852938E+02  0.28018422972E+02  0.32956895316E+02  0.00000000000E+00 0.  1.
         14    1    6    6    0    0 -0.14648383279E+02 -0.80761511343E+02 -0.38719507471E+02  0.90753496384E+02  0.00000000000E+00 0. -1.
         -5    1    3    3    0  503  0.85197596103E+02  0.72048810517E+02 -0.33532690010E+02  0.11660271342E+03  0.47000000000E+01 0.  1.
         13    1    4    4    0    0 -0.35897491585E+02 -0.15159252354E+02 -0.60316671676E+01  0.39431127842E+02  0.00000000000E+00 0. -1.
        -14    1    4    4    0    0  0.21310969902E+02  0.10524087961E+02 -0.61761782089E+02  0.66177273987E+02  0.00000000000E+00 0.  1.
</event>
<event>
12    1  0.8493057E-002  0.1927214E+03  0.7818608E-02  0.1156078E+00
         21   -1    0    0  503  502  0.00000000000E+00  0.00000000000E+00  0.58182984795E+02  0.58182984795E+02  0.00000000000E+00 0. -1.
         21   -1    0    0  501  503 -0.00000000000E+00 -0.00000000000E+00 -0.10736023739E+04  0.10736023739E+04  0.00000000000E+00 0. -1.
          6    2    1    2  501    0 -0.34160236465E+02  0.80137459903E+02 -0.86849834566E+03  0.88962403717E+03  0.17190874576E+03 0.  0.
         24    2    3    3    0    0 -0.17221642367E+02  0.11499093360E+03 -0.78127349916E+03  0.79406282933E+03  0.81412509185E+02 0.  0.
         -6    2    1    2    0  502  0.34160236465E+02 -0.80137459903E+02 -0.14692104341E+03  0.24216132149E+03  0.17166064893E+03 0.  0.
        -24    2    5    5    0    0 -0.22910728996E+02 -0.10158831749E+03 -0.94524662403E+02  0.16163365461E+03  0.79658262261E+02 0.  0.
          5    1    3    3  501    0 -0.16938594098E+02 -0.34853473694E+02 -0.87224846494E+02  0.95561207843E+02  0.47000000000E+01 0. -1.
        -11    1    4    4    0    0 -0.68691116466E+01  0.23552456573E+02 -0.38782451477E+02  0.45890973491E+02  0.00000000000E+00 0.  1.
         12    1    4    4    0    0 -0.10352530720E+02  0.91438477023E+02 -0.74249104769E+03  0.74817185584E+03  0.00000000000E+00 0. -1.
         -5    1    5    5    0  502  0.57070965461E+02  0.21450857587E+02 -0.52396381008E+02  0.80527666877E+02  0.47000000000E+01 0.  1.
         13    1    6    6    0    0  0.15781671993E+02 -0.23608147216E+02  0.56140610952E+01  0.28946907742E+02  0.00000000000E+00 0. -1.
        -14    1    6    6    0    0 -0.38692400990E+02 -0.77980170274E+02 -0.10013872350E+03  0.13268674687E+03  0.00000000000E+00 0.  1.
</event>
<event>
12    1  0.8493057E-002  0.3551490E+03  0.7818608E-02  0.1061502E+00
         21   -1    0    0  503  502  0.00000000000E+00  0.00000000000E+00  0.39979615450E+03  0.39979615450E+03  0.00000000000E+00 0.  1.
         21   -1    0    0  501  503 -0.00000000000E+00 -0.00000000000E+00 -0.37820282899E+03  0.37820282899E+03  0.00000000000E+00 0. -1.
          6    2    1    2  501    0 -0.29197263025E+03  0.71087200384E+02  0.17966561128E+03  0.39800823020E+03  0.18928658843E+03 0.  0.
         24    2    3    3    0    0 -0.19429749545E+03  0.12451878023E+03  0.12627146304E+03  0.27444290032E+03  0.78217515872E+02 0.  0.
         -6    2    1    2    0  502  0.29197263025E+03 -0.71087200384E+02 -0.15807228578E+03  0.37999075329E+03  0.17060104977E+03 0.  0.
        -24    2    5    5    0    0  0.26485534076E+03 -0.52454810131E+02 -0.18599375437E+03  0.33658324514E+03  0.76123226461E+02 0.  0.
          5    1    3    3  501    0 -0.97675134799E+02 -0.53431579844E+02  0.53394148241E+02  0.12356532988E+03  0.47000000000E+01 0. -1.
        -11    1    4    4    0    0 -0.69950882487E+02  0.58225498471E+02  0.92019583952E+02  0.12942541661E+03  0.00000000000E+00 0.  1.
         12    1    4    4    0    0 -0.12434661296E+03  0.66293281757E+02  0.34251879090E+02  0.14501748371E+03  0.00000000000E+00 0. -1.
         -5    1    5    5    0  502  0.27117289483E+02 -0.18632390253E+02  0.27921468593E+02  0.43407508151E+02  0.47000000000E+01 0.  1.
         11    1    6    6    0    0  0.14245662636E+03 -0.74212472329E+01 -0.58438949780E+02  0.15415601239E+03  0.00000000000E+00 0. -1.
        -12    1    6    6    0    0  0.12239871441E+03 -0.45033562898E+02 -0.12755480459E+03  0.18242723275E+03  0.00000000000E+00 0.  1.
</event>
<event>
12    1  0.8493057E-002  0.1724885E+03  0.7818608E-02  0.1175562E+00
         21   -1    0    0  501  502  0.00000000000E+00  0.00000000000E+00  0.79363727773E+03  0.79363727773E+03  0.00000000000E+00 0. -1.
         21   -1    0    0  502  503 -0.00000000000E+00 -0.00000000000E+00 -0.59533861184E+02  0.59533861184E+02  0.00000000000E+00 0. -1.
         -6    2    1    2    0  503  0.13347082545E+02 -0.74528617516E+01  0.10531506159E+03  0.20115342843E+03  0.17069783189E+03 0.  0.
        -24    2    3    3    0    0  0.28425132850E+02  0.76260185574E+01 -0.10086133325E+02  0.83704520306E+02  0.77708251155E+02 0.  0.
          6    2    1    2  501    0 -0.13347082545E+02  0.74528617516E+01  0.62878835496E+03  0.65201771048E+03  0.17180980674E+03 0.  0.
         24    2    5    5    0    0  0.58544529951E+01 -0.54324911857E+02  0.30704623537E+03  0.32380242474E+03  0.87092760570E+02 0.  0.
          5    1    5    5  501    0 -0.19201535540E+02  0.61777773608E+02  0.32174211959E+03  0.32821528575E+03  0.47000000000E+01 0. -1.
        -11    1    6    6    0    0 -0.64327462502E+01  0.10384682834E+02  0.28321596708E+01  0.12539656705E+02  0.00000000000E+00 0.  1.
         12    1    6    6    0    0  0.12287199245E+02 -0.64709594691E+02  0.30421407570E+03  0.31126276803E+03  0.00000000000E+00 0. -1.
         -5    1    3    3    0  503 -0.15078050305E+02 -0.15078880309E+02  0.11540119492E+03  0.11744890813E+03  0.47000000000E+01 0.  1.
         11    1    4    4    0    0  0.51272846187E+02 -0.20645098946E+01  0.93781766103E+01  0.52164328365E+02  0.00000000000E+00 0. -1.
        -12    1    4    4    0    0 -0.22847713337E+02  0.96905284521E+01 -0.19464309935E+02  0.31540191941E+02  0.00000000000E+00 0.  1.
</event>
<event>
12    1  0.8493057E-002  0.2827439E+03  0.7818608E-02  0.1094401E+00
         21   -1    0    0  501  502  0.00000000000E+00  0.00000000000E+00  0.47700471732E+02  0.47700471732E+02  0.00000000000E+00 0. -1.
         21   -1    0    0  502  503 -0.00000000000E+00 -0.00000000000E+00 -0.17741770222E+04  0.17741770222E+04  0.00000000000E+00 0. -1.
         -6    2    1    2    0  503 -0.16789918569E+02 -0.22468309583E+03 -0.10848407487E+04  0.11207066114E+04  0.16834329137E+03 0.  0.
        -24    2    3    3    0    0 -0.20088646509E+02 -0.24391727287E+03 -0.10414068176E+04  0.10728586067E+04  0.81229555158E+02 0.  0.
          6    2    1    2  501    0  0.16789918569E+02  0.22468309583E+03 -0.64163580175E+03  0.70117088258E+03  0.17082069418E+03 0.  0.
         24    2    5    5    0    0  0.21547023987E+02  0.85320759614E+02 -0.44295436326E+03  0.45839342314E+03  0.78562434933E+02 0.  0.
          5    1    5    5  501    0 -0.47571054180E+01  0.13936233622E+03 -0.19868143849E+03  0.24277745944E+03  0.47000000000E+01 0. -1.
        -11    1    6    6    0    0  0.22526684803E+02  0.12809618081E+01 -0.20090148805E+03  0.20216453767E+03  0.00000000000E+00 0.  1.
         12    1    6    6    0    0 -0.97966081631E+00  0.84039797806E+02 -0.24205287521E+03  0.25622888547E+03  0.00000000000E+00 0. -1.
         -5    1    3    3    0  503  0.32987279403E+01  0.19234177034E+02 -0.43433931161E+02  0.47848004643E+02  0.47000000000E+01 0.  1.
         11    1    4    4    0    0 -0.47186085009E+02 -0.14541501856E+03 -0.54428031073E+03  0.56534335664E+03  0.00000000000E+00 0. -1.
        -12    1    4    4    0    0  0.27097438500E+02 -0.98502254304E+02 -0.49712650685E+03  0.50751525011E+03  0.00000000000E+00 0.  1.
</event>
<event>
12    1  0.8493057E-002  0.1837347E+03  0.7818608E-02  0.1164624E+00
         21   -1    0    0  503  502  0.00000000000E+00  0.00000000000E+00  0.16293844961E+03  0.16293844961E+03  0.00000000000E+00 0.  1.
         21   -1    0    0  501  503 -0.00000000000E+00 -0.00000000000E+00 -0.27647657028E+03  0.27647657028E+03  0.00000000000E+00 0.  1.
          6    2    1    2  501    0  0.41042417225E+02 -0.43613602982E+02 -0.16839748908E+03  0.24923113404E+03  0.17370036692E+03 0.  0.
         24    2    3    3    0    0  0.46934820651E+02 -0.93679828349E+02 -0.12993930362E+03  0.18565071748E+03  0.81259944914E+02 0.  0.
         -6    2    1    2    0  502 -0.41042417225E+02  0.43613602982E+02  0.54859368417E+02  0.19018388585E+03  0.17197015368E+03 0.  0.
        -24    2    5    5    0    0  0.25287079019E+02  0.59438371706E+02  0.65470281285E+02  0.12101231041E+03  0.78646456639E+02 0.  0.
          5    1    3    3  501    0 -0.58924034252E+01  0.50066225368E+02 -0.38458185462E+02  0.63580416558E+02  0.47000000000E+01 0. -1.
        -13    1    4    4    0    0  0.83676083802E+01 -0.68496317758E+02 -0.29294079071E+02  0.74966028874E+02  0.00000000000E+00 0.  1.
         14    1    4    4    0    0  0.38567212270E+02 -0.25183510591E+02 -0.10064522455E+03  0.11068468861E+03  0.00000000000E+00 0. -1.
         -5    1    5    5    0  502 -0.66329496244E+02 -0.15824768725E+02 -0.10610912868E+02  0.69171575441E+02  0.47000000000E+01 0.  1.
         11    1    6    6    0    0 -0.97795046850E+00 -0.17784646776E+02  0.22878296902E+02  0.28994249726E+02  0.00000000000E+00 0. -1.
        -12    1    6    6    0    0  0.26265029487E+02  0.77223018483E+02  0.42591984383E+02  0.92018060680E+02  0.00000000000E+00 0.  1.
</event>
<event>
12    1  0.8493057E-002  0.2987204E+03  0.7818608E-02  0.1085905E+00
         21   -1    0    0  501  502  0.00000000000E+00  0.00000000000E+00  0.16021704407E+04  0.16021704407E+04  0.00000000000E+00 0.  1.
         21   -1    0    0  502  503 -0.00000000000E+00 -0.00000000000E+00 -0.55893751746E+02  0.55893751746E+02  0.00000000000E+00 0.  1.
         -6    2    1    2    0  503 -0.64305807199E+02  0.23520801980E+03  0.71991439315E+03  0.77942966303E+03  0.17255670584E+03 0.  0.
        -24    2    3    3    0    0 -0.65789248938E+02  0.25169719436E+03  0.60937069823E+03  0.66755432185E+03  0.81341390686E+02 0.  0.
          6    2    1    2  501    0  0.64305807199E+02 -0.23520801980E+03  0.82636229580E+03  0.87863452941E+03  0.17223804149E+03 0.  0.
         24    2    5    5    0    0  0.82294829065E+02 -0.23243798430E+03  0.81797662251E+03  0.85805085819E+03  0.79785116633E+02 0.  0.
          5    1    5    5  501    0 -0.17989021867E+02 -0.27700355030E+01  0.83856732930E+01  0.20583671222E+02  0.47000000000E+01 0. -1.
        -11    1    6    6    0    0  0.54197065039E+02 -0.22304683944E+03  0.72502154380E+03  0.76048895681E+03  0.00000000000E+00 0.  1.
         12    1    6    6    0    0  0.28097764026E+02 -0.93911448587E+01  0.92955078703E+02  0.97561901384E+02  0.00000000000E+00 0. -1.
         -5    1    3    3    0  503  0.14834417393E+01 -0.16489174562E+02  0.11054369492E+03  0.11187534118E+03  0.47000000000E+01 0.  1.
         11    1    4    4    0    0  0.64481739063E+01  0.44285297784E+02  0.52789964897E+02  0.69206552727E+02  0.00000000000E+00 0. -1.
        -12    1    4    4    0    0 -0.72237422844E+02  0.20741189658E+03  0.55658073333E+03  0.59834776912E+03  0.00000000000E+00 0.  1.
</event>
<event>
12    1  0.8493057E-002  0.1857176E+03  0.7818608E-02  0.1163177E+00
         21   -1    0    0  501  502  0.00000000000E+00  0.00000000000E+00  0.11794683642E+03  0.11794683642E+03  0.00000000000E+00 0. -1.
         21   -1    0    0  502  503 -0.00000000000E+00 -0.00000000000E+00 -0.36303004776E+03  0.36303004776E+03  0.00000000000E+00 0.  1.
         -6    2    1    2    0  503 -0.60440949054E+02  0.16311178050E+02 -0.11675425608E+02  0.18269810821E+03  0.17123994956E+03 0.  0.
        -24    2    3    3    0    0 -0.92413739231E+02  0.50599795039E+02 -0.22932796475E+02  0.13425446089E+03  0.79985677827E+02 0.  0.
          6    2    1    2  501    0  0.60440949054E+02 -0.16311178050E+02 -0.23340778573E+03  0.29827877597E+03  0.17484813669E+03 0.  0.
         24    2    5    5    0    0 -0.23920481524E+02 -0.46424062808E+02 -0.13929200692E+03  0.16826528968E+03  0.78635624720E+02 0.  0.
          5    1    5    5  501    0  0.84361430578E+02  0.30112884758E+02 -0.94115778805E+02  0.13001348629E+03  0.47000000000E+01 0. -1.
        -13    1    6    6    0    0  0.83356504919E+01  0.13696778257E+02 -0.66876271744E+02  0.68771509552E+02  0.00000000000E+00 0.  1.
         14    1    6    6    0    0 -0.32256132016E+02 -0.60120841065E+02 -0.72415735179E+02  0.99493780129E+02  0.00000000000E+00 0. -1.
         -5    1    3    3    0  503  0.31972790177E+02 -0.34288616988E+02  0.11257370867E+02  0.48443647318E+02  0.47000000000E+01 0.  1.
         13    1    4    4    0    0 -0.44861076777E+02  0.27372689052E+02  0.29071227118E+02  0.60057610356E+02  0.00000000000E+00 0. -1.
        -14    1    4    4    0    0 -0.47552662454E+02  0.23227105987E+02 -0.52004023593E+02  0.74196850532E+02  0.00000000000E+00 0.  1.
</event>
<event>
12    1  0.8493057E-002  0.2060222E+03  0.7818608E-02  0.1144771E+00
         21   -1    0    0  501  502  0.00000000000E+00  0.00000000000E+00  0.21724983265E+02  0.21724983265E+02  0.00000000000E+00 0.  1.
         21   -1    0    0  502  503 -0.00000000000E+00 -0.00000000000E+00 -0.31100844278E+04  0.31100844278E+04  0.00000000000E+00 0.  1.
         -6    2    1    2    0  503 -0.11036170731E+03  0.23639063912E+02 -0.24994784639E+04  0.25079548877E+04  0.17235607071E+03 0.  0.
        -24    2    3    3    0    0  0.14492275295E+02  0.11196216726E+02 -0.10764683417E+04  0.10794160400E+04  0.77585535579E+02 0.  0.
          6    2    1    2  501    0  0.11036170731E+03 -0.23639063912E+02 -0.58888098064E+03  0.62385452344E+03  0.17226475343E+03 0.  0.
         24    2    5    5    0    0 -0.61270217766E+01 -0.28459575208E+02 -0.32519222506E+03  0.33550280912E+03  0.77231236354E+02 0.  0.
          5    1    5    5  501    0  0.11648872909E+03  0.48205112953E+01 -0.26368875558E+03  0.28835171432E+03  0.47000000000E+01 0. -1.
        -13    1    6    6    0    0 -0.29085976963E+02  0.82160452973E+01 -0.64329038315E+02  0.71075471344E+02  0.00000000000E+00 0.  1.
         14    1    6    6    0    0  0.22958955187E+02 -0.36675620505E+02 -0.26086318675E+03  0.26442733777E+03  0.00000000000E+00 0. -1.
         -5    1    3    3    0  503 -0.12485398261E+03  0.12442847187E+02 -0.14230101222E+04  0.14285388477E+04  0.47000000000E+01 0.  1.
         13    1    4    4    0    0  0.20711822346E+02  0.39279055034E+02 -0.84523284476E+03  0.84639847922E+03  0.00000000000E+00 0. -1.
        -14    1    4    4    0    0 -0.62195470518E+01 -0.28082838308E+02 -0.23123549694E+03  0.23301756075E+03  0.00000000000E+00 0.  1.
</event>
<event>
12    1  0.8493057E-002  0.2046747E+03  0.7818608E-02  0.1145925E+00
         21   -1    0    0  501  502  0.00000000000E+00  0.00000000000E+00  0.72166407508E+03  0.72166407508E+03  0.00000000000E+00 0. -1.
         21   -1    0    0  502  503 -0.00000000000E+00 -0.00000000000E+00 -0.84196971771E+02  0.84196971771E+02  0.00000000000E+00 0. -1.
         -6    2    1    2    0  503 -0.55352812442E+02  0.94507901208E+02  0.93582859453E+02  0.22473988002E+03  0.17249517341E+03 0.  0.
        -24    2    3    3    0    0 -0.97652989711E+02  0.89273212211E+02  0.48879157860E+02  0.16279459850E+03  0.81284047700E+02 0.  0.
          6    2    1    2  501    0  0.55352812442E+02 -0.94507901208E+02  0.54388424385E+03  0.58112116683E+03  0.17290477897E+03 0.  0.
         24    2    5    5    0    0 -0.24433234281E+02 -0.92072325913E+01  0.16567997603E+03  0.18526440546E+03  0.78684746971E+02 0.  0.
          5    1    5    5  501    0  0.79786046723E+02 -0.85300668617E+02  0.37820426783E+03  0.39585676137E+03  0.47000000000E+01 0. -1.
        -11    1    6    6    0    0 -0.65095960793E+01 -0.85101825294E+00 -0.80640970183E+01  0.10398496714E+02  0.00000000000E+00 0.  1.
         12    1    6    6    0    0 -0.17923638202E+02 -0.83562143384E+01  0.17374407304E+03  0.17486590875E+03  0.00000000000E+00 0. -1.
         -5    1    3    3    0  503  0.42300177269E+02  0.52346889970E+01  0.44703701593E+02  0.61945281515E+02  0.47000000000E+01 0.  1.
         11    1    4    4    0    0 -0.17243246289E+02 -0.91156205138E+00 -0.17792754581E+02  0.24794003379E+02  0.00000000000E+00 0. -1.
        -12    1    4    4    0    0 -0.80409743422E+02  0.90184774263E+02  0.66671912441E+02  0.13800059512E+03  0.00000000000E+00 0.  1.
</event>
<event>
12    1  0.8493057E-002  0.1811142E+03  0.7818608E-02  0.1167115E+00
         21   -1    0    0  501  502  0.00000000000E+00  0.00000000000E+00  0.16110853399E+03  0.16110853399E+03  0.00000000000E+00 0. -1.
         21   -1    0    0  502  503 -0.00000000000E+00 -0.00000000000E+00 -0.20511862914E+03  0.20511862914E+03  0.00000000000E+00 0. -1.
         -6    2    1    2    0  503 -0.46328402935E+02 -0.26848793182E+02 -0.45360030428E+02  0.18670799781E+03  0.17301781836E+03 0.  0.
        -24    2    3    3    0    0 -0.18784690246E+02 -0.11833851909E+02  0.43077012304E+02  0.92754258673E+02  0.79087412868E+02 0.  0.
          6    2    1    2  501    0  0.46328402935E+02  0.26848793182E+02  0.13499352694E+01  0.17951916532E+03  0.17134214245E+03 0.  0.
         24    2    5    5    0    0  0.30487317818E+02 -0.51742599787E+02 -0.63728345033E+01  0.98839067410E+02  0.78241773026E+02 0.  0.
          5    1    5    5  501    0  0.15841085117E+02  0.78591392969E+02  0.77227697727E+01  0.80680097914E+02  0.47000000000E+01 0. -1.
        -13    1    6    6    0    0 -0.18147979862E+02  0.64569246413E+01  0.93014922536E+01  0.21390624279E+02  0.00000000000E+00 0.  1.
         14    1    6    6    0    0  0.48635297680E+02 -0.58199524429E+02 -0.15674326757E+02  0.77448443131E+02  0.00000000000E+00 0. -1.
         -5    1    3    3    0  503 -0.27543712689E+02 -0.15014941273E+02 -0.88437042732E+02  0.93953739134E+02  0.47000000000E+01 0.  1.
         13    1    4    4    0    0  0.21412779583E+02 -0.14569282042E+02 -0.85430044627E+01  0.27271854245E+02  0.00000000000E+00 0. -1.
        -14    1    4    4    0    0 -0.40197469829E+02  0.27354301332E+01  0.51620016767E+02  0.65482404428E+02  0.00000000000E+00 0.  1.
</event>
<event>
12    1  0.8493057E-002  0.1836372E+03  0.7818608E-02  0.1165860E+00
         21   -1    0    0  503  502  0.00000000000E+00  0.00000000000E+00  0.30299662602E+03  0.30299662602E+03  0.00000000000E+00 0. -1.
         21   -1    0    0  501  503 -0.00000000000E+00 -0.00000000000E+00 -0.11346681401E+03  0.11346681401E+03  0.00000000000E+00 0.  1.
          6    2    1    2  501    0 -0.65596359391E+02  0.11873691447E+02  0.45301511815E+02  0.18295876295E+03  0.16424924674E+03 0.  0.
         24    2    3    3    0    0 -0.53257811275E+02 -0.37841029273E+02 -0.13820917629E+02  0.10459202964E+03  0.80499297778E+02 0.  0.
         -6    2    1    2    0  502  0.65596359391E+02 -0.11873691447E+02  0.14422830020E+03  0.23350467708E+03  0.17111038755E+03 0.  0.
        -24    2    5    5    0    0 -0.16176993864E+02 -0.38182894949E+02  0.41396692902E+02  0.99431991757E+02  0.80333095325E+02 0.  0.
          5    1    3    3  501    0 -0.12338548116E+02  0.49714720720E+02  0.59122429445E+02  0.78366733308E+02  0.47000000000E+01 0. -1.
        -13    1    4    4    0    0 -0.56359418489E+02 -0.26574789470E+02  0.22646372839E+02  0.66298278187E+02  0.00000000000E+00 0.  1.
         14    1    4    4    0    0  0.31016072134E+01 -0.11266239803E+02 -0.36467290468E+02  0.38293751458E+02  0.00000000000E+00 0. -1.
         -5    1    5    5    0  502  0.81773353255E+02  0.26309203502E+02  0.10283160729E+03  0.13407268533E+03  0.47000000000E+01 0.  1.
         13    1    6    6    0    0 -0.37527412333E+02 -0.30193159234E+02  0.54822671942E+02  0.72975741858E+02  0.00000000000E+00 0. -1.
        -14    1    6    6    0    0  0.21350418468E+02 -0.79897357154E+01 -0.13425979039E+02  0.26456249899E+02  0.00000000000E+00 0.  1.
</event>
<event>
12    1  0.8493057E-002  0.1890621E+03  0.7818608E-02  0.1159616E+00
         21   -1    0    0  503  502  0.00000000000E+00  0.00000000000E+00  0.32260643602E+03  0.32260643602E+03  0.00000000000E+00 0. -1.
         21   -1    0    0  501  503 -0.00000000000E+00 -0.00000000000E+00 -0.14897948878E+03  0.14897948878E+03  0.00000000000E+00 0. -1.
          6    2    1    2  501    0 -0.20317365952E+02 -0.74878380419E+02 -0.34004671745E+02  0.19077393464E+03  0.17093510238E+03 0.  0.
         24    2    3    3    0    0  0.13509283550E+02 -0.54771081726E+02  0.41114217982E+02  0.10584170713E+03  0.79559511759E+02 0.  0.
         -6    2    1    2    0  502  0.20317365952E+02  0.74878380419E+02  0.20763161899E+03  0.28081199016E+03  0.17240915694E+03 0.  0.
        -24    2    5    5    0    0  0.60662431289E+02  0.99532021269E+02  0.14088110321E+03  0.19887757942E+03  0.78219259324E+02 0.  0.
          5    1    3    3  501    0 -0.33826649503E+02 -0.20107298693E+02 -0.75118889727E+02  0.84932227518E+02  0.47000000000E+01 0. -1.
        -11    1    4    4    0    0  0.13665185545E+02  0.15131666188E+02  0.28131909745E+02  0.34743473683E+02  0.00000000000E+00 0.  1.
         12    1    4    4    0    0 -0.15590199426E+00 -0.69902747915E+02  0.12982308237E+02  0.71098233442E+02  0.00000000000E+00 0. -1.
         -5    1    5    5    0  502 -0.40345065337E+02 -0.24653640850E+02  0.66750515788E+02  0.81934410733E+02  0.47000000000E+01 0.  1.
         13    1    6    6    0    0  0.62549363928E+02  0.37551503901E+02  0.48467859547E+02  0.87588080137E+02  0.00000000000E+00 0. -1.
        -14    1    6    6    0    0 -0.18869326385E+01  0.61980517368E+02  0.92413243659E+02  0.11128949929E+03  0.00000000000E+00 0.  1.
</event>
<event>
12    1  0.8493057E-002  0.1964777E+03  0.7818608E-02  0.1152793E+00
         21   -1    0    0  501  502  0.00000000000E+00  0.00000000000E+00  0.16920735418E+03  0.16920735418E+03  0.00000000000E+00 0.  1.
         21   -1    0    0  502  503 -0.00000000000E+00 -0.00000000000E+00 -0.23302274459E+03  0.23302274459E+03  0.00000000000E+00 0.  1.
         -6    2    1    2    0  503 -0.92180978278E+01  0.95480004263E+02 -0.20699734726E+01  0.19648858897E+03  0.17147033640E+03 0.  0.
        -24    2    3    3    0    0  0.12672837493E+02  0.13053176742E+03  0.82595515578E+01  0.15363268813E+03  0.79596730813E+02 0.  0.
          6    2    1    2  501    0  0.92180978278E+01 -0.95480004263E+02 -0.61745416941E+02  0.20574150979E+03  0.17121818769E+03 0.  0.
         24    2    5    5    0    0  0.10706189590E+02 -0.89520629254E+02 -0.10670230732E+03  0.16012418238E+03  0.78267527348E+02 0.  0.
          5    1    5    5  501    0 -0.14880917619E+01 -0.59593750087E+01  0.44956890382E+02  0.45617327414E+02  0.47000000000E+01 0. -1.
        -11    1    6    6    0    0  0.77809948990E+01 -0.29533302943E+02  0.71815958217E+01  0.31374116448E+02  0.00000000000E+00 0.  1.
         12    1    6    6    0    0  0.29251946907E+01 -0.59987326311E+02 -0.11388390314E+03  0.12875006593E+03  0.00000000000E+00 0. -1.
         -5    1    3    3    0  503 -0.21890935320E+02 -0.35051763154E+02 -0.10329525030E+02  0.42855900839E+02  0.47000000000E+01 0.  1.
         11    1    4    4    0    0  0.28391102653E+02  0.32295440988E+02  0.29185756734E+02  0.51969785593E+02  0.00000000000E+00 0. -1.
        -12    1    4    4    0    0 -0.15718265160E+02  0.98236326429E+02 -0.20926205177E+02  0.10166290254E+03  0.00000000000E+00 0.  1.
</event>
<event>
12    1  0.8493057E-002  0.2285478E+03  0.7818608E-02  0.1127767E+00
         21   -1    0    0  503  502  0.00000000000E+00  0.00000000000E+00  0.63145840834E+03  0.63145840834E+03  0.00000000000E+00 0.  1.
         21   -1    0    0  501  503 -0.00000000000E+00 -0.00000000000E+00 -0.18201592525E+03  0.18201592525E+03  0.00000000000E+00 0.  1.
          6    2    1    2  501    0  0.10948408545E+03  0.10252148323E+03 -0.76133789970E+02  0.24035611022E+03  0.17168950536E+03 0.  0.
         24    2    3    3    0    0  0.11510917032E+03  0.44070944226E+02 -0.99601187226E+02  0.17694541850E+03  0.78720489181E+02 0.  0.
         -6    2    1    2    0  502 -0.10948408545E+03 -0.10252148323E+03  0.52557627306E+03  0.57311822337E+03  0.17244320709E+03 0.  0.
        -24    2    5    5    0    0 -0.12780856501E+03 -0.60393499378E+02  0.28136292507E+03  0.32457687287E+03  0.78756883777E+02 0.  0.
          5    1    3    3  501    0 -0.56250848611E+01  0.58450539004E+02  0.23467397256E+02  0.63410691713E+02  0.47000000000E+01 0. -1.
        -11    1    4    4    0    0  0.16599074675E+02  0.32759467338E+02 -0.59636304408E+02  0.70037138604E+02  0.00000000000E+00 0.  1.
         12    1    4    4    0    0  0.98510095641E+02  0.11311476888E+02 -0.39964882818E+02  0.10690827990E+03  0.00000000000E+00 0. -1.
         -5    1    5    5    0  502  0.18324479554E+02 -0.42127983852E+02  0.24421334799E+03  0.24854135050E+03  0.47000000000E+01 0.  1.
         13    1    6    6    0    0 -0.17967371411E+02  0.17568713906E+02  0.27917558384E+02  0.37561632151E+02  0.00000000000E+00 0. -1.
        -14    1    6    6    0    0 -0.10984119360E+03 -0.77962213284E+02  0.25344536668E+03  0.28701524072E+03  0.00000000000E+00 0.  1.
</event>
<event>
12    1  0.8493057E-002  0.5193685E+03  0.7818608E-02  0.1008883E+00
         21   -1    0    0  503  502  0.00000000000E+00  0.00000000000E+00  0.30221427103E+03  0.30221427103E+03  0.00000000000E+00 0.  1.
         21   -1    0    0  501  503 -0.00000000000E+00 -0.00000000000E+00 -0.98944523064E+03  0.98944523064E+03  0.00000000000E+00 0. -1.
          6    2    1    2  501    0 -0.13486211351E+02 -0.48904934278E+03 -0.54665756711E+03  0.75360328876E+03  0.17243051815E+03 0.  0.
         24    2    3    3    0    0 -0.54375623044E+02 -0.43704050000E+03 -0.43727830963E+03  0.62568622312E+03  0.79434392469E+02 0.  0.
         -6    2    1    2    0  502  0.13486211351E+02  0.48904934278E+03 -0.14057339251E+03  0.53805621291E+03  0.17433436840E+03 0.  0.
        -24    2    5    5    0    0  0.93305283329E+01  0.48913844463E+03 -0.11103671215E+03  0.50786046607E+03  0.79054568362E+02 0.  0.
          5    1    3    3  501    0  0.40889411694E+02 -0.52008842773E+02 -0.10937925748E+03  0.12791706564E+03  0.47000000000E+01 0. -1.
        -11    1    4    4    0    0 -0.61944184806E+01 -0.11836286294E+01 -0.17649023578E+02  0.18741927070E+02  0.00000000000E+00 0.  1.
         12    1    4    4    0    0 -0.48181204564E+02 -0.43585687137E+03 -0.41962928605E+03  0.60694429605E+03  0.00000000000E+00 0. -1.
         -5    1    5    5    0  502  0.41556830178E+01 -0.89101854080E-01 -0.29536680360E+02  0.30195746840E+02  0.47000000000E+01 0.  1.
         11    1    6    6    0    0 -0.33529211095E+02  0.20017525162E+03 -0.34489186646E+02  0.20587336728E+03  0.00000000000E+00 0. -1.
        -12    1    6    6    0    0  0.42859739428E+02  0.28896319301E+03 -0.76547525503E+02  0.30198709880E+03  0.00000000000E+00 0.  1.
</event>
<event>
12    1  0.8493057E-002  0.1747328E+03  0.7818608E-02  0.1173051E+00
         21   -1    0    0  501  502  0.00000000000E+00  0.00000000000E+00  0.18009747189E+02  0.18009747189E+02  0.00000000000E+00 0.  1.
         21   -1    0    0  502  503 -0.00000000000E+00 -0.00000000000E+00 -0.21031998215E+04  0.21031998215E+04  0.00000000000E+00 0.  1.
         -6    2    1    2    0  503  0.21697426937E+02  0.18241467483E+02 -0.15103217142E+04  0.15203725120E+04  0.17221314000E+03 0.  0.
        -24    2    3    3    0    0 -0.33945915779E+02  0.52091779220E+02 -0.11268730633E+04  0.11314033834E+04  0.79779925239E+02 0.  0.
          6    2    1    2  501    0 -0.21697426937E+02 -0.18241467483E+02 -0.57486836016E+03  0.60083705667E+03  0.17241811879E+03 0.  0.
         24    2    5    5    0    0  0.39198050333E+01 -0.34791347630E+02 -0.13429226023E+03  0.15918161298E+03  0.77965197455E+02 0.  0.
          5    1    5    5  501    0 -0.25617231971E+02  0.16549880147E+02 -0.44057609993E+03  0.44165544369E+03  0.47000000000E+01 0. -1.
        -13    1    6    6    0    0  0.18785381227E+02 -0.53059445231E+02 -0.11740639033E+03  0.13020159663E+03  0.00000000000E+00 0.  1.
         14    1    6    6    0    0 -0.14865576193E+02  0.18268097601E+02 -0.16885869901E+02  0.28980016353E+02  0.00000000000E+00 0. -1.
         -5    1    3    3    0  503  0.55643342716E+02 -0.33850311737E+02 -0.38344865086E+03  0.38896912865E+03  0.47000000000E+01 0.  1.
         13    1    4    4    0    0  0.10291582779E+02 -0.14661283782E+02 -0.11737313520E+03  0.11873214723E+03  0.00000000000E+00 0. -1.
        -14    1    4    4    0    0 -0.44237498558E+02  0.66753063002E+02 -0.10094999281E+04  0.10126712361E+04  0.00000000000E+00 0.  1.
</event>
<event>
12    1  0.8493057E-002  0.2057694E+03  0.7818608E-02  0.1145872E+00
         21   -1    0    0  501  502  0.00000000000E+00  0.00000000000E+00  0.79691912753E+03  0.79691912753E+03  0.00000000000E+00 0. -1.
         21   -1    0    0  502  503 -0.00000000000E+00 -0.00000000000E+00 -0.56377883971E+03  0.56377883971E+03  0.00000000000E+00 0. -1.
         -6    2    1    2    0  503  0.32703614262E+02 -0.10214742191E+03 -0.53152810431E+03  0.56996770730E+03  0.17560592105E+03 0.  0.
        -24    2    3    3    0    0  0.75264728454E+02 -0.61231161765E+02 -0.46404842119E+03  0.48018359724E+03  0.76297544725E+02 0.  0.
          6    2    1    2  501    0 -0.32703614262E+02  0.10214742191E+03  0.76466839213E+03  0.79073025995E+03  0.17039064497E+03 0.  0.
         24    2    5    5    0    0 -0.79098428593E+02  0.66110243669E+02  0.63408312195E+03  0.64746212043E+03  0.80738256947E+02 0.  0.
          5    1    5    5  501    0  0.46394814330E+02  0.36037178239E+02  0.13058527018E+03  0.14326813951E+03  0.47000000000E+01 0. -1.
        -13    1    6    6    0    0 -0.15750880935E+02 -0.18928717180E+02  0.10385606001E+03  0.10673550387E+03  0.00000000000E+00 0.  1.
         14    1    6    6    0    0 -0.63347547657E+02  0.85038960849E+02  0.53022706193E+03  0.54072661656E+03  0.00000000000E+00 0. -1.
         -5    1    3    3    0  503 -0.42561114191E+02 -0.40916260143E+02 -0.67479683120E+02  0.89784110060E+02  0.47000000000E+01 0.  1.
         11    1    4    4    0    0  0.71033309763E+02 -0.71505048528E+02 -0.31523399611E+03  0.33095494461E+03  0.00000000000E+00 0. -1.
        -12    1    4    4    0    0  0.42314186908E+01  0.10273886763E+02 -0.14881442508E+03  0.14922865263E+03  0.00000000000E+00 0.  1.
</event>
<event>
12    1  0.8493057E-002  0.1744587E+03  0.7818608E-02  0.1173990E+00
         21   -1    0    0  503  502  0.00000000000E+00  0.00000000000E+00  0.66340871160E+03  0.66340871160E+03  0.00000000000E+00 0.  1.
         21   -1    0    0  501  503 -0.00000000000E+00 -0.00000000000E+00 -0.75780999698E+02  0.75780999698E+02  0.00000000000E+00 0.  1.
          6    2    1    2  501    0  0.10802686470E+01  0.71744290645E+01  0.57393037202E+02  0.18099202938E+03  0.17149785587E+03 0.  0.
         24    2    3    3    0    0  0.31949259177E+02  0.32044759550E+01 -0.27465243358E+02  0.90484168491E+02  0.80012632294E+02 0.  0.
         -6    2    1    2    0  502 -0.10802686470E+01 -0.71744290645E+01  0.53023467470E+03  0.55819768191E+03  0.17430778074E+03 0.  0.
        -24    2    5    5    0    0  0.14272199242E+02  0.22685689141E+02  0.11959686019E+03  0.14616269597E+03  0.79635347457E+02 0.  0.
          5    1    3    3  501    0 -0.30868990530E+02  0.39699531095E+01  0.84858280560E+02  0.90507860894E+02  0.47000000000E+01 0. -1.
        -11    1    4    4    0    0  0.42209585168E+02  0.32870722938E+02 -0.95607451891E+01  0.54346493494E+02  0.00000000000E+00 0.  1.
         12    1    4    4    0    0 -0.10260325991E+02 -0.29666246983E+02 -0.17904498169E+02  0.36137674997E+02  0.00000000000E+00 0. -1.
         -5    1    5    5    0  502 -0.15352467889E+02 -0.29860118206E+02  0.41063781452E+03  0.41203498594E+03  0.47000000000E+01 0.  1.
         11    1    6    6    0    0  0.29934134373E+02  0.45938256984E+02  0.90068923091E+02  0.10544565786E+03  0.00000000000E+00 0. -1.
        -12    1    6    6    0    0 -0.15661935131E+02 -0.23252567843E+02  0.29527937095E+02  0.40717038109E+02  0.00000000000E+00 0.  1.
</event>
<event>
12    1  0.8493057E-002  0.1910086E+03  0.7818608E-02  0.1157857E+00
         21   -1    0    0  503  502  0.00000000000E+00  0.00000000000E+00  0.48125124912E+03  0.48125124912E+03  0.00000000000E+00 0.  1.
         21   -1    0    0  501  503 -0.00000000000E+00 -0.00000000000E+00 -0.75928599359E+02  0.75928599359E+02  0.00000000000E+00 0.  1.
          6    2    1    2  501    0 -0.55073388214E+02  0.57059151599E+02  0.17761053244E+03  0.26082523341E+03  0.17376845593E+03 0.  0.
         24    2    3    3    0    0 -0.80566339673E+02  0.66505074678E+02  0.18983914837E+03  0.23064668002E+03  0.79026126722E+02 0.  0.
         -6    2    1    2    0  502  0.55073388214E+02 -0.57059151599E+02  0.22771211732E+03  0.29635461508E+03  0.17229168474E+03 0.  0.
        -24    2    5    5    0    0 -0.28922969472E+01 -0.70948271335E+02  0.20738473088E+03  0.23320225215E+03  0.79579150667E+02 0.  0.
          5    1    3    3  501    0  0.25492951459E+02 -0.94459230791E+01 -0.12228615929E+02  0.30178553386E+02  0.47000000000E+01 0. -1.
        -11    1    4    4    0    0 -0.17380398632E+02 -0.13346256992E+02  0.70200847575E+02  0.73541551741E+02  0.00000000000E+00 0.  1.
         12    1    4    4    0    0 -0.63185941041E+02  0.79851331670E+02  0.11963830079E+03  0.15710512828E+03  0.00000000000E+00 0. -1.
         -5    1    5    5    0  502  0.57965685161E+02  0.13889119736E+02  0.20327386449E+02  0.63152362925E+02  0.47000000000E+01 0.  1.
         11    1    6    6    0    0 -0.22136976307E+02 -0.21167689158E+02  0.16081880806E+02  0.34593983213E+02  0.00000000000E+00 0. -1.
        -12    1    6    6    0    0  0.19244679360E+02 -0.49780582177E+02  0.19130285007E+03  0.19860826894E+03  0.00000000000E+00 0.  1.
</event>
<event>
12    1  0.8493057E-002  0.1950664E+03  0.7818608E-02  0.1153970E+00
         21   -1    0    0  503  502  0.00000000000E+00  0.00000000000E+00  0.33379544754E+03  0.33379544754E+03  0.00000000000E+00 0.  1.
         21   -1    0    0  501  503 -0.00000000000E+00 -0.00000000000E+00 -0.14710668977E+03  0.14710668977E+03  0.00000000000E+00 0.  1.
          6    2    1    2  501    0  0.82441295527E+02  0.41349554895E+02 -0.20737353626E+02  0.19616555988E+03  0.17188524122E+03 0.  0.
         24    2    3    3    0    0  0.41193571515E+02  0.82275064351E+02 -0.47791469181E+02  0.13189824915E+03  0.81529301816E+02 0.  0.
         -6    2    1    2    0  502 -0.82441295527E+02 -0.41349554895E+02  0.20742611139E+03  0.28473657742E+03  0.17188069681E+03 0.  0.
        -24    2    5    5    0    0 -0.43225234373E+02  0.38155957218E+02  0.72395504299E+02  0.12313713200E+03  0.81224049862E+02 0.  0.
          5    1    3    3  501    0  0.41247724012E+02 -0.40925509455E+02  0.27054115555E+02  0.64267310733E+02  0.47000000000E+01 0. -1.
        -11    1    4    4    0    0  0.26822965922E+02  0.43733777840E+00 -0.40379389872E+02  0.48478427075E+02  0.00000000000E+00 0.  1.
         12    1    4    4    0    0  0.14370605593E+02  0.81837726572E+02 -0.74120793087E+01  0.83419822077E+02  0.00000000000E+00 0. -1.
         -5    1    5    5    0  502 -0.39216061154E+02 -0.79505512114E+02  0.13503060709E+03  0.16159944542E+03  0.47000000000E+01 0.  1.
         13    1    6    6    0    0 -0.14583968701E+00 -0.15271828686E+02  0.47881920153E+02  0.50258614169E+02  0.00000000000E+00 0. -1.
        -14    1    6    6    0    0 -0.43079394686E+02  0.53427785904E+02  0.24513584146E+02  0.72878517828E+02  0.00000000000E+00 0.  1.
</event>
<event>
12    1  0.8493057E-002  0.2062492E+03  0.7818608E-02  0.1145983E+00
         21   -1    0    0  501  502  0.00000000000E+00  0.00000000000E+00  0.69168392199E+03  0.69168392199E+03  0.00000000000E+00 0. -1.
         21   -1    0    0  502  503 -0.00000000000E+00 -0.00000000000E+00 -0.17164692342E+03  0.17164692342E+03  0.00000000000E+00 0. -1.
         -6    2    1    2    0  503  0.88947100425E+02  0.50672792077E+02 -0.87398204425E+02  0.22400266572E+03  0.17905147188E+03 0.  0.
        -24    2    3    3    0    0  0.51288418493E+02 -0.33536408085E+02 -0.85096688996E+02  0.13160811669E+03  0.79523942071E+02 0.  0.
          6    2    1    2  501    0 -0.88947100425E+02 -0.50672792077E+02  0.60743520300E+03  0.63932817969E+03  0.17112474096E+03 0.  0.
         24    2    5    5    0    0 -0.11105503928E+03 -0.62056100687E+02  0.58937839005E+03  0.60823993160E+03  0.80029659216E+02 0.  0.
          5    1    5    5  501    0  0.22107938852E+02  0.11383308610E+02  0.18056812948E+02  0.31088248085E+02  0.47000000000E+01 0. -1.
        -11    1    6    6    0    0 -0.61974264841E+02  0.93238332968E+01  0.21348059325E+03  0.22248979092E+03  0.00000000000E+00 0.  1.
         12    1    6    6    0    0 -0.49080774435E+02 -0.71379933983E+02  0.37589779680E+03  0.38575014068E+03  0.00000000000E+00 0. -1.
         -5    1    3    3    0  503  0.37658681932E+02  0.84209200161E+02 -0.23015154282E+01  0.92394549027E+02  0.47000000000E+01 0.  1.
         13    1    4    4    0    0  0.20340148477E+01 -0.12356315121E+01 -0.71004938650E+02  0.71044812015E+02  0.00000000000E+00 0. -1.
        -14    1    4    4    0    0  0.49254403645E+02 -0.32300776573E+02 -0.14091750347E+02  0.60563304678E+02  0.00000000000E+00 0.  1.
</event>
<event>
12    1  0.8493057E-002  0.2225353E+03  0.7818608E-02  0.1132083E+00
         21   -1    0    0  501  502  0.00000000000E+00  0.00000000000E+00  0.11766960445E+04  0.11766960445E+04  0.00000000000E+00 0.  1.
         21   -1    0    0  502  503 -0.00000000000E+00 -0.00000000000E+00 -0.43392536670E+02  0.43392536670E+02  0.00000000000E+00 0. -1.
         -6    2    1    2    0  503  0.78819896671E+02 -0.11668330791E+03  0.67617948778E+03  0.71185719015E+03  0.17232059950E+03 0.  0.
        -24    2    3    3    0    0 -0.44610266522E+01 -0.64093550068E+02  0.49603939257E+03  0.50649424626E+03  0.79708585447E+02 0.  0.
          6    2    1    2  501    0 -0.78819896671E+02  0.11668330791E+03  0.45712402008E+03  0.50823139105E+03  0.17178243992E+03 0.  0.
         24    2    5    5    0    0 -0.20484160539E+02  0.57443611475E+02  0.38577567599E+03  0.39857248376E+03  0.79484484632E+02 0.  0.
          5    1    5    5  501    0 -0.58335736132E+02  0.59239696431E+02  0.71348344087E+02  0.10965890729E+03  0.47000000000E+01 0. -1.
        -13    1    6    6    0    0  0.24562360675E+02  0.19902106946E+02  0.22932133840E+03  0.23149012867E+03  0.00000000000E+00 0.  1.
         14    1    6    6    0    0 -0.45046521214E+02  0.37541504530E+02  0.15645433758E+03  0.16708235510E+03  0.00000000000E+00 0. -1.
         -5    1    3    3    0  503  0.83280923323E+02 -0.52589757839E+02  0.18014009521E+03  0.20536294389E+03  0.47000000000E+01 0.  1.
         11    1    4    4    0    0  0.21980986749E+02 -0.14227927944E+02  0.46007157413E+02  0.52936341442E+02  0.00000000000E+00 0. -1.
        -12    1    4    4    0    0 -0.26442013401E+02 -0.49865622124E+02  0.45003223516E+03  0.45355790482E+03  0.00000000000E+00 0.  1.
</event>
<event>
12    1  0.8493057E-002  0.1798795E+03  0.7818608E-02  0.1168473E+00
         21   -1    0    0  501  502  0.00000000000E+00  0.00000000000E+00  0.71954445817E+03  0.71954445817E+03  0.00000000000E+00 0. -1.
         21   -1    0    0  502  503 -0.00000000000E+00 -0.00000000000E+00 -0.10062088128E+03  0.10062088128E+03  0.00000000000E+00 0.  1.
         -6    2    1    2    0  503 -0.43801890540E+02 -0.17008230688E+02  0.20748479675E+01  0.17762429795E+03  0.17128397678E+03 0.  0.
        -24    2    3    3    0    0 -0.92081657911E+02 -0.46568687908E+00  0.21060907984E+02  0.12296945216E+03  0.78731669185E+02 0.  0.
          6    2    1    2  501    0  0.43801890540E+02  0.17008230688E+02  0.61684872892E+03  0.64254104149E+03  0.17363395435E+03 0.  0.
         24    2    5    5    0    0  0.40498219282E+02 -0.40629545654E+02  0.21372939254E+03  0.23528152120E+03  0.79914174193E+02 0.  0.
          5    1    5    5  501    0  0.33036712577E+01  0.57637776341E+02  0.40311933638E+03  0.40725952030E+03  0.47000000000E+01 0. -1.
        -11    1    6    6    0    0  0.20380331100E+02  0.18755055373E+02  0.28557397491E+02  0.39782344692E+02  0.00000000000E+00 0.  1.
         12    1    6    6    0    0  0.20117888182E+02 -0.59384601027E+02  0.18517199505E+03  0.19549917650E+03  0.00000000000E+00 0. -1.
         -5    1    3    3    0  503  0.48279767371E+02 -0.16542543809E+02 -0.18986060017E+02  0.54654845787E+02  0.47000000000E+01 0.  1.
         11    1    4    4    0    0 -0.69723284898E+02  0.33154362021E+02  0.27756015541E+02  0.82042334052E+02  0.00000000000E+00 0. -1.
        -12    1    4    4    0    0 -0.22358373013E+02 -0.33620048900E+02 -0.66951075565E+01  0.40927118113E+02  0.00000000000E+00 0.  1.
</event>
<event>
12    1  0.8493057E-002  0.2216246E+03  0.7818608E-02  0.1132719E+00
         21   -1    0    0  501  502  0.00000000000E+00  0.00000000000E+00  0.60732650123E+03  0.60732650123E+03  0.00000000000E+00 0.  1.
         21   -1    0    0  502  503 -0.00000000000E+00 -0.00000000000E+00 -0.84385908047E+02  0.84385908047E+02  0.00000000000E+00 0.  1.
         -6    2    1    2    0  503 -0.10113141676E+03  0.97935521041E+02  0.18999010356E+03  0.29174554608E+03  0.17088093653E+03 0.  0.
        -24    2    3    3    0    0 -0.10624270554E+03  0.58189321068E+02  0.20289777438E+03  0.24938301958E+03  0.79692371282E+02 0.  0.
          6    2    1    2  501    0  0.10113141676E+03 -0.97935521041E+02  0.33295048963E+03  0.39996686320E+03  0.17116814359E+03 0.  0.
         24    2    5    5    0    0  0.49009257054E+02 -0.12727520779E+03  0.26440841544E+03  0.30887546578E+03  0.83014200046E+02 0.  0.
          5    1    5    5  501    0  0.52122159707E+02  0.29339686747E+02  0.68542074190E+02  0.91091397427E+02  0.47000000000E+01 0. -1.
        -13    1    6    6    0    0  0.28528767692E+02 -0.92268416081E+02  0.24610937144E+03  0.26438073664E+03  0.00000000000E+00 0.  1.
         14    1    6    6    0    0  0.20480489362E+02 -0.35006791707E+02  0.18299043995E+02  0.44494729140E+02  0.00000000000E+00 0. -1.
         -5    1    3    3    0  503  0.51112887784E+01  0.39746199973E+02 -0.12907670819E+02  0.42362526498E+02  0.47000000000E+01 0.  1.
         11    1    4    4    0    0  0.39341227854E+01 -0.12167144161E+02  0.94210197141E+01  0.15883083189E+02  0.00000000000E+00 0. -1.
        -12    1    4    4    0    0 -0.11017682832E+03  0.70356465229E+02  0.19347675466E+03  0.23349993639E+03  0.00000000000E+00 0.  1.
</event>
<event>
12    1  0.8493057E-002  0.2243642E+03  0.7818608E-02  0.1130915E+00
         21   -1    0    0  501  502  0.00000000000E+00  0.00000000000E+00  0.42308204544E+03  0.42308204544E+03  0.00000000000E+00 0.  1.
         21   -1    0    0  502  503 -0.00000000000E+00 -0.00000000000E+00 -0.14732811471E+03  0.14732811471E+03  0.00000000000E+00 0. -1.
         -6    2    1    2    0  503 -0.14168379173E+03 -0.24957530684E+02  0.26486771203E+03  0.34712273704E+03  0.17216885467E+03 0.  0.
        -24    2    3    3    0    0 -0.14705738564E+03 -0.67657901501E+02  0.22320970549E+03  0.28704215209E+03  0.79794474381E+02 0.  0.
          6    2    1    2  501    0  0.14168379173E+03  0.24957530684E+02  0.10886218705E+02  0.22328742311E+03  0.17041592762E+03 0.  0.
         24    2    5    5    0    0  0.10193161561E+03  0.20611834727E+02  0.79822051396E+02  0.14345409919E+03  0.58246173206E+02 0.  0.
          5    1    5    5  501    0  0.39752176118E+02  0.43456959576E+01 -0.68935832691E+02  0.79833323921E+02  0.47000000000E+01 0. -1.
        -13    1    6    6    0    0  0.83038182696E+02 -0.18250587172E+01  0.35549218877E+02  0.90346098906E+02  0.00000000000E+00 0.  1.
         14    1    6    6    0    0  0.18893432914E+02  0.22436893444E+02  0.44272832519E+02  0.53108000282E+02  0.00000000000E+00 0. -1.
         -5    1    3    3    0  503  0.53735939157E+01  0.42700370817E+02  0.41658006541E+02  0.60080584954E+02  0.47000000000E+01 0.  1.
         13    1    4    4    0    0 -0.60318441433E+02 -0.32891022424E+02  0.35441878145E+02  0.77306276973E+02  0.00000000000E+00 0. -1.
        -14    1    4    4    0    0 -0.86738944210E+02 -0.34766879077E+02  0.18776782735E+03  0.20973587511E+03  0.00000000000E+00 0.  1.
</event>
<event>
12    1  0.8493057E-002  0.2071563E+03  0.7818608E-02  0.1144205E+00
         21   -1    0    0  503  502  0.00000000000E+00  0.00000000000E+00  0.57279305889E+03  0.57279305889E+03  0.00000000000E+00 0. -1.
         21   -1    0    0  501  503 -0.00000000000E+00 -0.00000000000E+00 -0.16453252450E+03  0.16453252450E+03  0.00000000000E+00 0. -1.
          6    2    1    2  501    0  0.62810641199E+02  0.93899977483E+02  0.47678938479E+03  0.51912854887E+03  0.17147580114E+03 0.  0.
         24    2    3    3    0    0  0.16002055366E+02  0.82838040799E+02  0.44825958968E+03  0.46300859377E+03  0.79511580190E+02 0.  0.
         -6    2    1    2    0  502 -0.62810641199E+02 -0.93899977483E+02 -0.68528850400E+02  0.21819703452E+03  0.17364147003E+03 0.  0.
        -24    2    5    5    0    0  0.29352616249E+02 -0.77670994711E+02 -0.33807305309E+02  0.11827145421E+03  0.77141710440E+02 0.  0.
          5    1    3    3  501    0  0.46808585833E+02  0.11061936684E+02  0.28529795111E+02  0.56119955095E+02  0.47000000000E+01 0. -1.
        -13    1    4    4    0    0 -0.19292011704E+02 -0.60962392784E+01  0.75160263124E+02  0.77835795119E+02  0.00000000000E+00 0.  1.
         14    1    4    4    0    0  0.35294067070E+02  0.88934280078E+02  0.37309932656E+03  0.38517279865E+03  0.00000000000E+00 0. -1.
         -5    1    5    5    0  502 -0.92163257449E+02 -0.16228982772E+02 -0.34721545090E+02  0.99925580303E+02  0.47000000000E+01 0.  1.
         13    1    6    6    0    0 -0.53735409492E+01 -0.47280806264E+02  0.16160914691E+02  0.50254599262E+02  0.00000000000E+00 0. -1.
        -14    1    6    6    0    0  0.34726157199E+02 -0.30390188447E+02 -0.49968220000E+02  0.68016854952E+02  0.00000000000E+00 0.  1.
</event>
<event>
12    1  0.8493057E-002  0.1863157E+03  0.7818608E-02  0.1162292E+00
         21   -1    0    0  503  502  0.00000000000E+00  0.00000000000E+00  0.32802179849E+03  0.32802179849E+03  0.00000000000E+00 0. -1.
         21   -1    0    0  501  503 -0.00000000000E+00 -0.00000000000E+00 -0.11951405642E+03  0.11951405642E+03  0.00000000000E+00 0. -1.
          6    2    1    2  501    0 -0.34393052495E+02 -0.61332203173E+02  0.24965561092E+02  0.18599946488E+03  0.17037605609E+03 0.  0.
         24    2    3    3    0    0 -0.85063713153E+01 -0.24912163111E+02  0.78617375833E+02  0.11601984780E+03  0.81159959820E+02 0.  0.
         -6    2    1    2    0  502  0.34393052495E+02  0.61332203173E+02  0.18354218097E+03  0.26153639004E+03  0.17253703924E+03 0.  0.
        -24    2    5    5    0    0  0.18493475025E+02 -0.28952746854E+02  0.55044913933E+02  0.10361930292E+03  0.80788286400E+02 0.  0.
          5    1    3    3  501    0 -0.25886681180E+02 -0.36420040062E+02 -0.53651814740E+02  0.69979617072E+02  0.47000000000E+01 0. -1.
        -11    1    4    4    0    0  0.26725727272E+02 -0.18642359949E+02  0.34483496024E+01  0.32767258013E+02  0.00000000000E+00 0.  1.
         12    1    4    4    0    0 -0.35232098588E+02 -0.62698031620E+01  0.75169026231E+02  0.83252589792E+02  0.00000000000E+00 0. -1.
         -5    1    5    5    0  502  0.15899577470E+02  0.90284950027E+02  0.12849726704E+03  0.15791708711E+03  0.47000000000E+01 0.  1.
         11    1    6    6    0    0  0.38027165500E+02 -0.40893090653E+02  0.15546417786E+02  0.57965518069E+02  0.00000000000E+00 0. -1.
        -12    1    6    6    0    0 -0.19533690475E+02  0.11940343798E+02  0.39498496147E+02  0.45653784853E+02  0.00000000000E+00 0.  1.
</event>
<event>
12    1  0.8493057E-002  0.2638772E+03  0.7818608E-02  0.1105106E+00
         21   -1    0    0  503  502  0.00000000000E+00  0.00000000000E+00  0.10841056588E+04  0.10841056588E+04  0.00000000000E+00 0.  1.
         21   -1    0    0  501  503 -0.00000000000E+00 -0.00000000000E+00 -0.80253957934E+02  0.80253957934E+02  0.00000000000E+00 0.  1.
          6    2    1    2  501    0  0.18195102407E+03  0.79270984397E+02  0.76703956292E+03  0.81116020991E+03  0.17389977265E+03 0.  0.
         24    2    3    3    0    0  0.11767086108E+03  0.97861159235E+02  0.36638861575E+03  0.40493268078E+03  0.79414231584E+02 0.  0.
         -6    2    1    2    0  502 -0.18195102407E+03 -0.79270984397E+02  0.23681213792E+03  0.35319940680E+03  0.17111331967E+03 0.  0.
        -24    2    5    5    0    0 -0.61668219535E+02 -0.21081849369E+02  0.18523495733E+03  0.20989475209E+03  0.74137735776E+02 0.  0.
          5    1    3    3  501    0  0.64280162990E+02 -0.18590174838E+02  0.40065094716E+03  0.40622752912E+03  0.47000000000E+01 0. -1.
        -13    1    4    4    0    0  0.71178752050E+02  0.10332670042E+03  0.27397788329E+03  0.30134150444E+03  0.00000000000E+00 0.  1.
         14    1    4    4    0    0  0.46492109032E+02 -0.54655411865E+01  0.92410732460E+02  0.10359117634E+03  0.00000000000E+00 0. -1.
         -5    1    5    5    0  502 -0.12028280454E+03 -0.58189135028E+02  0.51577180594E+02  0.14330465471E+03  0.47000000000E+01 0.  1.
         11    1    6    6    0    0 -0.13270423581E+01  0.22229253898E+02  0.26307640110E+02  0.34467269959E+02  0.00000000000E+00 0. -1.
        -12    1    6    6    0    0 -0.60341177177E+02 -0.43311103267E+02  0.15892731722E+03  0.17542748213E+03  0.00000000000E+00 0.  1.
</event>
<event>
12    1  0.8493057E-002  0.1840773E+03  0.7818608E-02  0.1165357E+00
         21   -1    0    0  503  502  0.00000000000E+00  0.00000000000E+00  0.62988103263E+03  0.62988103263E+03  0.00000000000E+00 0.  1.
         21   -1    0    0  501  503 -0.00000000000E+00 -0.00000000000E+00 -0.59605126158E+02  0.59605126158E+02  0.00000000000E+00 0.  1.
          6    2    1    2  501    0  0.43849969968E+02 -0.19208214415E+02  0.15824552985E+03  0.23820634633E+03  0.17149005903E+03 0.  0.
         24    2    3    3    0    0 -0.17097523878E+02 -0.14291244435E+01  0.18619722069E+02  0.84752284004E+02  0.80881937876E+02 0.  0.
         -6    2    1    2    0  502 -0.43849969968E+02  0.19208214415E+02  0.41203037663E+03  0.45127981246E+03  0.17774324883E+03 0.  0.
        -24    2    5    5    0    0  0.42468946376E+02 -0.11091410669E+02  0.20634691776E+03  0.22612031821E+03  0.81392364767E+02 0.  0.
          5    1    3    3  501    0  0.60947493846E+02 -0.17779089972E+02  0.13962580778E+03  0.15345406232E+03  0.47000000000E+01 0. -1.
        -11    1    4    4    0    0 -0.25047153613E+01 -0.40699429978E+02  0.84858261151E+01  0.41650047352E+02  0.00000000000E+00 0.  1.
         12    1    4    4    0    0 -0.14592808516E+02  0.39270305535E+02  0.10133895954E+02  0.43102236652E+02  0.00000000000E+00 0. -1.
         -5    1    5    5    0  502 -0.86318916344E+02  0.30299625084E+02  0.20568345887E+03  0.22515949425E+03  0.47000000000E+01 0.  1.
         11    1    6    6    0    0 -0.22262649956E+02 -0.15903876283E+02  0.68220143865E+02  0.73502019651E+02  0.00000000000E+00 0. -1.
        -12    1    6    6    0    0  0.64731596332E+02  0.48124656140E+01  0.13812677389E+03  0.15261829856E+03  0.00000000000E+00 0.  1.
</event>
<event>
12    1  0.8493057E-002  0.3437877E+03  0.7818608E-02  0.1065220E+00
         21   -1    0    0  503  502  0.00000000000E+00  0.00000000000E+00  0.37968349927E+03  0.37968349927E+03  0.00000000000E+00 0.  1.
         21   -1    0    0  501  503 -0.00000000000E+00 -0.00000000000E+00 -0.63328401743E+03  0.63328401743E+03  0.00000000000E+00 0.  1.
          6    2    1    2  501    0 -0.23991169717E+03  0.17775167841E+03 -0.48805659898E+03  0.59684296341E+03  0.16990879186E+03 0.  0.
         24    2    3    3    0    0 -0.19189126622E+03  0.70599504197E+02 -0.26399528715E+03  0.34383483768E+03  0.81989852552E+02 0.  0.
         -6    2    1    2    0  502  0.23991169717E+03 -0.17775167841E+03  0.23445608083E+03  0.41612455329E+03  0.17040160914E+03 0.  0.
        -24    2    5    5    0    0  0.12658561667E+03 -0.68909245836E+02  0.54439850125E+02  0.17713206603E+03  0.87405200219E+02 0.  0.
          5    1    3    3  501    0 -0.48020430945E+02  0.10715217421E+03 -0.22406131183E+03  0.25300812573E+03  0.47000000000E+01 0. -1.
        -13    1    4    4    0    0 -0.16922503609E+03  0.88901538011E+02 -0.22838268661E+03  0.29782418949E+03  0.00000000000E+00 0.  1.
         14    1    4    4    0    0 -0.22666230131E+02 -0.18302033814E+02 -0.35612600540E+02  0.46010648195E+02  0.00000000000E+00 0. -1.
         -5    1    5    5    0  502  0.11332608049E+03 -0.10884243257E+03  0.18001623070E+03  0.23899248726E+03  0.47000000000E+01 0.  1.
         11    1    6    6    0    0  0.12481739087E+03 -0.62399556021E+02  0.18737866921E+02  0.14079841374E+03  0.00000000000E+00 0. -1.
        -12    1    6    6    0    0  0.17682257994E+01 -0.65096898149E+01  0.35701983204E+02  0.36333652289E+02  0.00000000000E+00 0.  1.
</event>
<event>
12    1  0.8493057E-002  0.2643956E+03  0.7818608E-02  0.1104903E+00
         21   -1    0    0  503  502  0.00000000000E+00  0.00000000000E+00  0.39195503770E+03  0.39195503770E+03  0.00000000000E+00 0. -1.
         21   -1    0    0  501  503 -0.00000000000E+00 -0.00000000000E+00 -0.19180656361E+03  0.19180656361E+03  0.00000000000E+00 0.  1.
          6    2    1    2  501    0 -0.19417555018E+03 -0.31492943838E+02  0.18254740581E+03  0.32129209075E+03  0.17666098157E+03 0.  0.
         24    2    3    3    0    0 -0.12830346801E+03  0.28778324650E+02  0.50472786387E+02  0.16180054830E+03  0.79636319561E+02 0.  0.
         -6    2    1    2    0  502  0.19417555018E+03  0.31492943838E+02  0.17601068281E+02  0.26246951056E+03  0.17287132952E+03 0.  0.
        -24    2    5    5    0    0  0.81761533783E+02  0.78184645186E+02  0.47296014599E+01  0.13997546697E+03  0.82298086701E+02 0.  0.
          5    1    3    3  501    0 -0.65872082173E+02 -0.60271268488E+02  0.13207461943E+03  0.15949154245E+03  0.47000000000E+01 0. -1.
        -11    1    4    4    0    0 -0.61585399415E+02 -0.26250860635E+02  0.17059467916E+02  0.69086138630E+02  0.00000000000E+00 0.  1.
         12    1    4    4    0    0 -0.66718068590E+02  0.55029185285E+02  0.33413318472E+02  0.92714409672E+02  0.00000000000E+00 0. -1.
         -5    1    5    5    0  502  0.11241401640E+03 -0.46691701348E+02  0.12871466821E+02  0.12249404359E+03  0.47000000000E+01 0.  1.
         13    1    6    6    0    0 -0.13366780411E+02  0.64422132509E+01  0.14086916084E+02  0.20460061947E+02  0.00000000000E+00 0. -1.
        -14    1    6    6    0    0  0.95128314194E+02  0.71742431935E+02 -0.93573146244E+01  0.11951540502E+03  0.00000000000E+00 0.  1.
</event>
<event>
12    1  0.8493057E-002  0.1739487E+03  0.7818608E-02  0.1173855E+00
         21   -1    0    0  503  502  0.00000000000E+00  0.00000000000E+00  0.99064833494E+03  0.99064833494E+03  0.00000000000E+00 0. -1.
         21   -1    0    0  501  503 -0.00000000000E+00 -0.00000000000E+00 -0.35439277135E+02  0.35439277135E+02  0.00000000000E+00 0. -1.
          6    2    1    2  501    0  0.21826824144E+02  0.13051001586E+02  0.28636347964E+03  0.33505549051E+03  0.17207963377E+03 0.  0.
         24    2    3    3    0    0 -0.38821042315E+02 -0.28906934137E+02  0.20443028107E+03  0.22472067686E+03  0.79780690786E+02 0.  0.
         -6    2    1    2    0  502 -0.21826824144E+02 -0.13051001586E+02  0.66884557817E+03  0.69103212156E+03  0.17182621076E+03 0.  0.
        -24    2    5    5    0    0  0.29885973836E+02 -0.42378275977E+02  0.55216440493E+03  0.55999438392E+03  0.77582796059E+02 0.  0.
          5    1    3    3  501    0  0.60647866459E+02  0.41957935723E+02  0.81933198571E+02  0.11033481365E+03  0.47000000000E+01 0. -1.
        -13    1    4    4    0    0  0.14445371794E+02 -0.35028719662E+02  0.63629938227E+02  0.74057065876E+02  0.00000000000E+00 0.  1.
         14    1    4    4    0    0 -0.53266414109E+02  0.61217855243E+01  0.14080034284E+03  0.15066361098E+03  0.00000000000E+00 0. -1.
         -5    1    5    5    0  502 -0.51712797980E+02  0.29327274391E+02  0.11668117324E+03  0.13103773764E+03  0.47000000000E+01 0.  1.
         11    1    6    6    0    0 -0.79522458893E+01 -0.51241134732E+02  0.37845256949E+03  0.38198853315E+03  0.00000000000E+00 0. -1.
        -12    1    6    6    0    0  0.37838219725E+02  0.88628587553E+01  0.17371183544E+03  0.17800585077E+03  0.00000000000E+00 0.  1.
</event>
<event>
12    1  0.8493057E-002  0.2195518E+03  0.7818608E-02  0.1134335E+00
         21   -1    0    0  501  502  0.00000000000E+00  0.00000000000E+00  0.92844831894E+03  0.92844831894E+03  0.00000000000E+00 0.  1.
         21   -1    0    0  502  503 -0.00000000000E+00 -0.00000000000E+00 -0.52905141975E+02  0.52905141975E+02  0.00000000000E+00 0.  1.
         -6    2    1    2    0  503 -0.65007075249E+02 -0.11925401024E+03  0.51028489552E+03  0.55551208218E+03  0.17249800017E+03 0.  0.
        -24    2    3    3    0    0 -0.70770326990E+01 -0.10599398346E+03  0.20023529576E+03  0.23978346066E+03  0.78212054148E+02 0.  0.
          6    2    1    2  501    0  0.65007075249E+02  0.11925401024E+03  0.36525828145E+03  0.42584137873E+03  0.17169690995E+03 0.  0.
         24    2    5    5    0    0  0.67578254238E+02  0.28919761231E+01  0.16107225732E+03  0.19076531361E+03  0.76628642337E+02 0.  0.
          5    1    5    5  501    0 -0.25711789887E+01  0.11636203412E+03  0.20418602413E+03  0.23507606512E+03  0.47000000000E+01 0. -1.
        -13    1    6    6    0    0  0.39221257262E+02  0.33984924725E+02  0.12497707802E+03  0.13532387875E+03  0.00000000000E+00 0.  1.
         14    1    6    6    0    0  0.28356996975E+02 -0.31092948602E+02  0.36095179296E+02  0.55441434854E+02  0.00000000000E+00 0. -1.
         -5    1    3    3    0  503 -0.57930042550E+02 -0.13260026781E+02  0.31004959976E+03  0.31572862152E+03  0.47000000000E+01 0.  1.
         11    1    4    4    0    0 -0.35565902972E+02 -0.88569667248E+02  0.16883126732E+03  0.19394204350E+03  0.00000000000E+00 0. -1.
        -12    1    4    4    0    0  0.28488870273E+02 -0.17424316214E+02  0.31404028443E+02  0.45841417162E+02  0.00000000000E+00 0.  1.
</event>
<event>
12    1  0.8493057E-002  0.2787061E+03  0.7818608E-02  0.1096455E+00
         21   -1    0    0  503  502  0.00000000000E+00  0.00000000000E+00  0.27662035835E+03  0.27662035835E+03  0.00000000000E+00 0.  1.
         21   -1    0    0  501  503 -0.00000000000E+00 -0.00000000000E+00 -0.36931504715E+03  0.36931504715E+03  0.00000000000E+00 0.  1.
          6    2    1    2  501    0 -0.68682215240E+02 -0.20826868728E+03 -0.20480361295E+03  0.34552649107E+03  0.17132117020E+03 0.  0.
         24    2    3    3    0    0 -0.14711233558E+02 -0.18659401981E+03 -0.13489375004E+03  0.25446531929E+03  0.10734303098E+03 0.  0.
         -6    2    1    2    0  502  0.68682215240E+02  0.20826868728E+03  0.11210892414E+03  0.30040891443E+03  0.17200003547E+03 0.  0.
        -24    2    5    5    0    0  0.51634184322E+02  0.32972457217E+02  0.49489415207E+02  0.11342576938E+03  0.81626778792E+02 0.  0.
          5    1    3    3  501    0 -0.53970981682E+02 -0.21674667476E+02 -0.69909862908E+02  0.91061171778E+02  0.47000000000E+01 0. -1.
        -13    1    4    4    0    0  0.40052699423E+02 -0.64980751362E+02 -0.78996776379E+02  0.10985084186E+03  0.00000000000E+00 0.  1.
         14    1    4    4    0    0 -0.54763932981E+02 -0.12161326845E+03 -0.55896973661E+02  0.14461447743E+03  0.00000000000E+00 0. -1.
         -5    1    5    5    0  502  0.17048030917E+02  0.17529623007E+03  0.62619508935E+02  0.18698314505E+03  0.47000000000E+01 0.  1.
         11    1    6    6    0    0 -0.47986728073E+01 -0.88329395662E-01  0.47758308812E+02  0.47998865855E+02  0.00000000000E+00 0. -1.
        -12    1    6    6    0    0  0.56432857130E+02  0.33060786613E+02  0.17311063950E+01  0.65426903523E+02  0.00000000000E+00 0.  1.
</event>
<event>
12    1  0.8493057E-002  0.2115910E+03  0.7818608E-02  0.1142508E+00
         21   -1    0    0  503  502  0.00000000000E+00  0.00000000000E+00  0.10717767972E+04  0.10717767972E+04  0.00000000000E+00 0. -1.
         21   -1    0    0  501  503 -0.00000000000E+00 -0.00000000000E+00 -0.77104408889E+02  0.77104408889E+02  0.00000000000E+00 0. -1.
          6    2    1    2  501    0  0.32923065883E+02  0.99719251567E+02  0.90291057650E+02  0.22007748239E+03  0.17103732273E+03 0.  0.
         24    2    3    3    0    0 -0.38080285364E+02  0.89932219098E+02  0.74368366923E+02  0.14650517801E+03  0.79970000742E+02 0.  0.
         -6    2    1    2    0  502 -0.32923065883E+02 -0.99719251567E+02  0.90438133061E+03  0.92880372365E+03  0.18369242907E+03 0.  0.
        -24    2    5    5    0    0 -0.83748242865E+02 -0.22007623897E+02  0.48865544894E+03  0.50280795561E+03  0.80830617687E+02 0.  0.
          5    1    3    3  501    0  0.71003351247E+02  0.97870324696E+01  0.15922690727E+02  0.73572304388E+02  0.47000000000E+01 0. -1.
        -13    1    4    4    0    0 -0.15595599689E+02  0.13270057806E+02 -0.15925729823E+02  0.25941203407E+02  0.00000000000E+00 0.  1.
         14    1    4    4    0    0 -0.22484685676E+02  0.76662161292E+02  0.90294096747E+02  0.12056397460E+03  0.00000000000E+00 0. -1.
         -5    1    5    5    0  502  0.50825176981E+02 -0.77711627670E+02  0.41572588167E+03  0.42599576804E+03  0.47000000000E+01 0.  1.
         11    1    6    6    0    0 -0.48809120117E+02 -0.50203846114E+02  0.23499646711E+03  0.24520623142E+03  0.00000000000E+00 0. -1.
        -12    1    6    6    0    0 -0.34939122748E+02  0.28196222217E+02  0.25365898183E+03  0.25760172419E+03  0.00000000000E+00 0.  1.
</event>
<event>
12    1  0.8493057E-002  0.2065662E+03  0.7818608E-02  0.1144455E+00
         21   -1    0    0  503  502  0.00000000000E+00  0.00000000000E+00  0.71932666401E+03  0.71932666401E+03  0.00000000000E+00 0. -1.
         21   -1    0    0  501  503 -0.00000000000E+00 -0.00000000000E+00 -0.66534668965E+02  0.66534668965E+02  0.00000000000E+00 0. -1.
          6    2    1    2  501    0  0.11341348126E+03 -0.19420970763E+01  0.19571384222E+03  0.28455846342E+03  0.17263609586E+03 0.  0.
         24    2    3    3    0    0  0.80911110463E+02 -0.53711224031E+02  0.18277059170E+03  0.22190014915E+03  0.80019270292E+02 0.  0.
         -6    2    1    2    0  502 -0.11341348126E+03  0.19420970763E+01  0.45707815283E+03  0.50130286956E+03  0.17180727506E+03 0.  0.
        -24    2    5    5    0    0 -0.96478882445E+01  0.25798216971E+02  0.29002444497E+03  0.30314776854E+03  0.83819813554E+02 0.  0.
          5    1    3    3  501    0  0.32502370799E+02  0.51769126955E+02  0.12943250518E+02  0.62658314270E+02  0.47000000000E+01 0. -1.
        -13    1    4    4    0    0  0.50279098463E+02  0.10620683518E+02  0.52796290291E+02  0.73676556170E+02  0.00000000000E+00 0.  1.
         14    1    4    4    0    0  0.30632012000E+02 -0.64331907549E+02  0.12997430141E+03  0.14822359298E+03  0.00000000000E+00 0. -1.
         -5    1    5    5    0  502 -0.10376559302E+03 -0.23856119895E+02  0.16705370785E+03  0.19815510101E+03  0.47000000000E+01 0.  1.
         13    1    6    6    0    0 -0.32398331736E+02  0.23020567937E+02  0.26939682851E+03  0.27231277910E+03  0.00000000000E+00 0. -1.
        -14    1    6    6    0    0  0.22750443492E+02  0.27776490336E+01  0.20627616460E+02  0.30834989444E+02  0.00000000000E+00 0.  1.
</event>
<event>
12    1  0.8493057E-002  0.2058389E+03  0.7818608E-02  0.1145271E+00
         21   -1    0    0  501  502  0.00000000000E+00  0.00000000000E+00  0.35878015603E+03  0.35878015603E+03  0.00000000000E+00 0. -1.
         21   -1    0    0  502  503 -0.00000000000E+00 -0.00000000000E+00 -0.17852099673E+03  0.17852099673E+03  0.00000000000E+00 0.  1.
         -6    2    1    2    0  503 -0.43303722416E+02  0.10346177822E+03 -0.67236360175E+02  0.21654184586E+03  0.17259806184E+03 0.  0.
        -24    2    3    3    0    0 -0.91992951887E+02  0.57846710689E+02 -0.24913083071E+02  0.13739182857E+03  0.80292637990E+02 0.  0.
          6    2    1    2  501    0  0.43303722416E+02 -0.10346177822E+03  0.24749551947E+03  0.32075930689E+03  0.17044925601E+03 0.  0.
         24    2    5    5    0    0  0.61025320571E+02 -0.12375180511E+03  0.24667574075E+03  0.29340053738E+03  0.78716931094E+02 0.  0.
          5    1    5    5  501    0 -0.17721598155E+02  0.20290026890E+02  0.81977872314E+00  0.27358769518E+02  0.47000000000E+01 0. -1.
        -13    1    6    6    0    0  0.23724730808E+02  0.26527172155E+00  0.15252967644E+02  0.28206138391E+02  0.00000000000E+00 0.  1.
         14    1    6    6    0    0  0.37300589763E+02 -0.12401707683E+03  0.23142277311E+03  0.26519439899E+03  0.00000000000E+00 0. -1.
         -5    1    3    3    0  503  0.48689229471E+02  0.45615067527E+02 -0.42323277104E+02  0.79150017289E+02  0.47000000000E+01 0.  1.
         11    1    4    4    0    0  0.52069504763E+01  0.40895365571E+01  0.17332751874E+02  0.18554269860E+02  0.00000000000E+00 0. -1.
        -12    1    4    4    0    0 -0.97199902363E+02  0.53757174132E+02 -0.42245834945E+02  0.11883755871E+03  0.00000000000E+00 0.  1.
</event>
<event>
12    1  0.8493057E-002  0.3185773E+03  0.7818608E-02  0.1076355E+00
         21   -1    0    0  501  502  0.00000000000E+00  0.00000000000E+00  0.47482993086E+03  0.47482993086E+03  0.00000000000E+00 0. -1.
         21   -1    0    0  502  503 -0.00000000000E+00 -0.00000000000E+00 -0.21448695554E+03  0.21448695554E+03  0.00000000000E+00 0.  1.
         -6    2    1    2    0  503 -0.26783572408E+03  0.19331300338E+02  0.10639768315E+03  0.33587493670E+03  0.17141129443E+03 0.  0.
        -24    2    3    3    0    0 -0.22573787243E+03  0.43865662985E+02  0.30024530033E+02  0.24516048041E+03  0.79500976799E+02 0.  0.
          6    2    1    2  501    0  0.26783572408E+03 -0.19331300338E+02  0.15394529217E+03  0.35344194970E+03  0.17062351703E+03 0.  0.
         24    2    5    5    0    0  0.22505806492E+03  0.39108443745E+02  0.88101835982E+02  0.25544918194E+03  0.72881740445E+02 0.  0.
          5    1    5    5  501    0  0.42777659159E+02 -0.58439744084E+02  0.65843456192E+02  0.97992767769E+02  0.47000000000E+01 0. -1.
        -11    1    6    6    0    0  0.17437031703E+03  0.43595653833E+02  0.96295343162E+02  0.20390777721E+03  0.00000000000E+00 0.  1.
         12    1    6    6    0    0  0.50687747893E+02 -0.44872100882E+01 -0.81935071801E+01  0.51541404722E+02  0.00000000000E+00 0. -1.
         -5    1    3    3    0  503 -0.42097851648E+02 -0.24534362647E+02  0.76373153113E+02  0.90714456292E+02  0.47000000000E+01 0.  1.
         11    1    4    4    0    0 -0.77554837572E+02 -0.89135158630E+01  0.39663440918E+02  0.87563646232E+02  0.00000000000E+00 0. -1.
        -12    1    4    4    0    0 -0.14818303486E+03  0.52779178848E+02 -0.96389108850E+01  0.15759683418E+03  0.00000000000E+00 0.  1.
</event>
<event>
12    1  0.8493057E-002  0.1751310E+03  0.7818608E-02  0.1172948E+00
         21   -1    0    0  503  502  0.00000000000E+00  0.00000000000E+00  0.20299787210E+03  0.20299787210E+03  0.00000000000E+00 0.  1.
         21   -1    0    0  501  503 -0.00000000000E+00 -0.00000000000E+00 -0.21793111858E+03  0.21793111858E+03  0.00000000000E+00 0. -1.
          6    2    1    2  501    0  0.16070919814E+02  0.13662096539E+02  0.11010119663E+03  0.20686505546E+03  0.17385611961E+03 0.  0.
         24    2    3    3    0    0  0.46209617692E+02 -0.47089310485E+02  0.84452135946E+02  0.13420806076E+03  0.80789283806E+02 0.  0.
         -6    2    1    2    0  502 -0.16070919814E+02 -0.13662096539E+02 -0.12503444311E+03  0.21406393522E+03  0.17246689262E+03 0.  0.
        -24    2    5    5    0    0  0.35175912233E+02  0.13318492057E+02 -0.12761683818E+03  0.15590081357E+03  0.81266716753E+02 0.  0.
          5    1    3    3  501    0 -0.30138697878E+02  0.60751407024E+02  0.25649060689E+02  0.72656994704E+02  0.47000000000E+01 0. -1.
        -11    1    4    4    0    0  0.17323730447E+01 -0.37344675013E+02  0.80190560252E+02  0.88476843421E+02  0.00000000000E+00 0.  1.
         12    1    4    4    0    0  0.44477244647E+02 -0.97446354726E+01  0.42615756934E+01  0.45731217339E+02  0.00000000000E+00 0. -1.
         -5    1    5    5    0  502 -0.51246832047E+02 -0.26980588596E+02  0.25823950690E+01  0.58163121651E+02  0.47000000000E+01 0.  1.
         11    1    6    6    0    0 -0.17802785965E+02  0.24958408064E+02 -0.23959745518E+02  0.38909262734E+02  0.00000000000E+00 0. -1.
        -12    1    6    6    0    0  0.52978698198E+02 -0.11639916007E+02 -0.10365709266E+03  0.11699155084E+03  0.00000000000E+00 0.  1.
</event>
<event>
12    1  0.8493057E-002  0.1916661E+03  0.7818608E-02  0.1156976E+00
         21   -1    0    0  501  502  0.00000000000E+00  0.00000000000E+00  0.83705444948E+02  0.83705444948E+02  0.00000000000E+00 0.  1.
         21   -1    0    0  502  503 -0.00000000000E+00 -0.00000000000E+00 -0.46183767191E+03  0.46183767191E+03  0.00000000000E+00 0.  1.
         -6    2    1    2    0  503 -0.84427826786E+02  0.41155270222E+01 -0.24999429838E+03  0.31498892632E+03  0.17197639076E+03 0.  0.
        -24    2    3    3    0    0 -0.73550671844E+01  0.57434315427E+02 -0.12938026576E+03  0.16217224419E+03  0.78789504485E+02 0.  0.
          6    2    1    2  501    0  0.84427826786E+02 -0.41155270222E+01 -0.12813792858E+03  0.23055419054E+03  0.17202008760E+03 0.  0.
         24    2    5    5    0    0  0.12531934094E+03 -0.90674268392E+01 -0.90297200567E+02  0.17442355774E+03  0.80516070572E+02 0.  0.
          5    1    5    5  501    0 -0.40891514158E+02  0.49518998170E+01 -0.37840728010E+02  0.56130632798E+02  0.47000000000E+01 0. -1.
        -11    1    6    6    0    0  0.58363406545E+02  0.34656920143E+02 -0.29707814865E+02  0.74094153625E+02  0.00000000000E+00 0.  1.
         12    1    6    6    0    0  0.66955934400E+02 -0.43724346983E+02 -0.60589385702E+02  0.10032940412E+03  0.00000000000E+00 0. -1.
         -5    1    3    3    0  503 -0.77072759602E+02 -0.53318788405E+02 -0.12061403263E+03  0.15281668213E+03  0.47000000000E+01 0.  1.
         13    1    4    4    0    0  0.21711695779E+02  0.15561815664E+02 -0.99638962878E+02  0.10315760158E+03  0.00000000000E+00 0. -1.
        -14    1    4    4    0    0 -0.29066762964E+02  0.41872499763E+02 -0.29741302878E+02  0.59014642611E+02  0.00000000000E+00 0.  1.
</event>
<event>
12    1  0.8493057E-002  0.2173781E+03  0.7818608E-02  0.1135869E+00
         21   -1    0    0  501  502  0.00000000000E+00  0.00000000000E+00  0.75495925148E+03  0.75495925148E+03  0.00000000000E+00 0. -1.
         21   -1    0    0  502  503 -0.00000000000E+00 -0.00000000000E+00 -0.27693230622E+03  0.27693230622E+03  0.00000000000E+00 0. -1.
         -6    2    1    2    0  503  0.12533641667E+03  0.42826942441E+02 -0.21493363692E+03  0.30563567313E+03  0.17225949051E+03 0.  0.
        -24    2    3    3    0    0  0.16230014822E+03  0.48872967264E+02 -0.15495377170E+03  0.23476574934E+03  0.48727616989E+02 0.  0.
          6    2    1    2  501    0 -0.12533641667E+03 -0.42826942441E+02  0.69296058218E+03  0.72625588457E+03  0.17236553333E+03 0.  0.
         24    2    5    5    0    0 -0.10435900162E+03 -0.23456189099E+02  0.26493743277E+03  0.29725566959E+03  0.82024970550E+02 0.  0.
          5    1    5    5  501    0 -0.20977415053E+02 -0.19370753342E+02  0.42802314941E+03  0.42900021498E+03  0.47000000000E+01 0. -1.
        -11    1    6    6    0    0 -0.54478585330E+02 -0.53510991711E+02  0.15816266563E+03  0.17563248929E+03  0.00000000000E+00 0.  1.
         12    1    6    6    0    0 -0.49880416289E+02  0.30054802612E+02  0.10677476714E+03  0.12162318030E+03  0.00000000000E+00 0. -1.
         -5    1    3    3    0  503 -0.36963731552E+02 -0.60460248235E+01 -0.59979865222E+02  0.70869923793E+02  0.47000000000E+01 0.  1.
         13    1    4    4    0    0  0.56831186126E+02  0.55422194089E+00 -0.73981125908E+02  0.93291467290E+02  0.00000000000E+00 0. -1.
        -14    1    4    4    0    0  0.10546896210E+03  0.48318745323E+02 -0.80972645788E+02  0.14147428205E+03  0.00000000000E+00 0.  1.
</event>
<event>
12    1  0.8493057E-002  0.1800285E+03  0.7818608E-02  0.1167801E+00
         21   -1    0    0  503  502  0.00000000000E+00  0.00000000000E+00  0.16081358628E+03  0.16081358628E+03  0.00000000000E+00 0.  1.
         21   -1    0    0  501  503 -0.00000000000E+00 -0.00000000000E+00 -0.20456435980E+03  0.20456435980E+03  0.00000000000E+00 0.  1.
          6    2    1    2  501    0 -0.41151029619E+02 -0.34827064138E+02 -0.44516022761E+02  0.18534784622E+03  0.17165609858E+03 0.  0.
         24    2    3    3    0    0 -0.84407166932E+02 -0.71761971591E+01 -0.62327001578E+02  0.13080442474E+03  0.77775798108E+02 0.  0.
         -6    2    1    2    0  502  0.41151029619E+02  0.34827064138E+02  0.76524923967E+00  0.18003009986E+03  0.17176705043E+03 0.  0.
        -24    2    5    5    0    0  0.80991491241E+02  0.24348176218E+02  0.41373008377E+02  0.12199433867E+03  0.77578589230E+02 0.  0.
          5    1    3    3  501    0  0.43256137314E+02 -0.27650866979E+02  0.17810978818E+02  0.54543421477E+02  0.47000000000E+01 0. -1.
        -11    1    4    4    0    0 -0.67283731990E+02 -0.28749326974E+02 -0.13008086643E+02  0.74315776992E+02  0.00000000000E+00 0.  1.
         12    1    4    4    0    0 -0.17123434943E+02  0.21573129814E+02 -0.49318914936E+02  0.56488647750E+02  0.00000000000E+00 0. -1.
         -5    1    5    5    0  502 -0.39840461622E+02  0.10478887920E+02 -0.40607759137E+02  0.58035761186E+02  0.47000000000E+01 0.  1.
         11    1    6    6    0    0  0.46271843868E+01 -0.94186629896E+00  0.41281988204E+02  0.41551179256E+02  0.00000000000E+00 0. -1.
        -12    1    6    6    0    0  0.76364306854E+02  0.25290042517E+02  0.91020172279E-01  0.80443159414E+02  0.00000000000E+00 0.  1.
</event>
<event>
12    1  0.8493057E-002  0.2134140E+03  0.7818608E-02  0.1138992E+00
         21   -1    0    0  503  502  0.00000000000E+00  0.00000000000E+00  0.39638769854E+03  0.39638769854E+03  0.00000000000E+00 0. -1.
         21   -1    0    0  501  503 -0.00000000000E+00 -0.00000000000E+00 -0.17724985330E+03  0.17724985330E+03  0.00000000000E+00 0.  1.
          6    2    1    2  501    0 -0.90008774180E+02  0.86137414713E+02 -0.61007974752E+02  0.22146254527E+03  0.17263386785E+03 0.  0.
         24    2    3    3    0    0 -0.79578089586E+02  0.72069452399E+02  0.28576649121E+02  0.13006122373E+03  0.67621141153E+02 0.  0.
         -6    2    1    2    0  502  0.90008774180E+02 -0.86137414713E+02  0.28014581999E+03  0.35217500657E+03  0.17327527565E+03 0.  0.
        -24    2    5    5    0    0  0.13136990579E+03 -0.72345684919E+02  0.22605331055E+03  0.28253992492E+03  0.78973158025E+02 0.  0.
          5    1    3    3  501    0 -0.10430684594E+02  0.14067962314E+02 -0.89584623873E+02  0.91401321540E+02  0.47000000000E+01 0. -1.
        -11    1    4    4    0    0 -0.80446564759E+02  0.32838097286E+02  0.13073026782E+02  0.87868620361E+02  0.00000000000E+00 0.  1.
         12    1    4    4    0    0  0.86847517259E+00  0.39231355113E+02  0.15503622339E+02  0.42192603365E+02  0.00000000000E+00 0. -1.
         -5    1    5    5    0  502 -0.41361131612E+02 -0.13791729794E+02  0.54092509442E+02  0.69635081652E+02  0.47000000000E+01 0.  1.
         11    1    6    6    0    0  0.56142628263E+02  0.11009349601E+02  0.76912103525E+02  0.95857561807E+02  0.00000000000E+00 0. -1.
        -12    1    6    6    0    0  0.75227277529E+02 -0.83355034520E+02  0.14914120703E+03  0.18668236311E+03  0.00000000000E+00 0.  1.
</event>
<event>
12    1  0.8493057E-002  0.2430807E+03  0.7818608E-02  0.1118363E+00
         21   -1    0    0  501  502  0.00000000000E+00  0.00000000000E+00  0.10193064871E+04  0.10193064871E+04  0.00000000000E+00 0. -1.
         21   -1    0    0  502  503 -0.00000000000E+00 -0.00000000000E+00 -0.81469135784E+02  0.81469135784E+02  0.00000000000E+00 0. -1.
         -6    2    1    2    0  503  0.16429200626E+03  0.34719158142E+02  0.17039175418E+03  0.29685276465E+03  0.17575815976E+03 0.  0.
        -24    2    3    3    0    0  0.11544474294E+03  0.64692433451E+02  0.18214213160E+03  0.23816193286E+03  0.77670783048E+02 0.  0.
          6    2    1    2  501    0 -0.16429200626E+03 -0.34719158142E+02  0.76744559717E+03  0.80392285827E+03  0.17065149915E+03 0.  0.
         24    2    5    5    0    0 -0.43187439613E+02 -0.98176466914E+01  0.51178386279E+03  0.51989572266E+03  0.80045606360E+02 0.  0.
          5    1    5    5  501    0 -0.12110456665E+03 -0.24901511451E+02  0.25566173438E+03  0.28402713561E+03  0.47000000000E+01 0. -1.
        -11    1    6    6    0    0  0.22016015100E+02 -0.32212105497E+01  0.20412785185E+03  0.20533694509E+03  0.00000000000E+00 0.  1.
         12    1    6    6    0    0 -0.65203454713E+02 -0.65964361417E+01  0.30765601095E+03  0.31455877757E+03  0.00000000000E+00 0. -1.
         -5    1    3    3    0  503  0.48847263319E+02 -0.29973275309E+02 -0.11750377425E+02  0.58690831789E+02  0.47000000000E+01 0.  1.
         11    1    4    4    0    0  0.64435594413E+02  0.54982317449E+02  0.55447336168E+02  0.10123936066E+03  0.00000000000E+00 0. -1.
        -12    1    4    4    0    0  0.51009148532E+02  0.97101160025E+01  0.12669479543E+03  0.13692257220E+03  0.00000000000E+00 0.  1.
</event>
<event>
12    1  0.8493057E-002  0.3307005E+03  0.7818608E-02  0.1070838E+00
         21   -1    0    0  501  502  0.00000000000E+00  0.00000000000E+00  0.13845575807E+03  0.13845575807E+03  0.00000000000E+00 0.  1.
         21   -1    0    0  502  503 -0.00000000000E+00 -0.00000000000E+00 -0.10726086757E+04  0.10726086757E+04  0.00000000000E+00 0.  1.
         -6    2    1    2    0  503  0.23683310664E+03  0.15414993239E+03 -0.77813511595E+03  0.84549221227E+03  0.17178678728E+03 0.  0.
        -24    2    3    3    0    0  0.63328184094E+02  0.10460426022E+03 -0.41853681111E+03  0.44313445775E+03  0.79009969227E+02 0.  0.
          6    2    1    2  501    0 -0.23683310664E+03 -0.15414993239E+03 -0.15601780170E+03  0.36557222151E+03  0.17160819514E+03 0.  0.
         24    2    5    5    0    0 -0.14500349964E+03 -0.14075541124E+03 -0.41857850684E+02  0.21837618103E+03  0.71400112565E+02 0.  0.
          5    1    5    5  501    0 -0.91829606997E+02 -0.13394521144E+02 -0.11415995102E+03  0.14719604048E+03  0.47000000000E+01 0. -1.
        -13    1    6    6    0    0 -0.81750354490E+02 -0.12090582733E+03 -0.14534525496E+02  0.14667171497E+03  0.00000000000E+00 0.  1.
         14    1    6    6    0    0 -0.63253145152E+02 -0.19849583914E+02 -0.27323325188E+02  0.71704466056E+02  0.00000000000E+00 0. -1.
         -5    1    3    3    0  503  0.17350492254E+03  0.49545672167E+02 -0.35959830484E+03  0.40235775452E+03  0.47000000000E+01 0.  1.
         11    1    4    4    0    0  0.55829997513E+02  0.51533363043E+02 -0.33771062352E+03  0.34615190504E+03  0.00000000000E+00 0. -1.
        -12    1    4    4    0    0  0.74981865814E+01  0.53070897179E+02 -0.80826187592E+02  0.96982552709E+02  0.00000000000E+00 0.  1.
</event>
<event>
12    1  0.8493057E-002  0.2175748E+03  0.7818608E-02  0.1135798E+00
         21   -1    0    0  503  502  0.00000000000E+00  0.00000000000E+00  0.21159258288E+04  0.21159258288E+04  0.00000000000E+00 0. -1.
         21   -1    0    0  501  503 -0.00000000000E+00 -0.00000000000E+00 -0.26565396296E+02  0.26565396296E+02  0.00000000000E+00 0. -1.
          6    2    1    2  501    0 -0.83171286714E+02 -0.10487741363E+03  0.61752511417E+03  0.65473359111E+03  0.17152863865E+03 0.  0.
         24    2    3    3    0    0 -0.56927743920E+02 -0.11038844295E+03  0.27873474615E+03  0.31485111371E+03  0.77535725488E+02 0.  0.
         -6    2    1    2    0  502  0.83171286714E+02  0.10487741363E+03  0.14718353183E+04  0.14877576339E+04  0.17090008298E+03 0.  0.
        -24    2    5    5    0    0  0.13947707965E+02  0.82136102265E+02  0.12255916907E+04  0.12309170507E+04  0.78363993063E+02 0.  0.
          5    1    3    3  501    0 -0.26243542794E+02  0.55110293225E+01  0.33879036802E+03  0.33988247741E+03  0.47000000000E+01 0. -1.
        -13    1    4    4    0    0  0.46594445871E+01  0.15463074153E+01  0.69651008083E+02  0.69823809818E+02  0.00000000000E+00 0.  1.
         14    1    4    4    0    0 -0.61587188507E+02 -0.11193475037E+03  0.20908373807E+03  0.24502730389E+03  0.00000000000E+00 0. -1.
         -5    1    5    5    0  502  0.69223578749E+02  0.22741311362E+02  0.24624362756E+03  0.25684058326E+03  0.47000000000E+01 0.  1.
         13    1    6    6    0    0  0.34023912579E+02  0.54960794355E+02  0.10569139591E+04  0.10588887725E+04  0.00000000000E+00 0. -1.
        -14    1    6    6    0    0 -0.20076204614E+02  0.27175307910E+02  0.16867773163E+03  0.17202827820E+03  0.00000000000E+00 0.  1.
</event>
<event>
12    1  0.8493057E-002  0.1905090E+03  0.7818608E-02  0.1162392E+00
         21   -1    0    0  501  502  0.00000000000E+00  0.00000000000E+00  0.18761745535E+03  0.18761745535E+03  0.00000000000E+00 0. -1.
         21   -1    0    0  502  503 -0.00000000000E+00 -0.00000000000E+00 -0.31020811520E+03  0.31020811520E+03  0.00000000000E+00 0. -1.
         -6    2    1    2    0  503 -0.27471373247E+02  0.74554462044E+02 -0.22719968172E+03  0.29650190084E+03  0.17314917749E+03 0.  0.
        -24    2    3    3    0    0 -0.58574834838E+02 -0.64906542328E+01 -0.90258634758E+02  0.13429623959E+03  0.80098183199E+02 0.  0.
          6    2    1    2  501    0  0.27471373247E+02 -0.74554462044E+02  0.10460902187E+03  0.20132366972E+03  0.15256188375E+03 0.  0.
         24    2    5    5    0    0 -0.33206944829E+01 -0.78889215313E+02  0.23693378240E+02  0.11451138427E+03  0.79479215207E+02 0.  0.
          5    1    5    5  501    0  0.30792067729E+02  0.43347532688E+01  0.80915643634E+02  0.86812285453E+02  0.47000000000E+01 0. -1.
        -11    1    6    6    0    0 -0.31278049495E+02 -0.85356574624E+01  0.21253660658E+02  0.38767150010E+02  0.00000000000E+00 0.  1.
         12    1    6    6    0    0  0.27957355012E+02 -0.70353557850E+02  0.24397175825E+01  0.75744234258E+02  0.00000000000E+00 0. -1.
         -5    1    3    3    0  503  0.31103461592E+02  0.81045116277E+02 -0.13694104697E+03  0.16220566124E+03  0.47000000000E+01 0.  1.
         11    1    4    4    0    0 -0.58415297446E+02  0.10874377967E+02 -0.21199861257E+02  0.63087504224E+02  0.00000000000E+00 0. -1.
        -12    1    4    4    0    0 -0.15953739265E+00 -0.17365032200E+02 -0.69058773501E+02  0.71208735370E+02  0.00000000000E+00 0.  1.
</event>
<event>
12    1  0.8493057E-002  0.2759792E+03  0.7818608E-02  0.1098026E+00
         21   -1    0    0  503  502  0.00000000000E+00  0.00000000000E+00  0.22884585636E+03  0.22884585636E+03  0.00000000000E+00 0.  1.
         21   -1    0    0  501  503 -0.00000000000E+00 -0.00000000000E+00 -0.33335605225E+03  0.33335605225E+03  0.00000000000E+00 0.  1.
          6    2    1    2  501    0  0.18641333063E+03 -0.10665529062E+03 -0.32808212147E+02  0.27706038169E+03  0.17193253171E+03 0.  0.
         24    2    3    3    0    0  0.10957635350E+03 -0.40959005562E+02  0.45445622344E+02  0.14913198164E+03  0.80563180019E+02 0.  0.
         -6    2    1    2    0  502 -0.18641333063E+03  0.10665529062E+03 -0.71701983744E+02  0.28514152692E+03  0.17331830557E+03 0.  0.
        -24    2    5    5    0    0 -0.14939872387E+03  0.10431909865E+03  0.60908577377E+01  0.19883188034E+03  0.79338295002E+02 0.  0.
          5    1    3    3  501    0  0.76836977133E+02 -0.65696285059E+02 -0.78253834491E+02  0.12792840004E+03  0.47000000000E+01 0. -1.
        -13    1    4    4    0    0  0.33035210833E+02 -0.11914788032E+02 -0.23371106779E+02  0.42184072358E+02  0.00000000000E+00 0.  1.
         14    1    4    4    0    0  0.76541142668E+02 -0.29044217530E+02  0.68816729123E+02  0.10694790928E+03  0.00000000000E+00 0. -1.
         -5    1    5    5    0  502 -0.37014606763E+02  0.23361919718E+01 -0.77792841481E+02  0.86309646578E+02  0.47000000000E+01 0.  1.
         11    1    6    6    0    0 -0.58354924645E+01  0.20477591605E+02  0.23451347080E+02  0.31675706939E+02  0.00000000000E+00 0. -1.
        -12    1    6    6    0    0 -0.14356323141E+03  0.83841507044E+02 -0.17360489342E+02  0.16715617340E+03  0.00000000000E+00 0.  1.
</event>
<event>
12    1  0.8493057E-002  0.2341547E+03  0.7818608E-02  0.1123951E+00
         21   -1    0    0  501  502  0.00000000000E+00  0.00000000000E+00  0.15764423536E+04  0.15764423536E+04  0.00000000000E+00 0.  1.
         21   -1    0    0  502  503 -0.00000000000E+00 -0.00000000000E+00 -0.16423665688E+03  0.16423665688E+03  0.00000000000E+00 0. -1.
         -6    2    1    2    0  503  0.11287893783E+03  0.10883707064E+03 -0.66751297237E+02  0.24348338816E+03  0.17390014973E+03 0.  0.
        -24    2    3    3    0    0  0.37862375023E+02  0.10356696022E+03 -0.91369756176E+02  0.16421537898E+03  0.80365313774E+02 0.  0.
          6    2    1    2  501    0 -0.11287893783E+03 -0.10883707064E+03  0.14789569939E+04  0.14971956223E+04  0.17231882937E+03 0.  0.
         24    2    5    5    0    0 -0.49807956900E+02 -0.77656683697E+02  0.12832989785E+04  0.12892189069E+04  0.81961749909E+02 0.  0.
          5    1    5    5  501    0 -0.63070980928E+02 -0.31180386940E+02  0.19565801540E+03  0.20797671541E+03  0.47000000000E+01 0. -1.
        -11    1    6    6    0    0  0.21267187428E+02 -0.25976513820E+02  0.46642884127E+03  0.46763547395E+03  0.00000000000E+00 0.  1.
         12    1    6    6    0    0 -0.71075144328E+02 -0.51680169877E+02  0.81687013725E+03  0.82158343291E+03  0.00000000000E+00 0. -1.
         -5    1    3    3    0  503  0.75016562805E+02  0.52701104159E+01  0.24618458939E+02  0.79268009181E+02  0.47000000000E+01 0.  1.
         11    1    4    4    0    0  0.61130581924E+02  0.75912540613E+02 -0.50899065998E+02  0.10995624943E+03  0.00000000000E+00 0. -1.
        -12    1    4    4    0    0 -0.23268206901E+02  0.27654419608E+02 -0.40470690179E+02  0.54259129552E+02  0.00000000000E+00 0.  1.
</event>
<event>
12    1  0.8493057E-002  0.1975532E+03  0.7818608E-02  0.1153001E+00
         21   -1    0    0  503  502  0.00000000000E+00  0.00000000000E+00  0.33790061467E+03  0.33790061467E+03  0.00000000000E+00 0.  1.
         21   -1    0    0  501  503 -0.00000000000E+00 -0.00000000000E+00 -0.19751718160E+03  0.19751718160E+03  0.00000000000E+00 0.  1.
          6    2    1    2  501    0  0.40506421308E+01 -0.96507595950E+02 -0.10503718821E+03  0.22374109807E+03  0.17232859392E+03 0.  0.
         24    2    3    3    0    0 -0.56638307999E+02 -0.94103406509E+02 -0.66303751661E+02  0.15155177822E+03  0.80674685908E+02 0.  0.
         -6    2    1    2    0  502 -0.40506421308E+01  0.96507595950E+02  0.24542062128E+03  0.31167669820E+03  0.16607516092E+03 0.  0.
        -24    2    5    5    0    0 -0.54491180224E+02  0.99838967435E+02  0.15548855203E+03  0.20840418008E+03  0.79489020136E+02 0.  0.
          5    1    3    3  501    0  0.60688950130E+02 -0.24041894408E+01 -0.38733436550E+02  0.72189319859E+02  0.47000000000E+01 0. -1.
        -13    1    4    4    0    0  0.38282151237E+01  0.11504114443E+01 -0.33942985186E+02  0.34177549954E+02  0.00000000000E+00 0.  1.
         14    1    4    4    0    0 -0.60466523123E+02 -0.95253817953E+02 -0.32360766475E+02  0.11737422826E+03  0.00000000000E+00 0. -1.
         -5    1    5    5    0  502  0.50440538093E+02 -0.33313714859E+01  0.89932069251E+02  0.10327251812E+03  0.47000000000E+01 0.  1.
         11    1    6    6    0    0 -0.43226204658E+02  0.17843018642E+02  0.22818652244E+02  0.52034305738E+02  0.00000000000E+00 0. -1.
        -12    1    6    6    0    0 -0.11264975566E+02  0.81995948793E+02  0.13266989978E+03  0.15636987434E+03  0.00000000000E+00 0.  1.
</event>
<event>
12    1  0.8493057E-002  0.2032122E+03  0.7818608E-02  0.1147080E+00
         21   -1    0    0  501  502  0.00000000000E+00  0.00000000000E+00  0.23561341563E+03  0.23561341563E+03  0.00000000000E+00 0.  1.
         21   -1    0    0  502  503 -0.00000000000E+00 -0.00000000000E+00 -0.18014660991E+03  0.18014660991E+03  0.00000000000E+00 0.  1.
         -6    2    1    2    0  503 -0.82932241618E+02 -0.69320948429E+02 -0.68299823332E+01  0.20321332012E+03  0.17194724256E+03 0.  0.
        -24    2    3    3    0    0 -0.23411586593E+02 -0.45640799782E+02 -0.65560304862E+02  0.11618000121E+03  0.81046000005E+02 0.  0.
          6    2    1    2  501    0  0.82932241618E+02  0.69320948429E+02  0.62296788058E+02  0.21254670543E+03  0.17208155507E+03 0.  0.
         24    2    5    5    0    0  0.51003963923E+02  0.10109069448E+03  0.41461732889E+01  0.13884246078E+03  0.80245282208E+02 0.  0.
          5    1    5    5  501    0  0.31928277696E+02 -0.31769746050E+02  0.58150614769E+02  0.73704244645E+02  0.47000000000E+01 0. -1.
        -13    1    6    6    0    0  0.64930929645E+02  0.82930464700E+02  0.24586917858E+02  0.10815731196E+03  0.00000000000E+00 0.  1.
         14    1    6    6    0    0 -0.13926965722E+02  0.18160229779E+02 -0.20440744569E+02  0.30685148824E+02  0.00000000000E+00 0. -1.
         -5    1    3    3    0  503 -0.59520655026E+02 -0.23680148647E+02  0.58730322529E+02  0.87033318902E+02  0.47000000000E+01 0.  1.
         11    1    4    4    0    0 -0.25721085472E+02  0.14386272238E+02 -0.32846395324E+01  0.29653463940E+02  0.00000000000E+00 0. -1.
        -12    1    4    4    0    0  0.23094988797E+01 -0.60027072019E+02 -0.62275665330E+02  0.86526537274E+02  0.00000000000E+00 0.  1.
</event>
<event>
12    1  0.8493057E-002  0.1748121E+03  0.7818608E-02  0.1173298E+00
         21   -1    0    0  501  502  0.00000000000E+00  0.00000000000E+00  0.51945100312E+03  0.51945100312E+03  0.00000000000E+00 0.  1.
         21   -1    0    0  502  503 -0.00000000000E+00 -0.00000000000E+00 -0.58342565245E+02  0.58342565245E+02  0.00000000000E+00 0.  1.
         -6    2    1    2    0  503  0.40678452527E+01  0.19900667782E+02  0.23603834611E+03  0.29372327417E+03  0.17362798453E+03 0.  0.
        -24    2    3    3    0    0 -0.84878414538E+01 -0.29313014756E+02  0.48113858735E+02  0.98999534544E+02  0.80960905077E+02 0.  0.
          6    2    1    2  501    0 -0.40678452527E+01 -0.19900667782E+02  0.22507009176E+03  0.28407029420E+03  0.17212437915E+03 0.  0.
         24    2    5    5    0    0 -0.48705576784E+02  0.35703611562E+02  0.10985462966E+03  0.14849354226E+03  0.79594669089E+02 0.  0.
          5    1    5    5  501    0  0.44637731531E+02 -0.55604279344E+02  0.11521546211E+03  0.13557675194E+03  0.47000000000E+01 0. -1.
        -11    1    6    6    0    0  0.75194041914E+01  0.42552303431E+02  0.50083253555E+02  0.66148108463E+02  0.00000000000E+00 0.  1.
         12    1    6    6    0    0 -0.56224980975E+02 -0.68486918685E+01  0.59771376102E+02  0.82345433797E+02  0.00000000000E+00 0. -1.
         -5    1    3    3    0  503  0.12555686707E+02  0.49213682537E+02  0.18792448738E+03  0.19472373963E+03  0.47000000000E+01 0.  1.
         13    1    4    4    0    0  0.13992341472E+02 -0.19708259000E+02  0.64960132105E+02  0.69311037042E+02  0.00000000000E+00 0. -1.
        -14    1    4    4    0    0 -0.22480182926E+02 -0.96047557553E+01 -0.16846273370E+02  0.29688497502E+02  0.00000000000E+00 0.  1.
</event>
<event>
12    1  0.8493057E-002  0.2335211E+03  0.7818608E-02  0.1124300E+00
         21   -1    0    0  503  502  0.00000000000E+00  0.00000000000E+00  0.70506708381E+02  0.70506708381E+02  0.00000000000E+00 0. -1.
         21   -1    0    0  501  503 -0.00000000000E+00 -0.00000000000E+00 -0.78848004297E+03  0.78848004297E+03  0.00000000000E+00 0. -1.
          6    2    1    2  501    0 -0.14275108494E+03  0.60224898736E+02 -0.29499934674E+03  0.37583139464E+03  0.17383817745E+03 0.  0.
         24    2    3    3    0    0 -0.16033207768E+03  0.78689428783E+02 -0.28804628946E+03  0.34898991217E+03  0.83215939518E+02 0.  0.
         -6    2    1    2    0  502  0.14275108494E+03 -0.60224898736E+02 -0.42297398785E+03  0.48315535672E+03  0.17472032980E+03 0.  0.
        -24    2    5    5    0    0  0.63026027470E+00 -0.61339168091E+01 -0.17464804237E+03  0.19193030916E+03  0.79355420136E+02 0.  0.
          5    1    3    3  501    0  0.17580992740E+02 -0.18464530046E+02 -0.69530572834E+01  0.26841482469E+02  0.47000000000E+01 0. -1.
        -11    1    4    4    0    0 -0.90066694353E+02  0.27572977262E+02 -0.21766051517E+03  0.23716740579E+03  0.00000000000E+00 0.  1.
         12    1    4    4    0    0 -0.70265383326E+02  0.51116451520E+02 -0.70385774291E+02  0.11182250638E+03  0.00000000000E+00 0. -1.
         -5    1    5    5    0  502  0.14212082466E+03 -0.54090981927E+02 -0.24832594548E+03  0.29122504756E+03  0.47000000000E+01 0.  1.
         11    1    6    6    0    0  0.65526581373E+01 -0.38615546821E+02 -0.13375631957E+03  0.13937306343E+03  0.00000000000E+00 0. -1.
        -12    1    6    6    0    0 -0.59223978625E+01  0.32481630012E+02 -0.40891722807E+02  0.52557245731E+02  0.00000000000E+00 0.  1.
</event>
<event>
12    1  0.8493057E-002  0.2564359E+03  0.7818608E-02  0.1110185E+00
         21   -1    0    0  501  502  0.00000000000E+00  0.00000000000E+00  0.95280375724E+03  0.95280375724E+03  0.00000000000E+00 0.  1.
         21   -1    0    0  502  503 -0.00000000000E+00 -0.00000000000E+00 -0.89937222834E+02  0.89937222834E+02  0.00000000000E+00 0.  1.
         -6    2    1    2    0  503 -0.18774942142E+03 -0.20195608927E+02  0.17462594024E+03  0.31024766508E+03  0.17349837699E+03 0.  0.
        -24    2    3    3    0    0 -0.11266588736E+03 -0.79336843702E+02  0.12069734795E+03  0.20040411360E+03  0.81277438434E+02 0.  0.
          6    2    1    2  501    0  0.18774942142E+03  0.20195608927E+02  0.68824059416E+03  0.73249331499E+03  0.16496555151E+03 0.  0.
         24    2    5    5    0    0  0.19844055076E+03  0.17565524689E+02  0.68753810620E+03  0.72050160623E+03  0.82016566935E+02 0.  0.
          5    1    5    5  501    0 -0.10691129338E+02  0.26300842381E+01  0.70248795772E+00  0.11991708758E+02  0.47000000000E+01 0. -1.
        -13    1    6    6    0    0  0.16529397926E+03 -0.18634152792E+02  0.52727356456E+03  0.55288944927E+03  0.00000000000E+00 0.  1.
         14    1    6    6    0    0  0.33146571499E+02  0.36199677482E+02  0.16026454165E+03  0.16761215696E+03  0.00000000000E+00 0. -1.
         -5    1    3    3    0  503 -0.75083534060E+02  0.59141234774E+02  0.53928592289E+02  0.10984355149E+03  0.47000000000E+01 0.  1.
         11    1    4    4    0    0 -0.25446151800E+02 -0.55910793471E+02  0.81239126222E+02  0.10184949238E+03  0.00000000000E+00 0. -1.
        -12    1    4    4    0    0 -0.87219735565E+02 -0.23426050231E+02  0.39458221733E+02  0.98554621220E+02  0.00000000000E+00 0.  1.
</event>
<event>
12    1  0.8493057E-002  0.1864570E+03  0.7818608E-02  0.1162020E+00
         21   -1    0    0  501  502  0.00000000000E+00  0.00000000000E+00  0.14781217848E+03  0.14781217848E+03  0.00000000000E+00 0. -1.
         21   -1    0    0  502  503 -0.00000000000E+00 -0.00000000000E+00 -0.29093015295E+03  0.29093015295E+03  0.00000000000E+00 0. -1.
         -6    2    1    2    0  503 -0.71865282467E+01  0.67362441409E+02  0.26167195439E+02  0.18690172769E+03  0.17221553064E+03 0.  0.
        -24    2    3    3    0    0  0.19679427406E+02  0.94748968426E+02  0.56645710958E+02  0.13767946298E+03  0.79888992197E+02 0.  0.
          6    2    1    2  501    0  0.71865282467E+01 -0.67362441409E+02 -0.16928516991E+03  0.25184060374E+03  0.17371492808E+03 0.  0.
         24    2    5    5    0    0 -0.18996698474E+02  0.22603154019E+02 -0.48761994690E+02  0.99107845340E+02  0.81073150656E+02 0.  0.
          5    1    5    5  501    0  0.26183226721E+02 -0.89965595428E+02 -0.12052317522E+03  0.15273275840E+03  0.47000000000E+01 0. -1.
        -11    1    6    6    0    0 -0.32451894385E+02  0.13203736552E+01 -0.62492192022E+02  0.70428281958E+02  0.00000000000E+00 0.  1.
         12    1    6    6    0    0  0.13455195911E+02  0.21282780363E+02  0.13730197332E+02  0.28679563382E+02  0.00000000000E+00 0. -1.
         -5    1    3    3    0  503 -0.26865955653E+02 -0.27386527017E+02 -0.30478515519E+02  0.49222264713E+02  0.47000000000E+01 0.  1.
         11    1    4    4    0    0  0.10800066145E+01  0.30622648691E+02  0.63552742733E+02  0.70553980299E+02  0.00000000000E+00 0. -1.
        -12    1    4    4    0    0  0.18599420792E+02  0.64126319735E+02 -0.69070317749E+01  0.67125482676E+02  0.00000000000E+00 0.  1.
</event>
<event>
12    1  0.8493057E-002  0.2668658E+03  0.7818608E-02  0.1104146E+00
         21   -1    0    0  501  502  0.00000000000E+00  0.00000000000E+00  0.78364568992E+03  0.78364568992E+03  0.00000000000E+00 0.  1.
         21   -1    0    0  502  503 -0.00000000000E+00 -0.00000000000E+00 -0.39091981480E+03  0.39091981480E+03  0.00000000000E+00 0.  1.
         -6    2    1    2    0  503  0.93346543018E+02  0.18208192131E+03 -0.32082126900E+03  0.41274736431E+03  0.15989589407E+03 0.  0.
        -24    2    3    3    0    0  0.95434656572E+02  0.13611162714E+03 -0.15054693496E+03  0.23630171546E+03  0.74430990771E+02 0.  0.
          6    2    1    2  501    0 -0.93346543018E+02 -0.18208192131E+03  0.71354714412E+03  0.76181814042E+03  0.17131826823E+03 0.  0.
         24    2    5    5    0    0 -0.74993769528E+02 -0.12488644209E+03  0.29269262405E+03  0.33667256041E+03  0.80366360340E+02 0.  0.
          5    1    5    5  501    0 -0.18352773490E+02 -0.57195479218E+02  0.42085452007E+03  0.42514558001E+03  0.47000000000E+01 0. -1.
        -13    1    6    6    0    0 -0.79593461346E+02 -0.13051461824E+03  0.29170891155E+03  0.32933762879E+03  0.00000000000E+00 0.  1.
         14    1    6    6    0    0  0.45996918176E+01  0.56281761438E+01  0.98371249812E+00  0.73349316154E+01  0.00000000000E+00 0. -1.
         -5    1    3    3    0  503 -0.20881135533E+01  0.45970294166E+02 -0.17027433404E+03  0.17644564885E+03  0.47000000000E+01 0.  1.
         11    1    4    4    0    0  0.31918712888E+02  0.98672767393E+02 -0.61033915094E+02  0.12033394388E+03  0.00000000000E+00 0. -1.
        -12    1    4    4    0    0  0.63515943683E+02  0.37438859750E+02 -0.89513019864E+02  0.11596777159E+03  0.00000000000E+00 0.  1.
</event>
<event>
12    1  0.8493057E-002  0.2700136E+03  0.7818608E-02  0.1103013E+00
         21   -1    0    0  501  502  0.00000000000E+00  0.00000000000E+00  0.40035329794E+02  0.40035329794E+02  0.00000000000E+00 0.  1.
         21   -1    0    0  502  503 -0.00000000000E+00 -0.00000000000E+00 -0.18775487921E+04  0.18775487921E+04  0.00000000000E+00 0. -1.
         -6    2    1    2    0  503 -0.18623705520E+03  0.89751951875E+02 -0.11572974444E+04  0.11857363572E+04  0.15457580782E+03 0.  0.
        -24    2    3    3    0    0 -0.19170081830E+03  0.83558755659E+02 -0.86655532892E+03  0.89483899368E+03  0.78021901708E+02 0.  0.
          6    2    1    2  501    0  0.18623705520E+03 -0.89751951875E+02 -0.68021601791E+03  0.73184776470E+03  0.17368841666E+03 0.  0.
         24    2    5    5    0    0  0.98065111478E+02 -0.27881277197E+02 -0.18803403262E+03  0.22799513875E+03  0.78935759698E+02 0.  0.
          5    1    5    5  501    0  0.88171943727E+02 -0.61870674678E+02 -0.49218198528E+03  0.50385262596E+03  0.47000000000E+01 0. -1.
        -11    1    6    6    0    0  0.63388502251E+02 -0.54748213387E+02 -0.10737922784E+03  0.13618284642E+03  0.00000000000E+00 0.  1.
         12    1    6    6    0    0  0.34676609227E+02  0.26866936190E+02 -0.80654804785E+02  0.91812292328E+02  0.00000000000E+00 0. -1.
         -5    1    3    3    0  503  0.54637630953E+01  0.61931962159E+01 -0.29074211545E+03  0.29089736349E+03  0.47000000000E+01 0.  1.
         11    1    4    4    0    0 -0.13902880458E+03  0.86107132037E+02 -0.73773543079E+03  0.75564344273E+03  0.00000000000E+00 0. -1.
        -12    1    4    4    0    0 -0.52672013717E+02 -0.25483763779E+01 -0.12881989813E+03  0.13919555095E+03  0.00000000000E+00 0.  1.
</event>
<event>
12    1  0.8493057E-002  0.2066356E+03  0.7818608E-02  0.1144372E+00
         21   -1    0    0  501  502  0.00000000000E+00  0.00000000000E+00  0.22920957894E+03  0.22920957894E+03  0.00000000000E+00 0. -1.
         21   -1    0    0  502  503 -0.00000000000E+00 -0.00000000000E+00 -0.22625784748E+03  0.22625784748E+03  0.00000000000E+00 0. -1.
         -6    2    1    2    0  503 -0.78735035118E+02  0.86242741011E+02 -0.94845686648E+02  0.22736308514E+03  0.17047361108E+03 0.  0.
        -24    2    3    3    0    0 -0.88437001137E+02  0.11657573140E+03 -0.52441782037E+02  0.17412400572E+03  0.78473081651E+02 0.  0.
          6    2    1    2  501    0  0.78735035118E+02 -0.86242741011E+02  0.97797418102E+02  0.22810434128E+03  0.16979469778E+03 0.  0.
         24    2    5    5    0    0  0.36581661549E+02 -0.50300247767E+02 -0.14490437391E+02  0.10280700606E+03  0.80566586322E+02 0.  0.
          5    1    5    5  501    0  0.42153373569E+02 -0.35942493244E+02  0.11228785549E+03  0.12529733523E+03  0.47000000000E+01 0. -1.
        -11    1    6    6    0    0  0.15838728797E+02 -0.50070539106E+02 -0.42774177320E+02  0.67731487963E+02  0.00000000000E+00 0.  1.
         12    1    6    6    0    0  0.20742932752E+02 -0.22970866132E+00  0.28283739929E+02  0.35075518094E+02  0.00000000000E+00 0. -1.
         -5    1    3    3    0  503  0.97019660198E+01 -0.30332990392E+02 -0.42403904611E+02  0.53239079416E+02  0.47000000000E+01 0.  1.
         13    1    4    4    0    0 -0.87096338319E+02  0.78548838379E+02 -0.64953074647E+02  0.13406936289E+03  0.00000000000E+00 0. -1.
        -14    1    4    4    0    0 -0.13406628180E+01  0.38026893024E+02  0.12511292610E+02  0.40054642835E+02  0.00000000000E+00 0.  1.
</event>
<event>
12    1  0.8493057E-002  0.1827108E+03  0.7818608E-02  0.1165386E+00
         21   -1    0    0  501  502  0.00000000000E+00  0.00000000000E+00  0.26641624462E+03  0.26641624462E+03  0.00000000000E+00 0. -1.
         21   -1    0    0  502  503 -0.00000000000E+00 -0.00000000000E+00 -0.24197033708E+03  0.24197033708E+03  0.00000000000E+00 0. -1.
         -6    2    1    2    0  503  0.10119358638E+02 -0.59196320388E+02 -0.16468807698E+03  0.24541341869E+03  0.17175266406E+03 0.  0.
        -24    2    3    3    0    0 -0.36922224669E+02  0.29951316678E+01 -0.13464525334E+03  0.16171545862E+03  0.81549517600E+02 0.  0.
          6    2    1    2  501    0 -0.10119358638E+02  0.59196320388E+02  0.18913398452E+03  0.26297316301E+03  0.17255901773E+03 0.  0.
         24    2    5    5    0    0  0.12901775091E+01  0.62710823561E+02  0.21337281054E+03  0.23554799328E+03  0.77592453968E+02 0.  0.
          5    1    5    5  501    0 -0.11409536148E+02 -0.35145031732E+01 -0.24238826024E+02  0.27425169730E+02  0.47000000000E+01 0. -1.
        -11    1    6    6    0    0  0.19225013695E+02  0.28473912581E+02  0.23125601256E+02  0.41414469485E+02  0.00000000000E+00 0.  1.
         12    1    6    6    0    0 -0.17934836186E+02  0.34236910980E+02  0.19024720928E+03  0.19413352380E+03  0.00000000000E+00 0. -1.
         -5    1    3    3    0  503  0.47041583308E+02 -0.62191452056E+02 -0.30042823638E+02  0.83697960077E+02  0.47000000000E+01 0.  1.
         11    1    4    4    0    0 -0.58707075153E+02 -0.92453263878E+01 -0.66777564585E+02  0.89393735043E+02  0.00000000000E+00 0. -1.
        -12    1    4    4    0    0  0.21784850483E+02  0.12240458056E+02 -0.67867688753E+02  0.72321723573E+02  0.00000000000E+00 0.  1.
</event>
<event>
12    1  0.8493057E-002  0.1973819E+03  0.7818608E-02  0.1154579E+00
         21   -1    0    0  503  502  0.00000000000E+00  0.00000000000E+00  0.27162560484E+02  0.27162560484E+02  0.00000000000E+00 0. -1.
         21   -1    0    0  501  503 -0.00000000000E+00 -0.00000000000E+00 -0.29222927494E+04  0.29222927494E+04  0.00000000000E+00 0. -1.
          6    2    1    2  501    0 -0.92584199353E+02  0.16807857793E+02 -0.25496233229E+04  0.25572521794E+04  0.17350873816E+03 0.  0.
         24    2    3    3    0    0 -0.74922308211E+01 -0.39350560160E+02 -0.15094185274E+04  0.15120524292E+04  0.79709835939E+02 0.  0.
         -6    2    1    2    0  502  0.92584199353E+02 -0.16807857793E+02 -0.34550686601E+03  0.39220313050E+03  0.15998113345E+03 0.  0.
        -24    2    5    5    0    0  0.68979459691E+02 -0.65460425466E+02 -0.20904682292E+03  0.24534370984E+03  0.86311810453E+02 0.  0.
          5    1    3    3  501    0 -0.85091968532E+02  0.56158417953E+02 -0.10402047955E+04  0.10451997501E+04  0.47000000000E+01 0. -1.
        -13    1    4    4    0    0  0.32478731698E+02 -0.31022444115E+02 -0.57945679470E+03  0.58119483564E+03  0.00000000000E+00 0.  1.
         14    1    4    4    0    0 -0.39970962519E+02 -0.83281160451E+01 -0.92996173266E+03  0.93085759361E+03  0.00000000000E+00 0. -1.
         -5    1    5    5    0  502  0.23604739662E+02  0.48652567673E+02 -0.13646004309E+03  0.14685942066E+03  0.47000000000E+01 0.  1.
         11    1    6    6    0    0  0.39532381997E+02 -0.22938891671E+02 -0.20973885116E+02  0.50288227591E+02  0.00000000000E+00 0. -1.
        -12    1    6    6    0    0  0.29447077694E+02 -0.42521533795E+02 -0.18807293780E+03  0.19505548225E+03  0.00000000000E+00 0.  1.
</event>
<event>
12    1  0.8493057E-002  0.1739013E+03  0.7818608E-02  0.1174161E+00
         21   -1    0    0  503  502  0.00000000000E+00  0.00000000000E+00  0.24828102946E+03  0.24828102946E+03  0.00000000000E+00 0. -1.
         21   -1    0    0  501  503 -0.00000000000E+00 -0.00000000000E+00 -0.16842713943E+03  0.16842713943E+03  0.00000000000E+00 0. -1.
          6    2    1    2  501    0 -0.15819017772E+02  0.86415210584E+01 -0.70834414001E+02  0.18660247429E+03  0.17169173537E+03 0.  0.
         24    2    3    3    0    0 -0.25367035768E+02  0.11632367553E+02  0.26260239769E+02  0.88880564763E+02  0.80195736304E+02 0.  0.
         -6    2    1    2    0  502  0.15819017772E+02 -0.86415210584E+01  0.15068830403E+03  0.23010569460E+03  0.17296458744E+03 0.  0.
        -24    2    5    5    0    0 -0.39475620584E+01 -0.44765757372E+02  0.71099714467E+01  0.80665051824E+02  0.66608877880E+02 0.  0.
          5    1    3    3  501    0  0.95480179965E+01 -0.29908464946E+01 -0.97094653770E+02  0.97721909525E+02  0.47000000000E+01 0. -1.
        -13    1    4    4    0    0 -0.31020225737E+01 -0.23974163503E+02  0.38213456032E+02  0.45217820399E+02  0.00000000000E+00 0.  1.
         14    1    4    4    0    0 -0.22265013195E+02  0.35606531056E+02 -0.11953216263E+02  0.43662744364E+02  0.00000000000E+00 0. -1.
         -5    1    5    5    0  502  0.19766579830E+02  0.36124236314E+02  0.14357833258E+03  0.14944064278E+03  0.47000000000E+01 0.  1.
         13    1    6    6    0    0  0.12541189331E+01 -0.14160012126E+02  0.35721863486E+02  0.38446460027E+02  0.00000000000E+00 0. -1.
        -14    1    6    6    0    0 -0.52016809914E+01 -0.30605745247E+02 -0.28611892039E+02  0.42218591797E+02  0.00000000000E+00 0.  1.
</event>
<event>
12    1  0.8493057E-002  0.1936437E+03  0.7818608E-02  0.1155229E+00
         21   -1    0    0  501  502  0.00000000000E+00  0.00000000000E+00  0.35804578142E+03  0.35804578142E+03  0.00000000000E+00 0.  1.
         21   -1    0    0  502  503 -0.00000000000E+00 -0.00000000000E+00 -0.21186879147E+03  0.21186879147E+03  0.00000000000E+00 0. -1.
         -6    2    1    2    0  503 -0.86796438960E+02  0.12935572026E+02 -0.12958726931E+03  0.23295193315E+03  0.17254794102E+03 0.  0.
        -24    2    3    3    0    0 -0.22243099780E+02 -0.47391351056E+02 -0.99483841980E+02  0.13949190113E+03  0.82584865579E+02 0.  0.
          6    2    1    2  501    0  0.86796438960E+02 -0.12935572026E+02  0.27576425926E+03  0.33696263975E+03  0.17261791059E+03 0.  0.
         24    2    5    5    0    0  0.82777914286E+02  0.39265353578E+02  0.11307618366E+03  0.16599309533E+03  0.79834411756E+02 0.  0.
          5    1    5    5  501    0  0.40185246741E+01 -0.52200925604E+02  0.16268807561E+03  0.17096954442E+03  0.47000000000E+01 0. -1.
        -11    1    6    6    0    0  0.96286861040E+02  0.21863291540E+02  0.99163159309E+02  0.13993746921E+03  0.00000000000E+00 0.  1.
         12    1    6    6    0    0 -0.13508946754E+02  0.17402062038E+02  0.13913024348E+02  0.26055626112E+02  0.00000000000E+00 0. -1.
         -5    1    3    3    0  503 -0.64553339179E+02  0.60326923082E+02 -0.30103427331E+02  0.93460032018E+02  0.47000000000E+01 0.  1.
         11    1    4    4    0    0 -0.35059835571E+02 -0.38537293966E+02 -0.10929832409E+03  0.12108029875E+03  0.00000000000E+00 0. -1.
        -12    1    4    4    0    0  0.12816735791E+02 -0.88540570902E+01  0.98144821062E+01  0.18411602383E+02  0.00000000000E+00 0.  1.
</event>
<event>
12    1  0.8493057E-002  0.5368835E+03  0.7818608E-02  0.1004772E+00
         21   -1    0    0  501  502  0.00000000000E+00  0.00000000000E+00  0.27163749066E+03  0.27163749066E+03  0.00000000000E+00 0.  1.
         21   -1    0    0  502  503 -0.00000000000E+00 -0.00000000000E+00 -0.14214611498E+04  0.14214611498E+04  0.00000000000E+00 0. -1.
         -6    2    1    2    0  503  0.45946251148E+03 -0.20885549347E+03 -0.10062453077E+04  0.11405145730E+04  0.18307773015E+03 0.  0.
        -24    2    3    3    0    0  0.40422758328E+03 -0.14371724532E+03 -0.72503421979E+03  0.84658319555E+03  0.83509888274E+02 0.  0.
          6    2    1    2  501    0 -0.45946251148E+03  0.20885549347E+03 -0.14357835145E+03  0.55258406751E+03  0.17322815026E+03 0.  0.
         24    2    5    5    0    0 -0.38638262717E+03  0.11476404702E+03 -0.85709692513E+02  0.42005202808E+03  0.81456944678E+02 0.  0.
          5    1    5    5  501    0 -0.73079884311E+02  0.94091446451E+02 -0.57868658940E+02  0.13253203942E+03  0.47000000000E+01 0. -1.
        -11    1    6    6    0    0 -0.24699919835E+03  0.11194590228E+03 -0.45651873746E+02  0.27499924109E+03  0.00000000000E+00 0.  1.
         12    1    6    6    0    0 -0.13938342883E+03  0.28181447388E+01 -0.40057818767E+02  0.14505278700E+03  0.00000000000E+00 0. -1.
         -5    1    3    3    0  503  0.55234928208E+02 -0.65138248152E+02 -0.28121108794E+03  0.29393137744E+03  0.47000000000E+01 0.  1.
         13    1    4    4    0    0  0.16048112226E+03 -0.63069804077E+02 -0.37244461739E+03  0.41042293285E+03  0.00000000000E+00 0. -1.
        -14    1    4    4    0    0  0.24374646102E+03 -0.80647441243E+02 -0.35258960240E+03  0.43616026270E+03  0.00000000000E+00 0.  1.
</event>
<event>
12    1  0.8493057E-002  0.1845780E+03  0.7818608E-02  0.1163608E+00
         21   -1    0    0  503  502  0.00000000000E+00  0.00000000000E+00  0.33778450280E+03  0.33778450280E+03  0.00000000000E+00 0.  1.
         21   -1    0    0  501  503 -0.00000000000E+00 -0.00000000000E+00 -0.10090957037E+03  0.10090957037E+03  0.00000000000E+00 0.  1.
          6    2    1    2  501    0  0.61124451720E+02 -0.28198670975E+02  0.10436003086E+03  0.21203784187E+03  0.17186525740E+03 0.  0.
         24    2    3    3    0    0  0.41036404872E+02  0.14745316925E-01  0.13656091168E+03  0.16451402458E+03  0.82048735166E+02 0.  0.
         -6    2    1    2    0  502 -0.61124451720E+02  0.28198670975E+02  0.13251490157E+03  0.22665623129E+03  0.17111833450E+03 0.  0.
        -24    2    5    5    0    0 -0.85000863719E+02  0.21055291694E+02  0.33188007267E+02  0.12414265731E+03  0.81495296781E+02 0.  0.
          5    1    3    3  501    0  0.20088046848E+02 -0.28213416292E+02 -0.32200880817E+02  0.47523817296E+02  0.47000000000E+01 0. -1.
        -11    1    4    4    0    0  0.92459523879E+01  0.61016305736E+01 -0.96938726992E+01  0.14720349830E+02  0.00000000000E+00 0.  1.
         12    1    4    4    0    0  0.31790452484E+02 -0.60868852567E+01  0.14625478438E+03  0.14979367475E+03  0.00000000000E+00 0. -1.
         -5    1    5    5    0  502  0.23876412000E+02  0.71433792818E+01  0.99326894302E+02  0.10251357398E+03  0.47000000000E+01 0.  1.
         11    1    6    6    0    0 -0.54810565873E+01  0.18721145227E+02  0.39790728329E+02  0.44315068779E+02  0.00000000000E+00 0. -1.
        -12    1    6    6    0    0 -0.79519807132E+02  0.23341464669E+01 -0.66027210621E+01  0.79827588536E+02  0.00000000000E+00 0.  1.
</event>
<event>
12    1  0.8493057E-002  0.1850681E+03  0.7818608E-02  0.1163115E+00
         21   -1    0    0  501  502  0.00000000000E+00  0.00000000000E+00  0.70093422223E+02  0.70093422223E+02  0.00000000000E+00 0.  1.
         21   -1    0    0  502  503 -0.00000000000E+00 -0.00000000000E+00 -0.84549897929E+03  0.84549897929E+03  0.00000000000E+00 0.  1.
         -6    2    1    2    0  503  0.47733054562E+02  0.46076222119E+02 -0.68539222727E+03  0.70979496399E+03  0.17217701057E+03 0.  0.
        -24    2    3    3    0    0  0.23005525407E+02  0.88631093439E+02 -0.34983225468E+03  0.37061219177E+03  0.81154576887E+02 0.  0.
          6    2    1    2  501    0 -0.47733054562E+02 -0.46076222119E+02 -0.90013329801E+02  0.20579743752E+03  0.17276782978E+03 0.  0.
         24    2    5    5    0    0 -0.27509861226E+02 -0.96740957612E+02 -0.75253893144E+02  0.14908920230E+03  0.80304647844E+02 0.  0.
          5    1    5    5  501    0 -0.20223193336E+02  0.50664735493E+02 -0.14759436657E+02  0.56708235219E+02  0.47000000000E+01 0. -1.
        -13    1    6    6    0    0 -0.22585299594E+02 -0.49933894598E+02  0.60583775261E+01  0.55137949959E+02  0.00000000000E+00 0.  1.
         14    1    6    6    0    0 -0.49245616320E+01 -0.46807063013E+02 -0.81312270670E+02  0.93951252342E+02  0.00000000000E+00 0. -1.
         -5    1    3    3    0  503  0.24727529155E+02 -0.42554871320E+02 -0.33555997259E+03  0.33918277223E+03  0.47000000000E+01 0.  1.
         11    1    4    4    0    0 -0.26963816830E+02  0.36442227072E+02 -0.18790292950E+03  0.19329406159E+03  0.00000000000E+00 0. -1.
        -12    1    4    4    0    0  0.49969342237E+02  0.52188866367E+02 -0.16192932518E+03  0.17731813018E+03  0.00000000000E+00 0.  1.
</event>
<event>
12    1  0.8493057E-002  0.2627027E+03  0.7818608E-02  0.1105601E+00
         21   -1    0    0  501  502  0.00000000000E+00  0.00000000000E+00  0.12153484520E+04  0.12153484520E+04  0.00000000000E+00 0. -1.
         21   -1    0    0  502  503 -0.00000000000E+00 -0.00000000000E+00 -0.57915377225E+02  0.57915377225E+02  0.00000000000E+00 0. -1.
         -6    2    1    2    0  503 -0.96673963823E+00  0.19781353403E+03  0.48628441668E+03  0.55270721602E+03  0.17286296280E+03 0.  0.
        -24    2    3    3    0    0 -0.55129510840E+01  0.18536849582E+03  0.49568445318E+03  0.53579574948E+03  0.83559177577E+02 0.  0.
          6    2    1    2  501    0  0.96673963823E+00 -0.19781353403E+03  0.67114865806E+03  0.72055661317E+03  0.17213419977E+03 0.  0.
         24    2    5    5    0    0  0.20518129592E+02 -0.37125536163E+02  0.33977699776E+03  0.35173123883E+03  0.80418636404E+02 0.  0.
          5    1    5    5  501    0 -0.19551389953E+02 -0.16068799787E+03  0.33137166030E+03  0.36882537434E+03  0.47000000000E+01 0. -1.
        -11    1    6    6    0    0 -0.16027094413E+01 -0.58282654670E+02  0.25548594758E+03  0.26205439498E+03  0.00000000000E+00 0.  1.
         12    1    6    6    0    0  0.22120839033E+02  0.21157118507E+02  0.84291050178E+02  0.89676843852E+02  0.00000000000E+00 0. -1.
         -5    1    3    3    0  503  0.45462114458E+01  0.12445038210E+02 -0.94000365032E+01  0.16911466548E+02  0.47000000000E+01 0.  1.
         11    1    4    4    0    0  0.31809373391E+02  0.35154121453E+02  0.92961460615E+02  0.10435267917E+03  0.00000000000E+00 0. -1.
        -12    1    4    4    0    0 -0.37322324475E+02  0.15021437437E+03  0.40272299257E+03  0.43144307030E+03  0.00000000000E+00 0.  1.
</event>
<event>
12    1  0.8493057E-002  0.1742671E+03  0.7818608E-02  0.1173844E+00
         21   -1    0    0  501  502  0.00000000000E+00  0.00000000000E+00  0.54995853539E+03  0.54995853539E+03  0.00000000000E+00 0.  1.
         21   -1    0    0  502  503 -0.00000000000E+00 -0.00000000000E+00 -0.62450020836E+02  0.62450020836E+02  0.00000000000E+00 0.  1.
         -6    2    1    2    0  503 -0.14461514325E+02  0.24003808814E+02  0.13535083387E+03  0.21949120088E+03  0.17050284690E+03 0.  0.
        -24    2    3    3    0    0 -0.56793947510E+01 -0.72909394696E+01  0.13495763416E+01  0.81524125411E+02  0.80987334471E+02 0.  0.
          6    2    1    2  501    0  0.14461514325E+02 -0.24003808814E+02  0.35215768069E+03  0.39291735535E+03  0.17199912160E+03 0.  0.
         24    2    5    5    0    0  0.13487822194E+02 -0.34061680668E+02  0.73427524220E+02  0.11396449376E+03  0.79083405895E+02 0.  0.
          5    1    5    5  501    0  0.97369213031E+00  0.10057871854E+02  0.27873015647E+03  0.27895286159E+03  0.47000000000E+01 0. -1.
        -13    1    6    6    0    0  0.34871916588E+02 -0.34934140255E+01  0.67684266634E+02  0.76219514941E+02  0.00000000000E+00 0.  1.
         14    1    6    6    0    0 -0.21384094393E+02 -0.30568266642E+02  0.57432575863E+01  0.37744978822E+02  0.00000000000E+00 0. -1.
         -5    1    3    3    0  503 -0.87821195736E+01  0.31294748283E+02  0.13400125752E+03  0.13796707547E+03  0.47000000000E+01 0.  1.
         11    1    4    4    0    0  0.18237496221E+02  0.20963910054E+02  0.25180262497E+02  0.37498498805E+02  0.00000000000E+00 0. -1.
        -12    1    4    4    0    0 -0.23916890972E+02 -0.28254849524E+02 -0.23830686156E+02  0.44025626606E+02  0.00000000000E+00 0.  1.
</event>
<event>
12    1  0.8493057E-002  0.1983460E+03  0.7818608E-02  0.1152798E+00
         21   -1    0    0  501  502  0.00000000000E+00  0.00000000000E+00  0.35526636267E+03  0.35526636267E+03  0.00000000000E+00 0. -1.
         21   -1    0    0  502  503 -0.00000000000E+00 -0.00000000000E+00 -0.39907403418E+03  0.39907403418E+03  0.00000000000E+00 0. -1.
         -6    2    1    2    0  503 -0.21309343525E+02  0.91159666153E+02 -0.34470065583E+03  0.39395488934E+03  0.16618585937E+03 0.  0.
        -24    2    3    3    0    0 -0.63540642414E+02  0.98432747781E+02 -0.22360395848E+03  0.26541353246E+03  0.81970689202E+02 0.  0.
          6    2    1    2  501    0  0.21309343525E+02 -0.91159666153E+02  0.30089298431E+03  0.36038550750E+03  0.17486266942E+03 0.  0.
         24    2    5    5    0    0  0.48306853394E+02 -0.43771844955E+02  0.74076463082E+02  0.12705677923E+03  0.80041091127E+02 0.  0.
          5    1    5    5  501    0 -0.26997509869E+02 -0.47387821198E+02  0.22681652123E+03  0.23332872828E+03  0.47000000000E+01 0. -1.
        -11    1    6    6    0    0 -0.10098612000E+02  0.93627045838E+01 -0.56160716716E+01  0.14872204358E+02  0.00000000000E+00 0.  1.
         12    1    6    6    0    0  0.58405465394E+02 -0.53134549539E+02  0.79692534754E+02  0.11218457487E+03  0.00000000000E+00 0. -1.
         -5    1    3    3    0  503  0.42231298889E+02 -0.72730816276E+01 -0.12109669734E+03  0.12854135689E+03  0.47000000000E+01 0.  1.
         13    1    4    4    0    0  0.76240288103E+00  0.27856794488E+01 -0.85444641742E+02  0.85493438757E+02  0.00000000000E+00 0. -1.
        -14    1    4    4    0    0 -0.64303045295E+02  0.95647068332E+02 -0.13815931674E+03  0.17992009370E+03  0.00000000000E+00 0.  1.
</event>
<event>
12    1  0.8493057E-002  0.1993180E+03  0.7818608E-02  0.1150911E+00
         21   -1    0    0  503  502  0.00000000000E+00  0.00000000000E+00  0.32647076941E+02  0.32647076941E+02  0.00000000000E+00 0.  1.
         21   -1    0    0  501  503 -0.00000000000E+00 -0.00000000000E+00 -0.16448841427E+04  0.16448841427E+04  0.00000000000E+00 0.  1.
          6    2    1    2  501    0 -0.96787363565E+02 -0.26942714922E+02 -0.12382177337E+04  0.12537174159E+04  0.16890973658E+03 0.  0.
         24    2    3    3    0    0 -0.75810387568E+02 -0.66085326433E+02 -0.58896159026E+03  0.60292727505E+03  0.80814967474E+02 0.  0.
         -6    2    1    2    0  502  0.96787363565E+02  0.26942714922E+02 -0.37401933199E+03  0.42381380373E+03  0.17214521746E+03 0.  0.
        -24    2    5    5    0    0  0.18523832984E+02  0.42993053483E+02 -0.90268178581E+02  0.12899250082E+03  0.79367412501E+02 0.  0.
          5    1    3    3  501    0 -0.20976975996E+02  0.39142611511E+02 -0.64925614348E+03  0.65079014083E+03  0.47000000000E+01 0. -1.
        -11    1    4    4    0    0 -0.75744358176E+01 -0.38688730830E+01 -0.28782509742E+03  0.28795073704E+03  0.00000000000E+00 0.  1.
         12    1    4    4    0    0 -0.68235951751E+02 -0.62216453350E+02 -0.30113649285E+03  0.31497653802E+03  0.00000000000E+00 0. -1.
         -5    1    5    5    0  502  0.78263530580E+02 -0.16050338560E+02 -0.28375115341E+03  0.29482130291E+03  0.47000000000E+01 0.  1.
         11    1    6    6    0    0  0.12679660661E+02 -0.20853181660E+02 -0.42617205435E+02  0.49110642217E+02  0.00000000000E+00 0. -1.
        -12    1    6    6    0    0  0.58441723236E+01  0.63846235143E+02 -0.47650973146E+02  0.79881858603E+02  0.00000000000E+00 0.  1.
</event>
<event>
12    1  0.8493057E-002  0.1949992E+03  0.7818608E-02  0.1154064E+00
         21   -1    0    0  501  502  0.00000000000E+00  0.00000000000E+00  0.53387702587E+03  0.53387702587E+03  0.00000000000E+00 0.  1.
         21   -1    0    0  502  503 -0.00000000000E+00 -0.00000000000E+00 -0.24450672384E+03  0.24450672384E+03  0.00000000000E+00 0.  1.
         -6    2    1    2    0  503 -0.45634770799E+02 -0.80706812425E+02 -0.18299400107E+03  0.26741629642E+03  0.17154751321E+03 0.  0.
        -24    2    3    3    0    0 -0.12927083081E+02 -0.11893055862E+03 -0.12804485066E+03  0.19276814347E+03  0.80327368346E+02 0.  0.
          6    2    1    2  501    0  0.45634770799E+02  0.80706812425E+02  0.47236430310E+03  0.51096745330E+03  0.17135805090E+03 0.  0.
         24    2    5    5    0    0  0.80959354753E+02  0.78110780263E+02  0.44738440012E+03  0.46737099510E+03  0.75014228482E+02 0.  0.
          5    1    5    5  501    0 -0.35324583954E+02  0.25960321621E+01  0.24979902978E+02  0.43596458197E+02  0.47000000000E+01 0. -1.
        -11    1    6    6    0    0  0.76746823878E+01  0.18580533992E+02  0.22336398170E+03  0.22426681724E+03  0.00000000000E+00 0.  1.
         12    1    6    6    0    0  0.73284672365E+02  0.59530246272E+02  0.22402041842E+03  0.24310417786E+03  0.00000000000E+00 0. -1.
         -5    1    3    3    0  503 -0.32707687719E+02  0.38223746195E+02 -0.54949150406E+02  0.74648152954E+02  0.47000000000E+01 0.  1.
         11    1    4    4    0    0 -0.31726682497E+02 -0.18458940972E+02 -0.58765143886E+02  0.69286773774E+02  0.00000000000E+00 0. -1.
        -12    1    4    4    0    0  0.18799599417E+02 -0.10047161765E+03 -0.69279706774E+02  0.12348136970E+03  0.00000000000E+00 0.  1.
</event>
<event>
12    1  0.8493057E-002  0.1972110E+03  0.7818608E-02  0.1152188E+00
         21   -1    0    0  501  502  0.00000000000E+00  0.00000000000E+00  0.34449020912E+03  0.34449020912E+03  0.00000000000E+00 0.  1.
         21   -1    0    0  502  503 -0.00000000000E+00 -0.00000000000E+00 -0.52731395757E+03  0.52731395757E+03  0.00000000000E+00 0.  1.
         -6    2    1    2    0  503  0.62876442325E+02 -0.72380752734E+02 -0.47795328536E+03  0.51704113041E+03  0.17233620395E+03 0.  0.
        -24    2    3    3    0    0  0.41672059318E+02  0.16745029992E+02 -0.33494507237E+03  0.34713977672E+03  0.79377997702E+02 0.  0.
          6    2    1    2  501    0 -0.62876442325E+02  0.72380752734E+02  0.29512953690E+03  0.35476303628E+03  0.17193879141E+03 0.  0.
         24    2    5    5    0    0 -0.10637274648E+03  0.42578810420E+02  0.24536340654E+03  0.28210739663E+03  0.79077592751E+02 0.  0.
          5    1    5    5  501    0  0.43496304158E+02  0.29801942315E+02  0.49766130365E+02  0.72655639648E+02  0.47000000000E+01 0. -1.
        -11    1    6    6    0    0 -0.67145191627E+02 -0.56360368566E-02  0.19187118132E+03  0.20328066069E+03  0.00000000000E+00 0.  1.
         12    1    6    6    0    0 -0.39227554856E+02  0.42584446457E+02  0.53492225216E+02  0.78826735938E+02  0.00000000000E+00 0. -1.
         -5    1    3    3    0  503  0.21204383007E+02 -0.89125782726E+02 -0.14300821298E+03  0.16990135369E+03  0.47000000000E+01 0.  1.
         13    1    4    4    0    0  0.48511293739E+01  0.13124857391E+02 -0.46002149341E+01  0.14729470974E+02  0.00000000000E+00 0. -1.
        -14    1    4    4    0    0  0.36820929944E+02  0.36201726005E+01 -0.33034485744E+03  0.33241030575E+03  0.00000000000E+00 0.  1.
</event>
<event>
12    1  0.8493057E-002  0.2852814E+03  0.7818608E-02  0.1093264E+00
         21   -1    0    0  503  502  0.00000000000E+00  0.00000000000E+00  0.49119924989E+03  0.49119924989E+03  0.00000000000E+00 0.  1.
         21   -1    0    0  501  503 -0.00000000000E+00 -0.00000000000E+00 -0.37237775806E+03  0.37237775806E+03  0.00000000000E+00 0. -1.
          6    2    1    2  501    0  0.21099388943E+03 -0.73652004852E+02 -0.26355677123E+03  0.38839108749E+03  0.17732012291E+03 0.  0.
         24    2    3    3    0    0  0.89458449156E+02 -0.64721516357E+02 -0.22071043937E+03  0.25912966626E+03  0.79015169947E+02 0.  0.
         -6    2    1    2    0  502 -0.21099388943E+03  0.73652004852E+02  0.38237826307E+03  0.47518592046E+03  0.17217863905E+03 0.  0.
        -24    2    5    5    0    0 -0.76843659625E+02  0.49305108934E+02  0.27506672684E+03  0.30161486497E+03  0.83509764489E+02 0.  0.
          5    1    3    3  501    0  0.12153544027E+03 -0.89304884949E+01 -0.42846331858E+02  0.12926142124E+03  0.47000000000E+01 0. -1.
        -13    1    4    4    0    0  0.78878132075E+02 -0.83095932835E+02 -0.18584729739E+03  0.21832524298E+03  0.00000000000E+00 0.  1.
         14    1    4    4    0    0  0.10580317080E+02  0.18374416478E+02 -0.34863141980E+02  0.40804423279E+02  0.00000000000E+00 0. -1.
         -5    1    5    5    0  502 -0.13415022980E+03  0.24346895918E+02  0.10731153623E+03  0.17357105549E+03  0.47000000000E+01 0.  1.
         13    1    6    6    0    0 -0.11979661549E+02  0.55044186250E+02  0.99187277685E+02  0.11406792181E+03  0.00000000000E+00 0. -1.
        -14    1    6    6    0    0 -0.64863998075E+02 -0.57390773166E+01  0.17587944915E+03  0.18754694316E+03  0.00000000000E+00 0.  1.
</event>
<event>
12    1  0.8493057E-002  0.2500636E+03  0.7818608E-02  0.1113437E+00
         21   -1    0    0  501  502  0.00000000000E+00  0.00000000000E+00  0.12608204793E+03  0.12608204793E+03  0.00000000000E+00 0.  1.
         21   -1    0    0  502  503 -0.00000000000E+00 -0.00000000000E+00 -0.52491747958E+03  0.52491747958E+03  0.00000000000E+00 0.  1.
         -6    2    1    2    0  503 -0.22227080847E+02 -0.17944445357E+03 -0.11976928545E+03  0.27628666380E+03  0.17115865101E+03 0.  0.
        -24    2    3    3    0    0 -0.80460105124E+02 -0.10786078736E+03 -0.70545822619E+02  0.17159499423E+03  0.79751808687E+02 0.  0.
          6    2    1    2  501    0  0.22227080847E+02  0.17944445357E+03 -0.27906614620E+03  0.37471286371E+03  0.17273523450E+03 0.  0.
         24    2    5    5    0    0 -0.80403601205E+01  0.22029583287E+02 -0.12364168631E+03  0.15138706560E+03  0.84147650637E+02 0.  0.
          5    1    5    5  501    0  0.30267440967E+02  0.15741487028E+03 -0.15542445989E+03  0.22332579811E+03  0.47000000000E+01 0. -1.
        -11    1    6    6    0    0  0.11880783524E+01 -0.12486322383E+02 -0.11357801832E+03  0.11426848219E+03  0.00000000000E+00 0.  1.
         12    1    6    6    0    0 -0.92284384729E+01  0.34515905670E+02 -0.10063667985E+02  0.37118583407E+02  0.00000000000E+00 0. -1.
         -5    1    3    3    0  503  0.58233024277E+02 -0.71583666214E+02 -0.49223462828E+02  0.10469166957E+03  0.47000000000E+01 0.  1.
         13    1    4    4    0    0 -0.29376291496E+02 -0.38271906006E+02 -0.70306823259E+02  0.85268720455E+02  0.00000000000E+00 0. -1.
        -14    1    4    4    0    0 -0.51083813628E+02 -0.69588881353E+02 -0.23899936029E+00  0.86326273772E+02  0.00000000000E+00 0.  1.
</event>
<event>
12    1  0.8493057E-002  0.2022170E+03  0.7818608E-02  0.1147986E+00
         21   -1    0    0  503  502  0.00000000000E+00  0.00000000000E+00  0.19679470341E+03  0.19679470341E+03  0.00000000000E+00 0. -1.
         21   -1    0    0  501  503 -0.00000000000E+00 -0.00000000000E+00 -0.27180853926E+03  0.27180853926E+03  0.00000000000E+00 0.  1.
          6    2    1    2  501    0  0.77946708039E+02  0.72194021452E+02 -0.15163813318E+03  0.25235569383E+03  0.17146896730E+03 0.  0.
         24    2    3    3    0    0  0.69612774704E+02  0.10832530914E+03 -0.15303916520E+03  0.21495278906E+03  0.78761693952E+02 0.  0.
         -6    2    1    2    0  502 -0.77946708039E+02 -0.72194021452E+02  0.76624297330E+02  0.21624754884E+03  0.17205828492E+03 0.  0.
        -24    2    5    5    0    0 -0.58323104776E+02 -0.81006375763E+02  0.11497472135E+03  0.17202551343E+03  0.80062308583E+02 0.  0.
          5    1    3    3  501    0  0.83339333351E+01 -0.36131287689E+02  0.14010320214E+01  0.37402904775E+02  0.47000000000E+01 0. -1.
        -11    1    4    4    0    0  0.24684240885E+02 -0.10960199798E+01 -0.58583001657E+02  0.63580508735E+02  0.00000000000E+00 0.  1.
         12    1    4    4    0    0  0.44928533819E+02  0.10942132912E+03 -0.94456163548E+02  0.15137228032E+03  0.00000000000E+00 0. -1.
         -5    1    5    5    0  502 -0.19623603264E+02  0.88123543111E+01 -0.38350424019E+02  0.44222035412E+02  0.47000000000E+01 0.  1.
         11    1    6    6    0    0 -0.50186829257E+02 -0.21999573972E+02  0.17015040731E+02  0.57377789230E+02  0.00000000000E+00 0. -1.
        -12    1    6    6    0    0 -0.81362755189E+01 -0.59006801790E+02  0.97959680618E+02  0.11464772420E+03  0.00000000000E+00 0.  1.
</event>
<event>
12    1  0.8493057E-002  0.4677352E+03  0.7818608E-02  0.1022572E+00
         21   -1    0    0  501  502  0.00000000000E+00  0.00000000000E+00  0.93270890885E+03  0.93270890885E+03  0.00000000000E+00 0.  1.
         21   -1    0    0  502  503 -0.00000000000E+00 -0.00000000000E+00 -0.67206172209E+03  0.67206172209E+03  0.00000000000E+00 0. -1.
         -6    2    1    2    0  503 -0.41343462019E+02 -0.43319982482E+03 -0.51711737059E+03  0.69727083280E+03  0.17147848036E+03 0.  0.
        -24    2    3    3    0    0 -0.63748373808E+02 -0.24279003678E+03 -0.37067264290E+03  0.45597015786E+03  0.86600921154E+02 0.  0.
          6    2    1    2  501    0  0.41343462019E+02  0.43319982482E+03  0.77776455735E+03  0.90749979815E+03  0.17107544212E+03 0.  0.
         24    2    5    5    0    0  0.47701283830E+02  0.17247830809E+03  0.43248034698E+03  0.47476499816E+03  0.79613904071E+02 0.  0.
          5    1    5    5  501    0 -0.63578218112E+01  0.26072151674E+03  0.34528421037E+03  0.43273479999E+03  0.47000000000E+01 0. -1.
        -11    1    6    6    0    0  0.21490411749E+02  0.98396389914E+02  0.14367677442E+03  0.17546139989E+03  0.00000000000E+00 0.  1.
         12    1    6    6    0    0  0.26210872081E+02  0.74081918171E+02  0.28880357256E+03  0.29930359827E+03  0.00000000000E+00 0. -1.
         -5    1    3    3    0  503  0.22404911788E+02 -0.19040978804E+03 -0.14644472768E+03  0.24130067493E+03  0.47000000000E+01 0.  1.
         11    1    4    4    0    0 -0.30077294812E+01 -0.17037712024E+03 -0.25309855543E+03  0.30511684368E+03  0.00000000000E+00 0. -1.
        -12    1    4    4    0    0 -0.60740644326E+02 -0.72412916536E+02 -0.11757408748E+03  0.15085331419E+03  0.00000000000E+00 0.  1.
</event>
<event>
12    1  0.8493057E-002  0.3090705E+03  0.7818608E-02  0.1080818E+00
         21   -1    0    0  501  502  0.00000000000E+00  0.00000000000E+00  0.22163533152E+03  0.22163533152E+03  0.00000000000E+00 0. -1.
         21   -1    0    0  502  503 -0.00000000000E+00 -0.00000000000E+00 -0.77847768772E+03  0.77847768772E+03  0.00000000000E+00 0. -1.
         -6    2    1    2    0  503 -0.23465561174E+03  0.10357073240E+03 -0.61259836042E+03  0.68605360067E+03  0.17205417478E+03 0.  0.
        -24    2    3    3    0    0 -0.52258083265E+02 -0.33196610765E+01 -0.22165861623E+03  0.24158719225E+03  0.80559927373E+02 0.  0.
          6    2    1    2  501    0  0.23465561174E+03 -0.10357073240E+03  0.55756004223E+02  0.31405941857E+03  0.17243675262E+03 0.  0.
         24    2    5    5    0    0  0.22786194142E+03 -0.43942896298E+02  0.62656468444E+02  0.25346784159E+03  0.80424319700E+02 0.  0.
          5    1    5    5  501    0  0.67936703238E+01 -0.59627836100E+02 -0.69004642214E+01  0.60591576979E+02  0.47000000000E+01 0. -1.
        -13    1    6    6    0    0  0.12851053033E+03 -0.14624056340E+02 -0.55213142350E+01  0.12945773187E+03  0.00000000000E+00 0.  1.
         14    1    6    6    0    0  0.99351411092E+02 -0.29318839959E+02  0.68177782679E+02  0.12401010972E+03  0.00000000000E+00 0. -1.
         -5    1    3    3    0  503 -0.18239752848E+03  0.10689039347E+03 -0.39093974420E+03  0.44446640841E+03  0.47000000000E+01 0.  1.
         11    1    4    4    0    0 -0.22516471432E+02 -0.10495305408E+02 -0.20548317553E+03  0.20697941527E+03  0.00000000000E+00 0. -1.
        -12    1    4    4    0    0 -0.29741611833E+02  0.71756443317E+01 -0.16175440699E+02  0.34607776984E+02  0.00000000000E+00 0.  1.
</event>
<event>
12    1  0.8493057E-002  0.2502191E+03  0.7818608E-02  0.1113231E+00
         21   -1    0    0  501  502  0.00000000000E+00  0.00000000000E+00  0.74425427972E+02  0.74425427972E+02  0.00000000000E+00 0.  1.
         21   -1    0    0  502  503 -0.00000000000E+00 -0.00000000000E+00 -0.91727300861E+03  0.91727300861E+03  0.00000000000E+00 0. -1.
         -6    2    1    2    0  503  0.50882930127E+02 -0.17381230564E+03 -0.56514949342E+03  0.61789924476E+03  0.17206317615E+03 0.  0.
        -24    2    3    3    0    0  0.51932446541E+02 -0.82408133779E+02 -0.46715084961E+03  0.48380357627E+03  0.79673738481E+02 0.  0.
          6    2    1    2  501    0 -0.50882930127E+02  0.17381230564E+03 -0.27769808721E+03  0.37379919182E+03  0.17265519973E+03 0.  0.
         24    2    5    5    0    0 -0.26333659832E+02  0.18011381852E+03 -0.16465681369E+03  0.25785612279E+03  0.79015596567E+02 0.  0.
          5    1    5    5  501    0 -0.24549270295E+02 -0.63015128863E+01 -0.11304127353E+03  0.11594306903E+03  0.47000000000E+01 0. -1.
        -13    1    6    6    0    0  0.23726295802E+02  0.40436042447E+02 -0.21145723921E+02  0.51431043946E+02  0.00000000000E+00 0.  1.
         14    1    6    6    0    0 -0.50059955634E+02  0.13967777608E+03 -0.14351108977E+03  0.20642507884E+03  0.00000000000E+00 0. -1.
         -5    1    3    3    0  503 -0.10495164143E+01 -0.91404171860E+02 -0.97998643807E+02  0.13409566848E+03  0.47000000000E+01 0.  1.
         13    1    4    4    0    0  0.45666867420E+02 -0.82792168541E+02 -0.46801192877E+03  0.47746745587E+03  0.00000000000E+00 0. -1.
        -14    1    4    4    0    0  0.62655791207E+01  0.38403476223E+00  0.86107915165E+00  0.63361203999E+01  0.00000000000E+00 0.  1.
</event>
<event>
12    1  0.8493057E-002  0.1753734E+03  0.7818608E-02  0.1172388E+00
         21   -1    0    0  501  502  0.00000000000E+00  0.00000000000E+00  0.11733506206E+02  0.11733506206E+02  0.00000000000E+00 0. -1.
         21   -1    0    0  502  503 -0.00000000000E+00 -0.00000000000E+00 -0.29823978815E+04  0.29823978815E+04  0.00000000000E+00 0. -1.
         -6    2    1    2    0  503  0.26484149312E+02 -0.29008385031E+02 -0.20071980496E+04  0.20148340867E+04  0.17079077824E+03 0.  0.
        -24    2    3    3    0    0  0.36074728565E+02  0.45037683368E+02 -0.12503553589E+04  0.12543028592E+04  0.80977528776E+02 0.  0.
          6    2    1    2  501    0 -0.26484149312E+02  0.29008385031E+02 -0.96346632565E+03  0.97929730099E+03  0.17091795254E+03 0.  0.
         24    2    5    5    0    0  0.46977506039E+01  0.11023104734E+02 -0.21978624810E+03  0.23473170352E+03  0.81543853758E+02 0.  0.
          5    1    5    5  501    0 -0.31181899916E+02  0.17985280297E+02 -0.74368007755E+03  0.74456559747E+03  0.47000000000E+01 0. -1.
        -11    1    6    6    0    0 -0.14344237844E+02  0.42741552697E+02 -0.11003865566E+03  0.11891637072E+03  0.00000000000E+00 0.  1.
         12    1    6    6    0    0  0.19041988448E+02 -0.31718447962E+02 -0.10974759244E+03  0.11581533280E+03  0.00000000000E+00 0. -1.
         -5    1    3    3    0  503 -0.95905792528E+01 -0.74046068399E+02 -0.75684269076E+03  0.76053122751E+03  0.47000000000E+01 0.  1.
         13    1    4    4    0    0 -0.20686335999E+02  0.35288920920E+02 -0.43658324121E+03  0.43849533515E+03  0.00000000000E+00 0. -1.
        -14    1    4    4    0    0  0.56761064564E+02  0.97487624485E+01 -0.81377211766E+03  0.81580752405E+03  0.00000000000E+00 0.  1.
</event>
<event>
12    1  0.8493057E-002  0.2493296E+03  0.7818608E-02  0.1113885E+00
         21   -1    0    0  501  502  0.00000000000E+00  0.00000000000E+00  0.89789453208E+02  0.89789453208E+02  0.00000000000E+00 0. -1.
         21   -1    0    0  502  503 -0.00000000000E+00 -0.00000000000E+00 -0.74971862193E+03  0.74971862193E+03  0.00000000000E+00 0. -1.
         -6    2    1    2    0  503  0.10625140508E+03  0.14306763598E+03 -0.21172515643E+03  0.32709750738E+03  0.17437754421E+03 0.  0.
        -24    2    3    3    0    0  0.76700683559E+01  0.12191377419E+03 -0.13938691376E+03  0.20291748817E+03  0.82613540002E+02 0.  0.
          6    2    1    2  501    0 -0.10625140508E+03 -0.14306763598E+03 -0.44820401229E+03  0.51241056775E+03  0.17297411298E+03 0.  0.
         24    2    5    5    0    0 -0.73946362869E+02 -0.16116827592E+03 -0.28550385546E+03  0.34548339815E+03  0.80019055045E+02 0.  0.
          5    1    5    5  501    0 -0.32305042213E+02  0.18100639938E+02 -0.16270015683E+03  0.16692716960E+03  0.47000000000E+01 0. -1.
        -11    1    6    6    0    0  0.85449973390E+01 -0.47033318471E+02 -0.11369028811E+03  0.12333138951E+03  0.00000000000E+00 0.  1.
         12    1    6    6    0    0 -0.82491360208E+02 -0.11413495745E+03 -0.17181356735E+03  0.22215200865E+03  0.00000000000E+00 0. -1.
         -5    1    3    3    0  503  0.98581336726E+02  0.21153861789E+02 -0.72338242670E+02  0.12418001921E+03  0.47000000000E+01 0.  1.
         11    1    4    4    0    0  0.28216979150E+01  0.96815209427E+02 -0.48144896612E+02  0.10816227543E+03  0.00000000000E+00 0. -1.
        -12    1    4    4    0    0  0.48483704409E+01  0.25098564766E+02 -0.91242017148E+02  0.94755212746E+02  0.00000000000E+00 0.  1.
</event>
<event>
12    1  0.8493057E-002  0.2130788E+03  0.7818608E-02  0.1139195E+00
         21   -1    0    0  503  502  0.00000000000E+00  0.00000000000E+00  0.38843523770E+03  0.38843523770E+03  0.00000000000E+00 0.  1.
         21   -1    0    0  501  503 -0.00000000000E+00 -0.00000000000E+00 -0.16724308487E+03  0.16724308487E+03  0.00000000000E+00 0. -1.
          6    2    1    2  501    0  0.79858109668E+02  0.95989543122E+02 -0.42010493976E+02  0.21718069901E+03  0.17265938824E+03 0.  0.
         24    2    3    3    0    0  0.27709594949E+01  0.90866707995E+02  0.18038429305E+02  0.11921828097E+03  0.74987843989E+02 0.  0.
         -6    2    1    2    0  502 -0.79858109668E+02 -0.95989543122E+02  0.26320264681E+03  0.33849762356E+03  0.17237661615E+03 0.  0.
        -24    2    5    5    0    0 -0.86103727804E+02 -0.12205440374E+03  0.16511002610E+03  0.23670058557E+03  0.80341253891E+02 0.  0.
          5    1    3    3  501    0  0.77087150174E+02  0.51228351270E+01 -0.60048923281E+02  0.97962418043E+02  0.47000000000E+01 0. -1.
        -11    1    4    4    0    0  0.19668626263E+02  0.80168019037E+02  0.38079101176E+02  0.90905357827E+02  0.00000000000E+00 0.  1.
         12    1    4    4    0    0 -0.16897666768E+02  0.10698688958E+02 -0.20040671870E+02  0.28312923138E+02  0.00000000000E+00 0. -1.
         -5    1    5    5    0  502  0.62456181356E+01  0.26064860616E+02  0.98092620713E+02  0.10179703799E+03  0.47000000000E+01 0.  1.
         13    1    6    6    0    0  0.77428508094E+01 -0.38928651810E+02  0.18480189371E+02  0.43782520138E+02  0.00000000000E+00 0. -1.
        -14    1    6    6    0    0 -0.93846578613E+02 -0.83125751928E+02  0.14662983673E+03  0.19291806543E+03  0.00000000000E+00 0.  1.
</event>
<event>
12    1  0.8493057E-002  0.2078945E+03  0.7818608E-02  0.1144128E+00
         21   -1    0    0  501  502  0.00000000000E+00  0.00000000000E+00  0.11468792299E+04  0.11468792299E+04  0.00000000000E+00 0.  1.
         21   -1    0    0  502  503 -0.00000000000E+00 -0.00000000000E+00 -0.40003497411E+02  0.40003497411E+02  0.00000000000E+00 0. -1.
         -6    2    1    2    0  503  0.11719882864E+03 -0.74466075277E+01  0.71333743483E+03  0.74180689352E+03  0.16624125221E+03 0.  0.
        -24    2    3    3    0    0  0.11114727818E+03  0.48029823116E+02  0.55718625932E+03  0.57591676351E+03  0.81012403751E+02 0.  0.
          6    2    1    2  501    0 -0.11719882864E+03  0.74466075277E+01  0.39353829768E+03  0.44507583382E+03  0.17154908542E+03 0.  0.
         24    2    5    5    0    0 -0.12186278338E+03  0.34651721874E+02  0.38886217923E+03  0.41668874513E+03  0.79777415854E+02 0.  0.
          5    1    5    5  501    0  0.46639547386E+01 -0.27205114346E+02  0.46761184503E+01  0.28387088687E+02  0.47000000000E+01 0. -1.
        -13    1    6    6    0    0 -0.95071766182E+02  0.41090044503E+02  0.19425804002E+03  0.22014363174E+03  0.00000000000E+00 0.  1.
         14    1    6    6    0    0 -0.26791017201E+02 -0.64383226290E+01  0.19460413921E+03  0.19654511340E+03  0.00000000000E+00 0. -1.
         -5    1    3    3    0  503  0.60515504630E+01 -0.55476430644E+02  0.15615117552E+03  0.16589013001E+03  0.47000000000E+01 0.  1.
         11    1    4    4    0    0 -0.14642852780E+01  0.21657854382E+02  0.18248469432E+03  0.18377124489E+03  0.00000000000E+00 0. -1.
        -12    1    4    4    0    0  0.11261156346E+03  0.26371968734E+02  0.37470156500E+03  0.39214551862E+03  0.00000000000E+00 0.  1.
</event>
<event>
12    1  0.8493057E-002  0.2473528E+03  0.7818608E-02  0.1115523E+00
         21   -1    0    0  503  502  0.00000000000E+00  0.00000000000E+00  0.10128894403E+03  0.10128894403E+03  0.00000000000E+00 0.  1.
         21   -1    0    0  501  503 -0.00000000000E+00 -0.00000000000E+00 -0.99904566137E+03  0.99904566137E+03  0.00000000000E+00 0.  1.
          6    2    1    2  501    0  0.96263723241E+02 -0.14403300148E+03 -0.80012008523E+03  0.83748166925E+03  0.17655363382E+03 0.  0.
         24    2    3    3    0    0  0.97501455345E+02 -0.42235168946E+02 -0.32610363321E+03  0.35263322131E+03  0.81952827192E+02 0.  0.
         -6    2    1    2    0  502 -0.96263723241E+02  0.14403300148E+03 -0.97636632120E+02  0.26285293615E+03  0.17189108233E+03 0.  0.
        -24    2    5    5    0    0 -0.96302790496E+02  0.28001935267E+02 -0.42277543129E+02  0.13420641041E+03  0.78521551850E+02 0.  0.
          5    1    3    3  501    0 -0.12377321048E+01 -0.10179783253E+03 -0.47401645202E+03  0.48484844794E+03  0.47000000000E+01 0. -1.
        -13    1    4    4    0    0  0.38840726293E+02 -0.94949746654E+01 -0.24057891203E+03  0.24387900581E+03  0.00000000000E+00 0.  1.
         14    1    4    4    0    0  0.58660729052E+02 -0.32740194281E+02 -0.85524721185E+02  0.10875421550E+03  0.00000000000E+00 0. -1.
         -5    1    5    5    0  502  0.39067255737E-01  0.11603106621E+03 -0.55359088991E+02  0.12864652575E+03  0.47000000000E+01 0.  1.
         13    1    6    6    0    0 -0.50491738548E+02 -0.25804755936E+02 -0.18378345702E+02  0.59607589125E+02  0.00000000000E+00 0. -1.
        -14    1    6    6    0    0 -0.45811051948E+02  0.53806691204E+02 -0.23899197427E+02  0.74598821281E+02  0.00000000000E+00 0.  1.
</event>
<event>
12    1  0.8493057E-002  0.2102720E+03  0.7818608E-02  0.1141477E+00
         21   -1    0    0  503  502  0.00000000000E+00  0.00000000000E+00  0.31775519727E+03  0.31775519727E+03  0.00000000000E+00 0.  1.
         21   -1    0    0  501  503 -0.00000000000E+00 -0.00000000000E+00 -0.17987800113E+03  0.17987800113E+03  0.00000000000E+00 0.  1.
          6    2    1    2  501    0 -0.11516493786E+03  0.33975391060E+02 -0.49992287103E+02  0.21613311752E+03  0.17261809177E+03 0.  0.
         24    2    3    3    0    0  0.57336274389E+01  0.18120384763E+02  0.28527963917E+01  0.83157416107E+02  0.80906084930E+02 0.  0.
         -6    2    1    2    0  502  0.11516493786E+03 -0.33975391060E+02  0.18786948324E+03  0.28150008088E+03  0.17184313398E+03 0.  0.
        -24    2    5    5    0    0  0.69464183006E+02  0.13526035325E+02  0.31982083725E+02  0.11218405734E+03  0.80957906896E+02 0.  0.
          5    1    3    3  501    0 -0.12089856530E+03  0.15855006297E+02 -0.52845083495E+02  0.13297570141E+03  0.47000000000E+01 0. -1.
        -13    1    4    4    0    0 -0.28991899260E+02 -0.12149861498E+02 -0.13586389784E+02  0.34245282077E+02  0.00000000000E+00 0.  1.
         14    1    4    4    0    0  0.34725526699E+02  0.30270246261E+02  0.16439186176E+02  0.48912134030E+02  0.00000000000E+00 0. -1.
         -5    1    5    5    0  502  0.45700754854E+02 -0.47501426385E+02  0.15588739951E+03  0.16931602354E+03  0.47000000000E+01 0.  1.
         13    1    6    6    0    0  0.82004022890E+02 -0.77325483117E+01  0.20066665357E+02  0.84776902114E+02  0.00000000000E+00 0. -1.
        -14    1    6    6    0    0 -0.12539839883E+02  0.21258583637E+02  0.11915418369E+02  0.27407155223E+02  0.00000000000E+00 0.  1.
</event>
<event>
12    1  0.8493057E-002  0.2172444E+03  0.7818608E-02  0.1136028E+00
         21   -1    0    0  501  502  0.00000000000E+00  0.00000000000E+00  0.97677748051E+02  0.97677748051E+02  0.00000000000E+00 0. -1.
         21   -1    0    0  502  503 -0.00000000000E+00 -0.00000000000E+00 -0.10192253454E+04  0.10192253454E+04  0.00000000000E+00 0.  1.
         -6    2    1    2    0  503  0.77394283144E+02  0.10646524513E+03 -0.86629649094E+03  0.89312077919E+03  0.17283053123E+03 0.  0.
        -24    2    3    3    0    0  0.33094545036E+02  0.76562417947E+01 -0.58679905589E+03  0.59334320809E+03  0.81050377184E+02 0.  0.
          6    2    1    2  501    0 -0.77394283144E+02 -0.10646524513E+03 -0.55251106359E+02  0.22378231421E+03  0.17234011696E+03 0.  0.
         24    2    5    5    0    0 -0.91601492120E+02 -0.12947276014E+03 -0.72082100410E+02  0.19158661738E+03  0.79721852590E+02 0.  0.
          5    1    5    5  501    0  0.14207208976E+02  0.23007515012E+02  0.16830994051E+02  0.32195696834E+02  0.47000000000E+01 0. -1.
        -11    1    6    6    0    0 -0.23504002327E+02 -0.10072988016E+03 -0.38035238129E+02  0.11020719678E+03  0.00000000000E+00 0.  1.
         12    1    6    6    0    0 -0.68097489793E+02 -0.28742879986E+02 -0.34046862281E+02  0.81379420600E+02  0.00000000000E+00 0. -1.
         -5    1    3    3    0  503  0.44299738109E+02  0.98809003336E+02 -0.27949743505E+03  0.29977757110E+03  0.47000000000E+01 0.  1.
         13    1    4    4    0    0  0.46979902053E+02  0.17462374910E+02 -0.20047281764E+03  0.20664316187E+03  0.00000000000E+00 0. -1.
        -14    1    4    4    0    0 -0.13885357018E+02 -0.98061331150E+01 -0.38632623826E+03  0.38670004623E+03  0.00000000000E+00 0.  1.
</event>
<event>
12    1  0.8493057E-002  0.2030320E+03  0.7818608E-02  0.1147243E+00
         21   -1    0    0  501  502  0.00000000000E+00  0.00000000000E+00  0.17014758706E+04  0.17014758706E+04  0.00000000000E+00 0.  1.
         21   -1    0    0  502  503 -0.00000000000E+00 -0.00000000000E+00 -0.39999144437E+02  0.39999144437E+02  0.00000000000E+00 0. -1.
         -6    2    1    2    0  503 -0.36053481555E+02  0.10148228359E+03  0.28337521216E+03  0.34849770357E+03  0.17190297005E+03 0.  0.
        -24    2    3    3    0    0 -0.13145219590E+02  0.91433706713E+02  0.88650132610E+02  0.15211616429E+03  0.82143544516E+02 0.  0.
          6    2    1    2  501    0  0.36053481555E+02 -0.10148228359E+03  0.13781015140E+04  0.13929773115E+04  0.17211478714E+03 0.  0.
         24    2    5    5    0    0  0.70519520299E+02 -0.23021198085E+02  0.58355459442E+03  0.59380840117E+03  0.81052293790E+02 0.  0.
          5    1    5    5  501    0 -0.34466038744E+02 -0.78461085502E+02  0.79454691957E+03  0.79916891029E+03  0.47000000000E+01 0. -1.
        -11    1    6    6    0    0  0.70082700259E+02 -0.35951366284E+02  0.56861928049E+03  0.57404875382E+03  0.00000000000E+00 0.  1.
         12    1    6    6    0    0  0.43682003948E+00  0.12930168199E+02  0.14935313929E+02  0.19759647354E+02  0.00000000000E+00 0. -1.
         -5    1    3    3    0  503 -0.22908261965E+02  0.10048576874E+02  0.19472507955E+03  0.19638153927E+03  0.47000000000E+01 0.  1.
         11    1    4    4    0    0  0.47504860712E+01  0.48355783218E+02 -0.36217878300E+01  0.48723364371E+02  0.00000000000E+00 0. -1.
        -12    1    4    4    0    0 -0.17895705661E+02  0.43077923495E+02  0.92271920440E+02  0.10339279992E+03  0.00000000000E+00 0.  1.
</event>
<event>
12    1  0.8493057E-002  0.2516852E+03  0.7818608E-02  0.1112276E+00
         21   -1    0    0  503  502  0.00000000000E+00  0.00000000000E+00  0.12295754313E+04  0.12295754313E+04  0.00000000000E+00 0.  1.
         21   -1    0    0  501  503 -0.00000000000E+00 -0.00000000000E+00 -0.51871875453E+02  0.51871875453E+02  0.00000000000E+00 0. -1.
          6    2    1    2  501    0  0.99533696516E+02 -0.15427836967E+03  0.53318564665E+03  0.58960358212E+03  0.17215306608E+03 0.  0.
         24    2    3    3    0    0  0.84897657549E+02 -0.10539219584E+03  0.50989607106E+03  0.53331356560E+03  0.78193534061E+02 0.  0.
         -6    2    1    2    0  502 -0.99533696516E+02  0.15427836967E+03  0.64451790918E+03  0.69184372462E+03  0.17185933769E+03 0.  0.
        -24    2    5    5    0    0 -0.30255143330E+01  0.65977460521E+02  0.41378130892E+03  0.42656585429E+03  0.79882898061E+02 0.  0.
          5    1    3    3  501    0  0.14636038967E+02 -0.48886173830E+02  0.23289575592E+02  0.56290016518E+02  0.47000000000E+01 0. -1.
        -11    1    4    4    0    0  0.43721009737E+02 -0.66921054248E+02  0.41753997172E+03  0.42512302005E+03  0.00000000000E+00 0.  1.
         12    1    4    4    0    0  0.41176647812E+02 -0.38471141597E+02  0.92356099339E+02  0.10819054555E+03  0.00000000000E+00 0. -1.
         -5    1    5    5    0  502 -0.96508182183E+02  0.88300909153E+02  0.23073660026E+03  0.26527787032E+03  0.47000000000E+01 0.  1.
         13    1    6    6    0    0  0.24658861109E+02 -0.69039077506E+01  0.95182107621E+02  0.98566510461E+02  0.00000000000E+00 0. -1.
        -14    1    6    6    0    0 -0.27684375442E+02  0.72881368271E+02  0.31859920130E+03  0.32799934383E+03  0.00000000000E+00 0.  1.
</event>
<event>
12    1  0.8493057E-002  0.1771586E+03  0.7818608E-02  0.1170670E+00
         21   -1    0    0  503  502  0.00000000000E+00  0.00000000000E+00  0.60406895774E+03  0.60406895774E+03  0.00000000000E+00 0. -1.
         21   -1    0    0  501  503 -0.00000000000E+00 -0.00000000000E+00 -0.74148778757E+02  0.74148778757E+02  0.00000000000E+00 0. -1.
          6    2    1    2  501    0 -0.28539413321E+02  0.25653984901E+02  0.78813567074E+02  0.19357110450E+03  0.17258496194E+03 0.  0.
         24    2    3    3    0    0 -0.30043738173E+02  0.13492096363E+02  0.12167286785E+03  0.14874718021E+03  0.78973248516E+02 0.  0.
         -6    2    1    2    0  502  0.28539413321E+02 -0.25653984901E+02  0.45110661190E+03  0.48464663199E+03  0.17295247192E+03 0.  0.
        -24    2    5    5    0    0  0.82903842666E+02 -0.37508954839E+02  0.29383769025E+03  0.31775854012E+03  0.79686465510E+02 0.  0.
          5    1    3    3  501    0  0.15043248519E+01  0.12161888538E+02 -0.42859300776E+02  0.44823924294E+02  0.47000000000E+01 0. -1.
        -13    1    4    4    0    0 -0.21011667797E+02 -0.25854132682E+02  0.94195853390E+02  0.99913888705E+02  0.00000000000E+00 0.  1.
         14    1    4    4    0    0 -0.90320703756E+01  0.39346229045E+02  0.27477014461E+02  0.48833291503E+02  0.00000000000E+00 0. -1.
         -5    1    5    5    0  502 -0.54364429345E+02  0.11854969938E+02  0.15726892165E+03  0.16688809187E+03  0.47000000000E+01 0.  1.
         13    1    6    6    0    0  0.26148219602E+02  0.21997447365E+02  0.13035331188E+03  0.13475757120E+03  0.00000000000E+00 0. -1.
        -14    1    6    6    0    0  0.56755623064E+02 -0.59506402204E+02  0.16348437837E+03  0.18300096892E+03  0.00000000000E+00 0.  1.
</event>
<event>
12    1  0.8493057E-002  0.1959946E+03  0.7818608E-02  0.1153459E+00
         21   -1    0    0  503  502  0.00000000000E+00  0.00000000000E+00  0.37109933678E+03  0.37109933678E+03  0.00000000000E+00 0. -1.
         21   -1    0    0  501  503 -0.00000000000E+00 -0.00000000000E+00 -0.11568312103E+03  0.11568312103E+03  0.00000000000E+00 0.  1.
          6    2    1    2  501    0 -0.30390065409E+02 -0.88667941065E+02  0.46866360222E+02  0.20152003713E+03  0.17212875936E+03 0.  0.
         24    2    3    3    0    0 -0.50399801827E+02 -0.98108431081E+02 -0.12591847995E+02  0.13790493729E+03  0.81815724776E+02 0.  0.
         -6    2    1    2    0  502  0.30390065409E+02  0.88667941065E+02  0.20854985552E+03  0.28526242067E+03  0.17057563296E+03 0.  0.
        -24    2    5    5    0    0  0.30555363063E+01 -0.17712457005E+02  0.10606198068E+03  0.13496331866E+03  0.81503902993E+02 0.  0.
          5    1    3    3  501    0  0.20009736417E+02  0.94404900160E+01  0.59458208217E+02  0.63615099840E+02  0.47000000000E+01 0. -1.
        -11    1    4    4    0    0 -0.16837323913E+02 -0.98232550695E+02  0.54240568740E+01  0.99812573785E+02  0.00000000000E+00 0.  1.
         12    1    4    4    0    0 -0.33562477914E+02  0.12411961427E+00 -0.18015904869E+02  0.38092363509E+02  0.00000000000E+00 0. -1.
         -5    1    5    5    0  502  0.27334529103E+02  0.10638039807E+03  0.10248787485E+03  0.15029910201E+03  0.47000000000E+01 0.  1.
         13    1    6    6    0    0  0.24176587511E+02  0.22189430537E+02  0.69537790288E+02  0.76892018372E+02  0.00000000000E+00 0. -1.
        -14    1    6    6    0    0 -0.21121051205E+02 -0.39901887542E+02  0.36524190388E+02  0.58071300286E+02  0.00000000000E+00 0.  1.
</event>
<event>
12    1  0.8493057E-002  0.2269115E+03  0.7818608E-02  0.1128892E+00
         21   -1    0    0  503  502  0.00000000000E+00  0.00000000000E+00  0.11206103219E+04  0.11206103219E+04  0.00000000000E+00 0.  1.
         21   -1    0    0  501  503 -0.00000000000E+00 -0.00000000000E+00 -0.69224689179E+02  0.69224689179E+02  0.00000000000E+00 0.  1.
          6    2    1    2  501    0  0.90403526287E+02  0.11711999070E+03  0.17996508429E+03  0.28935592037E+03  0.17160864578E+03 0.  0.
         24    2    3    3    0    0 -0.14459145010E+02  0.57380287881E+02  0.11528319191E+03  0.15234917191E+03  0.80115488705E+02 0.  0.
         -6    2    1    2    0  502 -0.90403526287E+02 -0.11711999070E+03  0.87142054839E+03  0.90047909066E+03  0.17204339797E+03 0.  0.
        -24    2    5    5    0    0 -0.41341034902E+02 -0.12866542937E+03  0.45558974279E+03  0.48157841735E+03  0.78050524942E+02 0.  0.
          5    1    3    3  501    0  0.10486267130E+03  0.59739702816E+02  0.64681892372E+02  0.13700674846E+03  0.47000000000E+01 0. -1.
        -11    1    4    4    0    0  0.33034790190E+01  0.72624225040E+02  0.67791966534E+02  0.99402926329E+02  0.00000000000E+00 0.  1.
         12    1    4    4    0    0 -0.17762624029E+02 -0.15243937158E+02  0.47491225381E+02  0.52946245576E+02  0.00000000000E+00 0. -1.
         -5    1    5    5    0  502 -0.49062491385E+02  0.11545438673E+02  0.41583080560E+03  0.41890067331E+03  0.47000000000E+01 0.  1.
         11    1    6    6    0    0 -0.40356966476E+02 -0.21262581850E+02  0.95926531682E+02  0.10621996804E+03  0.00000000000E+00 0. -1.
        -12    1    6    6    0    0 -0.98406842576E+00 -0.10740284752E+03  0.35966321110E+03  0.37535844931E+03  0.00000000000E+00 0.  1.
</event>
<event>
12    1  0.8493057E-002  0.1786883E+03  0.7818608E-02  0.1170728E+00
         21   -1    0    0  501  502  0.00000000000E+00  0.00000000000E+00  0.71857326370E+02  0.71857326370E+02  0.00000000000E+00 0.  1.
         21   -1    0    0  502  503 -0.00000000000E+00 -0.00000000000E+00 -0.43600605703E+03  0.43600605703E+03  0.00000000000E+00 0.  1.
         -6    2    1    2    0  503 -0.13839391050E+02 -0.45855395901E+02 -0.21300372225E+03  0.27382425052E+03  0.16527216464E+03 0.  0.
        -24    2    3    3    0    0  0.33370861551E+02 -0.45592690485E+02 -0.19997375306E+03  0.22462316251E+03  0.85286314235E+02 0.  0.
          6    2    1    2  501    0  0.13839391050E+02  0.45855395901E+02 -0.15114500841E+03  0.23403913288E+03  0.17214893573E+03 0.  0.
         24    2    5    5    0    0  0.69898745874E+01 -0.41759994915E+02 -0.87874943149E+02  0.12564834110E+03  0.79200659506E+02 0.  0.
          5    1    5    5  501    0  0.68495164625E+01  0.87615390817E+02 -0.63270065261E+02  0.10839079178E+03  0.47000000000E+01 0. -1.
        -13    1    6    6    0    0  0.16651847638E+02 -0.11411556268E+02 -0.91401649836E+02  0.93604322758E+02  0.00000000000E+00 0.  1.
         14    1    6    6    0    0 -0.96619730504E+01 -0.30348438648E+02  0.35267066871E+01  0.32044018344E+02  0.00000000000E+00 0. -1.
         -5    1    3    3    0  503 -0.47210252601E+02 -0.26270541615E+00 -0.13029969191E+02  0.49201088015E+02  0.47000000000E+01 0.  1.
         13    1    4    4    0    0  0.74891111331E+00  0.16565027152E+02 -0.10619201583E+03  0.10747885940E+03  0.00000000000E+00 0. -1.
        -14    1    4    4    0    0  0.32621950438E+02 -0.62157717637E+02 -0.93781737230E+02  0.11714430311E+03  0.00000000000E+00 0.  1.
</event>
<event>
12    1  0.8493057E-002  0.1851690E+03  0.7818608E-02  0.1162935E+00
         21   -1    0    0  501  502  0.00000000000E+00  0.00000000000E+00  0.48340530319E+02  0.48340530319E+02  0.00000000000E+00 0. -1.
         21   -1    0    0  502  503 -0.00000000000E+00 -0.00000000000E+00 -0.74931952683E+03  0.74931952683E+03  0.00000000000E+00 0. -1.
         -6    2    1    2    0  503 -0.65624587200E+02  0.12611710500E+02 -0.44330893990E+03  0.48035670282E+03  0.17249377977E+03 0.  0.
        -24    2    3    3    0    0 -0.51730912306E+02  0.62925177167E+02 -0.16880925090E+03  0.20089892713E+03  0.72305950820E+02 0.  0.
          6    2    1    2  501    0  0.65624587200E+02 -0.12611710500E+02 -0.25767005661E+03  0.31730335433E+03  0.17269023976E+03 0.  0.
         24    2    5    5    0    0 -0.13224036007E+02 -0.31202729403E+02 -0.66246521137E+02  0.10939041270E+03  0.80182138764E+02 0.  0.
          5    1    5    5  501    0  0.78848623207E+02  0.18591018903E+02 -0.19142353547E+03  0.20791294163E+03  0.47000000000E+01 0. -1.
        -11    1    6    6    0    0 -0.27138422220E+02 -0.39258532988E+02 -0.76611415216E+02  0.90260929057E+02  0.00000000000E+00 0.  1.
         12    1    6    6    0    0  0.13914386213E+02  0.80558035843E+01  0.10364894079E+02  0.19129483640E+02  0.00000000000E+00 0. -1.
         -5    1    3    3    0  503 -0.13893674894E+02 -0.50313466667E+02 -0.27449968900E+03  0.27945777568E+03  0.47000000000E+01 0.  1.
         11    1    4    4    0    0 -0.17297165841E+02 -0.47925673090E+01 -0.88691857019E+02  0.90489812405E+02  0.00000000000E+00 0. -1.
        -12    1    4    4    0    0 -0.34433746465E+02  0.67717744476E+02 -0.80117393879E+02  0.11040911473E+03  0.00000000000E+00 0.  1.
</event>
<event>
12    1  0.8493057E-002  0.2481249E+03  0.7818608E-02  0.1115296E+00
         21   -1    0    0  503  502  0.00000000000E+00  0.00000000000E+00  0.15088654817E+03  0.15088654817E+03  0.00000000000E+00 0. -1.
         21   -1    0    0  501  503 -0.00000000000E+00 -0.00000000000E+00 -0.61727968201E+03  0.61727968201E+03  0.00000000000E+00 0.  1.
          6    2    1    2  501    0  0.14812674576E+03 -0.88874328660E+02 -0.46263520464E+03  0.52497362379E+03  0.17811736018E+03 0.  0.
         24    2    3    3    0    0  0.74941349706E+02 -0.87610930019E+02 -0.41380579029E+03  0.43685949282E+03  0.79492788561E+02 0.  0.
         -6    2    1    2    0  502 -0.14812674576E+03  0.88874328660E+02 -0.37579291949E+01  0.24319260638E+03  0.17113837285E+03 0.  0.
        -24    2    5    5    0    0 -0.11535235916E+03  0.84434287067E+02  0.57806124474E+02  0.17314906927E+03  0.78763802389E+02 0.  0.
          5    1    3    3  501    0  0.73185396050E+02 -0.12633986407E+01 -0.48829414354E+02  0.88114130974E+02  0.47000000000E+01 0. -1.
        -11    1    4    4    0    0  0.48974897746E+01 -0.18876515846E+02 -0.20737044672E+03  0.20828540618E+03  0.00000000000E+00 0.  1.
         12    1    4    4    0    0  0.70043859931E+02 -0.68734414172E+02 -0.20643534358E+03  0.22857408664E+03  0.00000000000E+00 0. -1.
         -5    1    5    5    0  502 -0.32774386593E+02  0.44400415927E+01 -0.61564053669E+02  0.70043537104E+02  0.47000000000E+01 0.  1.
         13    1    6    6    0    0 -0.83873994494E+01  0.50212264061E+02  0.18270985528E+02  0.54087418535E+02  0.00000000000E+00 0. -1.
        -14    1    6    6    0    0 -0.10696495971E+03  0.34222023006E+02  0.39535138946E+02  0.11906165074E+03  0.00000000000E+00 0.  1.
</event>
<event>
12    1  0.8493057E-002  0.2009239E+03  0.7818608E-02  0.1149298E+00
         21   -1    0    0  501  502  0.00000000000E+00  0.00000000000E+00  0.11061260740E+04  0.11061260740E+04  0.00000000000E+00 0.  1.
         21   -1    0    0  502  503 -0.00000000000E+00 -0.00000000000E+00 -0.87875353926E+02  0.87875353926E+02  0.00000000000E+00 0.  1.
         -6    2    1    2    0  503  0.73941655901E+02 -0.67069814962E+02  0.52189778951E+02  0.20759134700E+03  0.17436933723E+03 0.  0.
        -24    2    3    3    0    0 -0.29287202610E+02 -0.22842381407E+02  0.12885506666E+02  0.88514989451E+02  0.79305437710E+02 0.  0.
          6    2    1    2  501    0 -0.73941655901E+02  0.67069814962E+02  0.96606094108E+03  0.98641008088E+03  0.17252645369E+03 0.  0.
         24    2    5    5    0    0 -0.32708747744E+02 -0.10878065720E+02  0.71600665428E+03  0.72122097635E+03  0.79410158353E+02 0.  0.
          5    1    5    5  501    0 -0.41232908157E+02  0.77947880682E+02  0.25005428680E+03  0.26518910454E+03  0.47000000000E+01 0. -1.
        -13    1    6    6    0    0 -0.44293255375E+02 -0.33844551178E+02  0.58924143541E+03  0.59187229646E+03  0.00000000000E+00 0.  1.
         14    1    6    6    0    0  0.11584507631E+02  0.22966485458E+02  0.12676521888E+03  0.12934867989E+03  0.00000000000E+00 0. -1.
         -5    1    3    3    0  503  0.10322885851E+03 -0.44227433555E+02  0.39304272285E+02  0.11907635755E+03  0.47000000000E+01 0.  1.
         11    1    4    4    0    0 -0.24139746565E+00  0.24499129460E+02  0.21144186879E+02  0.32362667625E+02  0.00000000000E+00 0. -1.
        -12    1    4    4    0    0 -0.29045805144E+02 -0.47341510867E+02 -0.82586802126E+01  0.56152321826E+02  0.00000000000E+00 0.  1.
</event>
<event>
12    1  0.8493057E-002  0.5989664E+03  0.7818608E-02  0.9907632E-01
         21   -1    0    0  503  502  0.00000000000E+00  0.00000000000E+00  0.11593468047E+04  0.11593468047E+04  0.00000000000E+00 0.  1.
         21   -1    0    0  501  503 -0.00000000000E+00 -0.00000000000E+00 -0.31407962788E+03  0.31407962788E+03  0.00000000000E+00 0.  1.
          6    2    1    2  501    0  0.47149458617E+03  0.32703152672E+03  0.51277572125E+03  0.78836340377E+03  0.17123420175E+03 0.  0.
         24    2    3    3    0    0  0.26929291210E+03  0.12858632065E+03  0.32541289025E+03  0.44866804430E+03  0.79726723680E+02 0.  0.
         -6    2    1    2    0  502 -0.47149458617E+03 -0.32703152672E+03  0.33249145560E+03  0.68506302883E+03  0.17176734607E+03 0.  0.
        -24    2    5    5    0    0 -0.41023732248E+03 -0.31792321003E+03  0.33513294447E+03  0.62289807688E+03  0.79486448398E+02 0.  0.
          5    1    3    3  501    0  0.20220167407E+03  0.19844520607E+03  0.18736283100E+03  0.33969535947E+03  0.47000000000E+01 0. -1.
        -11    1    4    4    0    0  0.19874129895E+03  0.97962735206E+02  0.18534326642E+03  0.28887181899E+03  0.00000000000E+00 0.  1.
         12    1    4    4    0    0  0.70551613144E+02  0.30623585444E+02  0.14006962383E+03  0.15979622531E+03  0.00000000000E+00 0. -1.
         -5    1    5    5    0  502 -0.61257263692E+02 -0.91083166845E+01 -0.26414888782E+01  0.62164951953E+02  0.47000000000E+01 0.  1.
         11    1    6    6    0    0  0.18295448397E+01 -0.41141684834E+01 -0.19612817379E+01  0.49112363703E+01  0.00000000000E+00 0. -1.
        -12    1    6    6    0    0 -0.41206686732E+03 -0.31380904155E+03  0.33709422621E+03  0.61798684051E+03  0.00000000000E+00 0.  1.
</event>
<event>
12    1  0.8493057E-002  0.1818042E+03  0.7818608E-02  0.1166210E+00
         21   -1    0    0  503  502  0.00000000000E+00  0.00000000000E+00  0.17984366115E+04  0.17984366115E+04  0.00000000000E+00 0.  1.
         21   -1    0    0  501  503 -0.00000000000E+00 -0.00000000000E+00 -0.18710728684E+02  0.18710728684E+02  0.00000000000E+00 0.  1.
          6    2    1    2  501    0 -0.50514107345E+02 -0.23030905553E+02  0.75980004243E+03  0.78124827135E+03  0.17312036090E+03 0.  0.
         24    2    3    3    0    0 -0.54989990279E+02 -0.55662516021E+02  0.72441180206E+03  0.73267592236E+03  0.76937205046E+02 0.  0.
         -6    2    1    2    0  502  0.50514107345E+02  0.23030905553E+02  0.10199258404E+04  0.10358990688E+04  0.17249945877E+03 0.  0.
        -24    2    5    5    0    0 -0.36355361475E+02  0.18085656869E+02  0.37630278833E+03  0.38640427806E+03  0.77818213239E+02 0.  0.
          5    1    3    3  501    0  0.44758829343E+01  0.32631610469E+02  0.35388240368E+02  0.48572348987E+02  0.47000000000E+01 0. -1.
        -11    1    4    4    0    0 -0.50895063544E+01 -0.26366748725E+02  0.59832792252E+02  0.65582555164E+02  0.00000000000E+00 0.  1.
         12    1    4    4    0    0 -0.49900483924E+02 -0.29295767296E+02  0.66457900981E+03  0.66709336720E+03  0.00000000000E+00 0. -1.
         -5    1    5    5    0  502  0.86869468819E+02  0.49452486839E+01  0.64362305206E+03  0.64949479077E+03  0.47000000000E+01 0.  1.
         11    1    6    6    0    0  0.10841940510E+02 -0.25282662603E+01  0.62151971925E+01  0.12750234526E+02  0.00000000000E+00 0. -1.
        -12    1    6    6    0    0 -0.47197301985E+02  0.20613923129E+02  0.37008759113E+03  0.37365404354E+03  0.00000000000E+00 0.  1.
</event>
<event>
12    1  0.8493057E-002  0.1888496E+03  0.7818608E-02  0.1159664E+00
         21   -1    0    0  501  502  0.00000000000E+00  0.00000000000E+00  0.40146760169E+03  0.40146760169E+03  0.00000000000E+00 0.  1.
         21   -1    0    0  502  503 -0.00000000000E+00 -0.00000000000E+00 -0.11767658154E+03  0.11767658154E+03  0.00000000000E+00 0.  1.
         -6    2    1    2    0  503 -0.76513520526E+02  0.10208999858E+02  0.12852249065E+02  0.18928640315E+03  0.17235318277E+03 0.  0.
        -24    2    3    3    0    0 -0.60662893823E+02  0.50462189204E+02  0.57545630754E+02  0.12690732023E+03  0.81040416356E+02 0.  0.
          6    2    1    2  501    0  0.76513520526E+02 -0.10208999858E+02  0.27093877109E+03  0.32985778008E+03  0.17158028703E+03 0.  0.
         24    2    5    5    0    0  0.41365349905E+02 -0.36897604081E+02  0.26826233365E+03  0.28539511247E+03  0.80082240282E+02 0.  0.
          5    1    5    5  501    0  0.35148170620E+02  0.26688604223E+02  0.26764374414E+01  0.44462667607E+02  0.47000000000E+01 0. -1.
        -11    1    6    6    0    0  0.55067520508E+02 -0.64766534578E+01  0.10481543003E+03  0.11857762533E+03  0.00000000000E+00 0.  1.
         12    1    6    6    0    0 -0.13702170603E+02 -0.30420950623E+02  0.16344690362E+03  0.16681748715E+03  0.00000000000E+00 0. -1.
         -5    1    3    3    0  503 -0.15850626702E+02 -0.40253189345E+02 -0.44693381688E+02  0.62379082921E+02  0.47000000000E+01 0.  1.
         11    1    4    4    0    0 -0.27672688599E+01  0.48820951724E+02  0.47408395259E+02  0.68107995458E+02  0.00000000000E+00 0. -1.
        -12    1    4    4    0    0 -0.57895624964E+02  0.16412374794E+01  0.10137235494E+02  0.58799324774E+02  0.00000000000E+00 0.  1.
</event>
<event>
12    1  0.8493057E-002  0.1856842E+03  0.7818608E-02  0.1162485E+00
         21   -1    0    0  501  502  0.00000000000E+00  0.00000000000E+00  0.39551529321E+03  0.39551529321E+03  0.00000000000E+00 0.  1.
         21   -1    0    0  502  503 -0.00000000000E+00 -0.00000000000E+00 -0.90025325450E+02  0.90025325450E+02  0.00000000000E+00 0.  1.
         -6    2    1    2    0  503  0.43062537548E+02 -0.52989207868E+02  0.10856400663E+03  0.21509246297E+03  0.17267421869E+03 0.  0.
        -24    2    3    3    0    0  0.33322669740E+02 -0.50769180908E+02  0.14475220491E+03  0.17725770066E+03  0.82335785447E+02 0.  0.
          6    2    1    2  501    0 -0.43062537548E+02  0.52989207868E+02  0.19692596113E+03  0.27044815569E+03  0.17233726370E+03 0.  0.
         24    2    5    5    0    0 -0.72797332170E+02  0.87673275471E+02  0.13559388639E+03  0.19382664469E+03  0.78721098576E+02 0.  0.
          5    1    5    5  501    0  0.29734794622E+02 -0.34684067603E+02  0.61332074732E+02  0.76621510998E+02  0.47000000000E+01 0. -1.
        -11    1    6    6    0    0 -0.14170838585E+02  0.75155454707E+02  0.59174060814E+02  0.96699144317E+02  0.00000000000E+00 0.  1.
         12    1    6    6    0    0 -0.58626493585E+02  0.12517820764E+02  0.76419825580E+02  0.97127500371E+02  0.00000000000E+00 0. -1.
         -5    1    3    3    0  503  0.97398678083E+01 -0.22200269598E+01 -0.36188198283E+02  0.37834762317E+02  0.47000000000E+01 0.  1.
         13    1    4    4    0    0  0.54796973934E+02 -0.48520089219E+02  0.77383391268E+02  0.10651336374E+03  0.00000000000E+00 0. -1.
        -14    1    4    4    0    0 -0.21474304194E+02 -0.22490916891E+01  0.67368813647E+02  0.70744336920E+02  0.00000000000E+00 0.  1.
</event>
<event>
12    1  0.8493057E-002  0.2360848E+03  0.7818608E-02  0.1122488E+00
         21   -1    0    0  501  502  0.00000000000E+00  0.00000000000E+00  0.26971448164E+02  0.26971448164E+02  0.00000000000E+00 0.  1.
         21   -1    0    0  502  503 -0.00000000000E+00 -0.00000000000E+00 -0.20743227918E+04  0.20743227918E+04  0.00000000000E+00 0.  1.
         -6    2    1    2    0  503 -0.14947922090E+03 -0.62164063606E+02 -0.94677675564E+03  0.97568308986E+03  0.17135594105E+03 0.  0.
        -24    2    3    3    0    0 -0.12627723757E+02  0.12875632332E+02 -0.28288009337E+03  0.29367124509E+03  0.76788095764E+02 0.  0.
          6    2    1    2  501    0  0.14947922090E+03  0.62164063606E+02 -0.11005745880E+04  0.11256111501E+04  0.17183605329E+03 0.  0.
         24    2    5    5    0    0  0.98566084566E+02 -0.11350031853E+02 -0.85003448341E+03  0.85954930826E+03  0.80139216907E+02 0.  0.
          5    1    5    5  501    0  0.50913136338E+02  0.73514095458E+02 -0.25054010462E+03  0.26606184188E+03  0.47000000000E+01 0. -1.
        -13    1    6    6    0    0  0.32501352249E+02  0.59672164753E+01 -0.80900235053E+02  0.87388749860E+02  0.00000000000E+00 0.  1.
         14    1    6    6    0    0  0.66064732318E+02 -0.17317248328E+02 -0.76913424836E+03  0.77216055840E+03  0.00000000000E+00 0. -1.
         -5    1    3    3    0  503 -0.13685149715E+03 -0.75039695937E+02 -0.66389666227E+03  0.68201184478E+03  0.47000000000E+01 0.  1.
         11    1    4    4    0    0  0.22252394554E+02  0.14426944667E+02 -0.22128773084E+03  0.22287118615E+03  0.00000000000E+00 0. -1.
        -12    1    4    4    0    0 -0.34880118312E+02 -0.15513123351E+01 -0.61592362526E+02  0.70800058933E+02  0.00000000000E+00 0.  1.
</event>
<event>
12    1  0.8493057E-002  0.2006868E+03  0.7818608E-02  0.1150885E+00
         21   -1    0    0  503  502  0.00000000000E+00  0.00000000000E+00  0.11469984792E+04  0.11469984792E+04  0.00000000000E+00 0.  1.
         21   -1    0    0  501  503 -0.00000000000E+00 -0.00000000000E+00 -0.41909624965E+02  0.41909624965E+02  0.00000000000E+00 0.  1.
          6    2    1    2  501    0 -0.10243118044E+03 -0.14550266461E+02  0.29891927404E+03  0.36003876838E+03  0.17196315117E+03 0.  0.
         24    2    3    3    0    0 -0.86526052417E+02 -0.68448049192E+02  0.15860129448E+03  0.20881321012E+03  0.79225582519E+02 0.  0.
         -6    2    1    2    0  502  0.10243118044E+03  0.14550266461E+02  0.80616958019E+03  0.82886933579E+03  0.16251500487E+03 0.  0.
        -24    2    5    5    0    0  0.10689495710E+03  0.43039916589E+02  0.76869633605E+03  0.78135176543E+03  0.79608780972E+02 0.  0.
          5    1    3    3  501    0 -0.15905128018E+02  0.53897782731E+02  0.14031797956E+03  0.15122555825E+03  0.47000000000E+01 0. -1.
        -11    1    4    4    0    0 -0.27854267922E+02 -0.37376896782E+02  0.12387500072E+02  0.48232176113E+02  0.00000000000E+00 0.  1.
         12    1    4    4    0    0 -0.58671784495E+02 -0.31071152409E+02  0.14621379441E+03  0.16058103401E+03  0.00000000000E+00 0. -1.
         -5    1    5    5    0  502 -0.44637766640E+01 -0.28489650128E+02  0.37473244137E+02  0.47517570357E+02  0.47000000000E+01 0.  1.
         13    1    6    6    0    0 -0.97147675367E+01  0.96908271154E+01  0.33223565152E+02  0.35945710730E+02  0.00000000000E+00 0. -1.
        -14    1    6    6    0    0  0.11660972464E+03  0.33349089473E+02  0.73547277090E+03  0.74540605470E+03  0.00000000000E+00 0.  1.
</event>
<event>
12    1  0.8493057E-002  0.2616879E+03  0.7818608E-02  0.1106934E+00
         21   -1    0    0  501  502  0.00000000000E+00  0.00000000000E+00  0.17733076108E+04  0.17733076108E+04  0.00000000000E+00 0.  1.
         21   -1    0    0  502  503 -0.00000000000E+00 -0.00000000000E+00 -0.70975552135E+02  0.70975552135E+02  0.00000000000E+00 0. -1.
         -6    2    1    2    0  503 -0.13611579166E+03  0.13722928870E+03  0.21642009482E+03  0.33550388614E+03  0.16842153589E+03 0.  0.
        -24    2    3    3    0    0 -0.26743529142E+01  0.36059452736E+02  0.61576191963E+02  0.10737962715E+03  0.80195514934E+02 0.  0.
          6    2    1    2  501    0  0.13611579166E+03 -0.13722928870E+03  0.14859119638E+04  0.15087792768E+04  0.17641189126E+03 0.  0.
         24    2    5    5    0    0  0.77569778162E+02 -0.15589850201E+03  0.12654715445E+04  0.12798857564E+04  0.79799160083E+02 0.  0.
          5    1    5    5  501    0  0.58546013502E+02  0.18669213309E+02  0.22044041931E+03  0.22889352042E+03  0.47000000000E+01 0. -1.
        -11    1    6    6    0    0  0.71059051716E+02 -0.10122051391E+03  0.10590282504E+04  0.10662250308E+04  0.00000000000E+00 0.  1.
         12    1    6    6    0    0  0.65107264460E+01 -0.54677988104E+02  0.20644329415E+03  0.21366072555E+03  0.00000000000E+00 0. -1.
         -5    1    3    3    0  503 -0.13344143875E+03  0.10116983597E+03  0.15484390286E+03  0.22812425899E+03  0.47000000000E+01 0.  1.
         13    1    4    4    0    0  0.25232891896E+02  0.21570831828E+02 -0.51709802655E+01  0.33596706030E+02  0.00000000000E+00 0. -1.
        -14    1    4    4    0    0 -0.27907244810E+02  0.14488620908E+02  0.66747172229E+02  0.73782921122E+02  0.00000000000E+00 0.  1.
</event>
<event>
12    1  0.8493057E-002  0.2889297E+03  0.7818608E-02  0.1090941E+00
         21   -1    0    0  503  502  0.00000000000E+00  0.00000000000E+00  0.43995158201E+03  0.43995158201E+03  0.00000000000E+00 0.  1.
         21   -1    0    0  501  503 -0.00000000000E+00 -0.00000000000E+00 -0.22947635503E+03  0.22947635503E+03  0.00000000000E+00 0. -1.
          6    2    1    2  501    0  0.21829066357E+03  0.79190606250E+02 -0.34270072555E+02  0.29095497964E+03  0.17192555478E+03 0.  0.
         24    2    3    3    0    0  0.20775030179E+03  0.68388918141E+02 -0.76682954368E+02  0.24569221088E+03  0.81530086339E+02 0.  0.
         -6    2    1    2    0  502 -0.21829066357E+03 -0.79190606250E+02  0.24474529954E+03  0.37847295740E+03  0.17152128707E+03 0.  0.
        -24    2    5    5    0    0 -0.23518271497E+03 -0.56175731468E+02  0.19096034669E+03  0.31739974712E+03  0.76224164399E+02 0.  0.
          5    1    3    3  501    0  0.10540361782E+02  0.10801688109E+02  0.42412881813E+02  0.45262768764E+02  0.47000000000E+01 0. -1.
        -11    1    4    4    0    0  0.12568553807E+02 -0.15338285524E+02 -0.13927991174E+02  0.24232632663E+02  0.00000000000E+00 0.  1.
         12    1    4    4    0    0  0.19518174798E+03  0.83727203664E+02 -0.62754963194E+02  0.22145957822E+03  0.00000000000E+00 0. -1.
         -5    1    5    5    0  502  0.16892051394E+02 -0.23014874782E+02  0.53784952850E+02  0.61073210286E+02  0.47000000000E+01 0.  1.
         13    1    6    6    0    0 -0.95589052774E+02 -0.60646265387E+02  0.74168541088E+02  0.13533738952E+03  0.00000000000E+00 0. -1.
        -14    1    6    6    0    0 -0.13959366219E+03  0.44705339194E+01  0.11679180560E+03  0.18206235759E+03  0.00000000000E+00 0.  1.
</event>
<event>
12    1  0.8493057E-002  0.2878896E+03  0.7818608E-02  0.1091789E+00
         21   -1    0    0  501  502  0.00000000000E+00  0.00000000000E+00  0.54671967591E+03  0.54671967591E+03  0.00000000000E+00 0.  1.
         21   -1    0    0  502  503 -0.00000000000E+00 -0.00000000000E+00 -0.17631044345E+03  0.17631044345E+03  0.00000000000E+00 0. -1.
         -6    2    1    2    0  503 -0.18848792640E+02  0.23016351479E+03  0.45590346308E+02  0.28899353209E+03  0.16765518598E+03 0.  0.
        -24    2    3    3    0    0 -0.35378029966E+02  0.99387855689E+02  0.77400780038E+02  0.15331198436E+03  0.79900769294E+02 0.  0.
          6    2    1    2  501    0  0.18848792640E+02 -0.23016351479E+03  0.32481888615E+03  0.43403658727E+03  0.17190093008E+03 0.  0.
         24    2    5    5    0    0  0.10748835649E+02 -0.10201594788E+03  0.67696359887E+02  0.14659704281E+03  0.79906850322E+02 0.  0.
          5    1    5    5  501    0  0.80999569915E+01 -0.12814756692E+03  0.25712252626E+03  0.28743954446E+03  0.47000000000E+01 0. -1.
        -13    1    6    6    0    0  0.35054482866E+02 -0.98716304916E+02  0.60783204114E+02  0.12111285451E+03  0.00000000000E+00 0.  1.
         14    1    6    6    0    0 -0.24305647217E+02 -0.32996429607E+01  0.69131557732E+01  0.25484188295E+02  0.00000000000E+00 0. -1.
         -5    1    3    3    0  503  0.16529237326E+02  0.13077565911E+03 -0.31810433730E+02  0.13568154773E+03  0.47000000000E+01 0.  1.
         11    1    4    4    0    0 -0.48176306873E+02  0.91155527084E+02  0.36007254058E+02  0.10920993090E+03  0.00000000000E+00 0. -1.
        -12    1    4    4    0    0  0.12798276907E+02  0.82323286047E+01  0.41393525980E+02  0.44102053457E+02  0.00000000000E+00 0.  1.
</event>
<event>
12    1  0.8493057E-002  0.1739603E+03  0.7818608E-02  0.1174002E+00
         21   -1    0    0  503  502  0.00000000000E+00  0.00000000000E+00  0.24647492854E+03  0.24647492854E+03  0.00000000000E+00 0. -1.
         21   -1    0    0  501  503 -0.00000000000E+00 -0.00000000000E+00 -0.17819064383E+03  0.17819064383E+03  0.00000000000E+00 0. -1.
          6    2    1    2  501    0 -0.12049211152E+02 -0.10851714128E+02 -0.84862458488E+02  0.19355569228E+03  0.17320284629E+03 0.  0.
         24    2    3    3    0    0  0.61574627938E+02 -0.19597847471E+02 -0.49443273728E+02  0.11125397188E+03  0.75876864139E+02 0.  0.
         -6    2    1    2    0  502  0.12049211152E+02  0.10851714128E+02  0.15314674320E+03  0.23110988009E+03  0.17232210692E+03 0.  0.
        -24    2    5    5    0    0 -0.14230978057E+02 -0.48075758162E+02  0.13354744283E+03  0.16351315006E+03  0.79923910682E+02 0.  0.
          5    1    3    3  501    0 -0.73623839090E+02  0.87461333426E+01 -0.35419184761E+02  0.82301720394E+02  0.47000000000E+01 0. -1.
        -11    1    4    4    0    0 -0.11915193535E+02  0.13584236135E+02 -0.15348506742E+02  0.23708225736E+02  0.00000000000E+00 0.  1.
         12    1    4    4    0    0  0.73489821473E+02 -0.33182083606E+02 -0.34094766986E+02  0.87545746147E+02  0.00000000000E+00 0. -1.
         -5    1    5    5    0  502  0.26280189209E+02  0.58927472291E+02  0.19599300371E+02  0.67596730028E+02  0.47000000000E+01 0.  1.
         13    1    6    6    0    0  0.16124646166E+01  0.21511966056E+02  0.20106490364E+02  0.29489585967E+02  0.00000000000E+00 0. -1.
        -14    1    6    6    0    0 -0.15843442674E+02 -0.69587724218E+02  0.11344095246E+03  0.13402356410E+03  0.00000000000E+00 0.  1.
</event>
<event>
12    1  0.8493057E-002  0.1904532E+03  0.7818608E-02  0.1158326E+00
         21   -1    0    0  503  502  0.00000000000E+00  0.00000000000E+00  0.63421677058E+03  0.63421677058E+03  0.00000000000E+00 0. -1.
         21   -1    0    0  501  503 -0.00000000000E+00 -0.00000000000E+00 -0.13003384660E+03  0.13003384660E+03  0.00000000000E+00 0. -1.
          6    2    1    2  501    0 -0.21274300232E+02  0.77527675608E+02 -0.34968850635E+02  0.19244903207E+03  0.17132038143E+03 0.  0.
         24    2    3    3    0    0 -0.41560728550E+02  0.10771604851E+03  0.22538492386E+01  0.14019487991E+03  0.79495177546E+02 0.  0.
         -6    2    1    2    0  502  0.21274300232E+02 -0.77527675608E+02  0.53915177461E+03  0.57180158512E+03  0.17265364269E+03 0.  0.
        -24    2    5    5    0    0  0.72440615783E+02 -0.56852138391E+02  0.44719049296E+03  0.46444965449E+03  0.85172390500E+02 0.  0.
          5    1    3    3  501    0  0.20286428318E+02 -0.30188372897E+02 -0.37222699873E+02  0.52254152160E+02  0.47000000000E+01 0. -1.
        -11    1    4    4    0    0  0.22499773804E+02  0.28846516930E+02  0.11026014867E+02  0.38209087454E+02  0.00000000000E+00 0.  1.
         12    1    4    4    0    0 -0.64060502354E+02  0.78869531575E+02 -0.87721656283E+01  0.10198579245E+03  0.00000000000E+00 0. -1.
         -5    1    5    5    0  502 -0.51166315551E+02 -0.20675537218E+02  0.91961281653E+02  0.10735193063E+03  0.47000000000E+01 0.  1.
         13    1    6    6    0    0  0.29406338979E+01  0.50241058555E-01  0.22181132736E+03  0.22183082473E+03  0.00000000000E+00 0. -1.
        -14    1    6    6    0    0  0.69499981885E+02 -0.56902379449E+02  0.22537916560E+03  0.24261882976E+03  0.00000000000E+00 0.  1.
</event>
<event>
12    1  0.8493057E-002  0.1956739E+03  0.7818608E-02  0.1153637E+00
         21   -1    0    0  501  502  0.00000000000E+00  0.00000000000E+00  0.10715045780E+03  0.10715045780E+03  0.00000000000E+00 0. -1.
         21   -1    0    0  502  503 -0.00000000000E+00 -0.00000000000E+00 -0.47991507094E+03  0.47991507094E+03  0.00000000000E+00 0. -1.
         -6    2    1    2    0  503 -0.71326001490E+02 -0.56168236029E+02 -0.33540421112E+03  0.38785689100E+03  0.17232154197E+03 0.  0.
        -24    2    3    3    0    0  0.49613757607E+01 -0.50792064789E+02 -0.91442429822E+02  0.13214590594E+03  0.80600083059E+02 0.  0.
          6    2    1    2  501    0  0.71326001490E+02  0.56168236029E+02 -0.37360402018E+02  0.19920863774E+03  0.17333785647E+03 0.  0.
         24    2    5    5    0    0  0.11601711290E+02  0.79642187715E+02  0.17519041242E+02  0.11463996423E+03  0.79736609049E+02 0.  0.
          5    1    5    5  501    0  0.59724290200E+02 -0.23473951686E+02 -0.54879443260E+02  0.84568673515E+02  0.47000000000E+01 0. -1.
        -13    1    6    6    0    0 -0.26403039899E+02  0.26997149456E+02 -0.16648505728E+02  0.41269108757E+02  0.00000000000E+00 0.  1.
         14    1    6    6    0    0  0.38004751189E+02  0.52645038259E+02  0.34167546969E+02  0.73370855468E+02  0.00000000000E+00 0. -1.
         -5    1    3    3    0  503 -0.76287377251E+02 -0.53761712401E+01 -0.24396178130E+03  0.25571098506E+03  0.47000000000E+01 0.  1.
         11    1    4    4    0    0 -0.27973848643E+02 -0.17641482736E+02 -0.76076943400E+02  0.82954562492E+02  0.00000000000E+00 0. -1.
        -12    1    4    4    0    0  0.32935224404E+02 -0.33150582053E+02 -0.15365486422E+02  0.49191343445E+02  0.00000000000E+00 0.  1.
</event>
<event>
12    1  0.8493057E-002  0.2329385E+03  0.7818608E-02  0.1124713E+00
         21   -1    0    0  503  502  0.00000000000E+00  0.00000000000E+00  0.10148910847E+03  0.10148910847E+03  0.00000000000E+00 0.  1.
         21   -1    0    0  501  503 -0.00000000000E+00 -0.00000000000E+00 -0.57622728523E+03  0.57622728523E+03  0.00000000000E+00 0. -1.
          6    2    1    2  501    0 -0.85549364259E+01  0.15747364145E+03 -0.14421835720E+03  0.27336048059E+03  0.17045786313E+03 0.  0.
         24    2    3    3    0    0  0.44668809094E+02  0.12040256226E+03 -0.14252531880E+03  0.20830674604E+03  0.81155125800E+02 0.  0.
         -6    2    1    2    0  502  0.85549364259E+01 -0.15747364145E+03 -0.33051981956E+03  0.40435591311E+03  0.17143284006E+03 0.  0.
        -24    2    5    5    0    0 -0.42528676246E+02 -0.54395980758E+02 -0.21751577246E+03  0.24302846882E+03  0.83559047161E+02 0.  0.
          5    1    3    3  501    0 -0.53223745520E+02  0.37071079190E+02 -0.16930384092E+01  0.65053734547E+02  0.47000000000E+01 0. -1.
        -13    1    4    4    0    0  0.61833164160E+01  0.71103805024E+02 -0.25818734003E+02  0.75898560700E+02  0.00000000000E+00 0.  1.
         14    1    4    4    0    0  0.38485492678E+02  0.49298757241E+02 -0.11670658479E+03  0.13240818534E+03  0.00000000000E+00 0. -1.
         -5    1    5    5    0  502  0.51083612672E+02 -0.10307766070E+03 -0.11300404710E+03  0.16132744428E+03  0.47000000000E+01 0.  1.
         11    1    6    6    0    0 -0.16302662458E+02 -0.44668317615E+02 -0.36710961647E+02  0.60072706838E+02  0.00000000000E+00 0. -1.
        -12    1    6    6    0    0 -0.26226013788E+02 -0.97276631435E+01 -0.18080481082E+03  0.18295576199E+03  0.00000000000E+00 0.  1.
</event>
<event>
12    1  0.8493057E-002  0.2060660E+03  0.7818608E-02  0.1144962E+00
         21   -1    0    0  501  502  0.00000000000E+00  0.00000000000E+00  0.92928005568E+03  0.92928005568E+03  0.00000000000E+00 0.  1.
         21   -1    0    0  502  503 -0.00000000000E+00 -0.00000000000E+00 -0.63736692560E+02  0.63736692560E+02  0.00000000000E+00 0.  1.
         -6    2    1    2    0  503 -0.89837697298E+02 -0.70162528423E+02  0.16578634128E+03  0.26354907965E+03  0.17023341087E+03 0.  0.
        -24    2    3    3    0    0 -0.11991707842E+02  0.18331851994E+01  0.19082479140E+02  0.82475906534E+02  0.79315651189E+02 0.  0.
          6    2    1    2  501    0  0.89837697298E+02  0.70162528423E+02  0.69975702184E+03  0.72946766859E+03  0.17166711292E+03 0.  0.
         24    2    5    5    0    0  0.27856794791E+02  0.99901186565E+02  0.52643678904E+03  0.54295221840E+03  0.83097355645E+02 0.  0.
          5    1    5    5  501    0  0.61980902508E+02 -0.29738658142E+02  0.17332023280E+03  0.18651545019E+03  0.47000000000E+01 0. -1.
        -11    1    6    6    0    0  0.55257451024E+02  0.59816292911E+02  0.27218875264E+03  0.28410929562E+03  0.00000000000E+00 0.  1.
         12    1    6    6    0    0 -0.27400656234E+02  0.40084893654E+02  0.25424803640E+03  0.25884292278E+03  0.00000000000E+00 0. -1.
         -5    1    3    3    0  503 -0.77845989457E+02 -0.71995713623E+02  0.14670386214E+03  0.18107317311E+03  0.47000000000E+01 0.  1.
         11    1    4    4    0    0  0.10295741300E+02 -0.23841022100E+02  0.36088881711E+02  0.44461264117E+02  0.00000000000E+00 0. -1.
        -12    1    4    4    0    0 -0.22287449141E+02  0.25674207299E+02 -0.17006402572E+02  0.38014642417E+02  0.00000000000E+00 0.  1.
</event>
<event>
12    1  0.8493057E-002  0.1796495E+03  0.7818608E-02  0.1168729E+00
         21   -1    0    0  501  502  0.00000000000E+00  0.00000000000E+00  0.60565979096E+03  0.60565979096E+03  0.00000000000E+00 0.  1.
         21   -1    0    0  502  503 -0.00000000000E+00 -0.00000000000E+00 -0.52939645197E+02  0.52939645197E+02  0.00000000000E+00 0.  1.
         -6    2    1    2    0  503 -0.16305949953E+02  0.41898989868E+02  0.25100367034E+03  0.30866935286E+03  0.17393250850E+03 0.  0.
        -24    2    3    3    0    0 -0.56303238369E+02  0.77947041643E+02  0.17260709045E+03  0.21344667249E+03  0.80749479088E+02 0.  0.
          6    2    1    2  501    0  0.16305949953E+02 -0.41898989868E+02  0.30171647542E+03  0.34993008329E+03  0.17145501538E+03 0.  0.
         24    2    5    5    0    0  0.56671777056E+02 -0.77503703937E+02  0.21095132834E+03  0.24430102675E+03  0.77227030927E+02 0.  0.
          5    1    5    5  501    0 -0.40365827104E+02  0.35604714069E+02  0.90765147080E+02  0.10562905654E+03  0.47000000000E+01 0. -1.
        -11    1    6    6    0    0  0.45376696593E+02 -0.40121888625E+02  0.19114897613E+03  0.20051618792E+03  0.00000000000E+00 0.  1.
         12    1    6    6    0    0  0.11295080463E+02 -0.37381815312E+02  0.19802352201E+02  0.43784838831E+02  0.00000000000E+00 0. -1.
         -5    1    3    3    0  503  0.39997288416E+02 -0.36048051775E+02  0.78396579896E+02  0.95222680370E+02  0.47000000000E+01 0.  1.
         11    1    4    4    0    0 -0.36453444407E+02  0.33424813171E+02  0.15318857423E+03  0.16097456637E+03  0.00000000000E+00 0. -1.
        -12    1    4    4    0    0 -0.19849793962E+02  0.44522228472E+02  0.19418516221E+02  0.52472106120E+02  0.00000000000E+00 0.  1.
</event>
<event>
12    1  0.8493057E-002  0.1855331E+03  0.7818608E-02  0.1162708E+00
         21   -1    0    0  501  502  0.00000000000E+00  0.00000000000E+00  0.42342669743E+03  0.42342669743E+03  0.00000000000E+00 0.  1.
         21   -1    0    0  502  503 -0.00000000000E+00 -0.00000000000E+00 -0.10626817939E+03  0.10626817939E+03  0.00000000000E+00 0.  1.
         -6    2    1    2    0  503  0.51045980705E+00 -0.67056206881E+02  0.29225567283E+02  0.18716327428E+03  0.17227641163E+03 0.  0.
        -24    2    3    3    0    0  0.46356794529E+02  0.15501389317E+02  0.28227578762E+01  0.88995858898E+02  0.74317221888E+02 0.  0.
          6    2    1    2  501    0 -0.51045980705E+00  0.67056206881E+02  0.28793295076E+03  0.34253160255E+03  0.17299051754E+03 0.  0.
         24    2    5    5    0    0  0.65026114106E+02  0.33726995672E+02  0.19254775522E+03  0.22200648330E+03  0.82742581753E+02 0.  0.
          5    1    5    5  501    0 -0.65536573914E+02  0.33329211209E+02  0.95385195540E+02  0.12052511924E+03  0.47000000000E+01 0. -1.
        -13    1    6    6    0    0 -0.36908972636E+01  0.61905305551E+01  0.11341842998E+03  0.11364719817E+03  0.00000000000E+00 0.  1.
         14    1    6    6    0    0  0.68717011370E+02  0.27536465117E+02  0.79129325237E+02  0.10835928514E+03  0.00000000000E+00 0. -1.
         -5    1    3    3    0  503 -0.45846334722E+02 -0.82557596198E+02  0.26402809407E+02  0.98167415378E+02  0.47000000000E+01 0.  1.
         13    1    4    4    0    0 -0.15830559951E+02 -0.42593669424E+01  0.15458157184E+02  0.22532275931E+02  0.00000000000E+00 0. -1.
        -14    1    4    4    0    0  0.62187354479E+02  0.19760756260E+02 -0.12635399308E+02  0.66463582967E+02  0.00000000000E+00 0.  1.
</event>
<event>
12    1  0.8493057E-002  0.2854566E+03  0.7818608E-02  0.1092764E+00
         21   -1    0    0  503  502  0.00000000000E+00  0.00000000000E+00  0.10820466150E+03  0.10820466150E+03  0.00000000000E+00 0. -1.
         21   -1    0    0  501  503 -0.00000000000E+00 -0.00000000000E+00 -0.16176752064E+04  0.16176752064E+04  0.00000000000E+00 0. -1.
          6    2    1    2  501    0 -0.80258868088E+02 -0.21284685469E+03 -0.13858270460E+04  0.14149212271E+04  0.17245349480E+03 0.  0.
         24    2    3    3    0    0 -0.10306241495E+02 -0.18157687748E+03 -0.11400970649E+04  0.11574790101E+04  0.82824878164E+02 0.  0.
         -6    2    1    2    0  502  0.80258868088E+02  0.21284685469E+03 -0.12364349891E+03  0.31095864086E+03  0.17222744278E+03 0.  0.
        -24    2    5    5    0    0  0.92545024066E+02  0.22227632462E+03 -0.13796744153E+03  0.28934545359E+03  0.81941629367E+02 0.  0.
          5    1    3    3  501    0 -0.69952626593E+02 -0.31269977206E+02 -0.24572998113E+03  0.25744221695E+03  0.47000000000E+01 0. -1.
        -13    1    4    4    0    0  0.13169765645E+02  0.16260472838E+01 -0.45020786699E+02  0.46935679306E+02  0.00000000000E+00 0.  1.
         14    1    4    4    0    0 -0.23476007141E+02 -0.18320292477E+03 -0.10950762782E+04  0.11105433308E+04  0.00000000000E+00 0. -1.
         -5    1    5    5    0  502 -0.12286155978E+02 -0.94294699364E+01  0.14323942617E+02  0.21613187273E+02  0.47000000000E+01 0.  1.
         13    1    6    6    0    0  0.32291294524E+02  0.87035840011E+02 -0.10010592515E+03  0.13652531413E+03  0.00000000000E+00 0. -1.
        -14    1    6    6    0    0  0.60253729543E+02  0.13524048461E+03 -0.37861516381E+02  0.15282013946E+03  0.00000000000E+00 0.  1.
</event>
<event>
12    1  0.8493057E-002  0.1806413E+03  0.7818608E-02  0.1167192E+00
         21   -1    0    0  501  502  0.00000000000E+00  0.00000000000E+00  0.23057127797E+03  0.23057127797E+03  0.00000000000E+00 0. -1.
         21   -1    0    0  502  503 -0.00000000000E+00 -0.00000000000E+00 -0.17361100837E+03  0.17361100837E+03  0.00000000000E+00 0. -1.
         -6    2    1    2    0  503  0.29669143085E+02 -0.47242106977E+02 -0.58437967649E+02  0.18982738279E+03  0.17177707784E+03 0.  0.
        -24    2    3    3    0    0 -0.15294429381E+01  0.40004973498E+02 -0.12632016623E+02  0.86359126935E+02  0.75469158341E+02 0.  0.
          6    2    1    2  501    0 -0.29669143085E+02  0.47242106977E+02  0.11539823725E+03  0.21435490354E+03  0.17181151530E+03 0.  0.
         24    2    5    5    0    0  0.32303167988E+02 -0.16363162551E+02  0.39008317975E+02  0.97121344273E+02  0.81238284641E+02 0.  0.
          5    1    5    5  501    0 -0.61972311073E+02  0.63605269528E+02  0.76389919277E+02  0.11723355927E+03  0.47000000000E+01 0. -1.
        -13    1    6    6    0    0 -0.25134140085E+00  0.29346361089E+02  0.26687650842E+02  0.39667402097E+02  0.00000000000E+00 0.  1.
         14    1    6    6    0    0  0.32554509389E+02 -0.45709523640E+02  0.12320667132E+02  0.57453942176E+02  0.00000000000E+00 0. -1.
         -5    1    3    3    0  503  0.31198586023E+02 -0.87247080475E+02 -0.45805951025E+02  0.10346825586E+03  0.47000000000E+01 0.  1.
         11    1    4    4    0    0  0.15932508515E+01  0.80815867813E+01 -0.42041979060E+02  0.42841317632E+02  0.00000000000E+00 0. -1.
        -12    1    4    4    0    0 -0.31226937896E+01  0.31923386717E+02  0.29409962437E+02  0.43517809303E+02  0.00000000000E+00 0.  1.
</event>
<event>
12    1  0.8493057E-002  0.1873515E+03  0.7818608E-02  0.1161037E+00
         21   -1    0    0  501  502  0.00000000000E+00  0.00000000000E+00  0.39658163070E+03  0.39658163070E+03  0.00000000000E+00 0.  1.
         21   -1    0    0  502  503 -0.00000000000E+00 -0.00000000000E+00 -0.89027822314E+02  0.89027822314E+02  0.00000000000E+00 0.  1.
         -6    2    1    2    0  503 -0.73997063696E+02 -0.59267810670E+00  0.13023565395E+03  0.22817081493E+03  0.17211821089E+03 0.  0.
        -24    2    3    3    0    0 -0.11666065942E+03  0.45197484733E+01  0.92322777862E+02  0.17067476742E+03  0.83523908776E+02 0.  0.
          6    2    1    2  501    0  0.73997063696E+02  0.59267810670E+00  0.17731815444E+03  0.25743863809E+03  0.17133886828E+03 0.  0.
         24    2    5    5    0    0  0.31429309448E+02 -0.53679397705E+02  0.55515660643E+02  0.11738361530E+03  0.82629566943E+02 0.  0.
          5    1    5    5  501    0  0.42567754248E+02  0.54272075812E+02  0.12180249379E+03  0.14005502279E+03  0.47000000000E+01 0. -1.
        -13    1    6    6    0    0  0.42965251899E+02 -0.70436733474E+02  0.49288286373E+02  0.96107655610E+02  0.00000000000E+00 0.  1.
         14    1    6    6    0    0 -0.11535942452E+02  0.16757335769E+02  0.62273742702E+01  0.21275959687E+02  0.00000000000E+00 0. -1.
         -5    1    3    3    0  503  0.42663595728E+02 -0.51124265800E+01  0.37912876088E+02  0.57496047510E+02  0.47000000000E+01 0.  1.
         11    1    4    4    0    0 -0.50575316067E+02 -0.21658446279E+02  0.82146498031E+02  0.98868589700E+02  0.00000000000E+00 0. -1.
        -12    1    4    4    0    0 -0.66085343357E+02  0.26178194752E+02  0.10176279831E+02  0.71806177717E+02  0.00000000000E+00 0.  1.
</event>
<event>
12    1  0.8493057E-002  0.2078680E+03  0.7818608E-02  0.1143481E+00
         21   -1    0    0  503  502  0.00000000000E+00  0.00000000000E+00  0.16507446357E+04  0.16507446357E+04  0.00000000000E+00 0.  1.
         21   -1    0    0  501  503 -0.00000000000E+00 -0.00000000000E+00 -0.31074772069E+02  0.31074772069E+02  0.00000000000E+00 0. -1.
          6    2    1    2  501    0  0.50851872155E+02 -0.10667130868E+03  0.46962136202E+03  0.51313610481E+03  0.16970491270E+03 0.  0.
         24    2    3    3    0    0  0.59347436472E+02 -0.88162726196E+02  0.17774344779E+03  0.22051083410E+03  0.75746354488E+02 0.  0.
         -6    2    1    2    0  502 -0.50851872155E+02  0.10667130868E+03  0.11500485016E+04  0.11686833029E+04  0.17101001599E+03 0.  0.
        -24    2    5    5    0    0 -0.52376326067E+02  0.25718481019E+02  0.32034978006E+03  0.33503005202E+03  0.78844368049E+02 0.  0.
          5    1    3    3  501    0 -0.84955643172E+01 -0.18508582484E+02  0.29187791424E+03  0.29262527071E+03  0.47000000000E+01 0. -1.
        -11    1    4    4    0    0  0.27168216915E+02 -0.61136130681E+02  0.16262947396E+03  0.17585245033E+03  0.00000000000E+00 0.  1.
         12    1    4    4    0    0  0.32179219557E+02 -0.27026595514E+02  0.15113973825E+02  0.44658383772E+02  0.00000000000E+00 0. -1.
         -5    1    5    5    0  502  0.15244539119E+01  0.80952827661E+02  0.82969872150E+03  0.83365325089E+03  0.47000000000E+01 0.  1.
         11    1    6    6    0    0  0.60629169291E+01  0.32031314432E+02  0.61672196367E+02  0.69758324741E+02  0.00000000000E+00 0. -1.
        -12    1    6    6    0    0 -0.58439242996E+02 -0.63128334131E+01  0.25867758370E+03  0.26527172728E+03  0.00000000000E+00 0.  1.
</event>
<event>
12    1  0.8493057E-002  0.1903356E+03  0.7818608E-02  0.1158293E+00
         21   -1    0    0  503  502  0.00000000000E+00  0.00000000000E+00  0.11620653895E+04  0.11620653895E+04  0.00000000000E+00 0.  1.
         21   -1    0    0  501  503 -0.00000000000E+00 -0.00000000000E+00 -0.48870833172E+02  0.48870833172E+02  0.00000000000E+00 0.  1.
          6    2    1    2  501    0 -0.52618081817E+02  0.60528869429E+02  0.19071467732E+03  0.26902498613E+03  0.17195914762E+03 0.  0.
         24    2    3    3    0    0  0.22019167772E+02  0.75815551308E+02  0.12861277551E+03  0.17062204981E+03  0.79610277517E+02 0.  0.
         -6    2    1    2    0  502  0.52618081817E+02 -0.60528869429E+02  0.92247987906E+03  0.94191123658E+03  0.17261298843E+03 0.  0.
        -24    2    5    5    0    0 -0.38489019227E+02 -0.27041869741E+02  0.44411889328E+03  0.45377887162E+03  0.80380380971E+02 0.  0.
          5    1    3    3  501    0 -0.74637249590E+02 -0.15286681879E+02  0.62101901805E+02  0.98402936323E+02  0.47000000000E+01 0. -1.
        -13    1    4    4    0    0 -0.29784388218E+02  0.35469610571E+02  0.57441572854E+02  0.73788463512E+02  0.00000000000E+00 0.  1.
         14    1    4    4    0    0  0.51803555990E+02  0.40345940737E+02  0.71171202659E+02  0.96833586297E+02  0.00000000000E+00 0. -1.
         -5    1    5    5    0  502  0.91107101044E+02 -0.33486999687E+02  0.47836098578E+03  0.48813236496E+03  0.47000000000E+01 0.  1.
         11    1    6    6    0    0 -0.48908039260E+02  0.72272634574E+01  0.34212190829E+03  0.34567561351E+03  0.00000000000E+00 0. -1.
        -12    1    6    6    0    0  0.10419020034E+02 -0.34269133199E+02  0.10199698498E+03  0.10810325811E+03  0.00000000000E+00 0.  1.
</event>
<event>
12    1  0.8493057E-002  0.1783556E+03  0.7818608E-02  0.1169495E+00
         21   -1    0    0  501  502  0.00000000000E+00  0.00000000000E+00  0.42360765176E+03  0.42360765176E+03  0.00000000000E+00 0. -1.
         21   -1    0    0  502  503 -0.00000000000E+00 -0.00000000000E+00 -0.83200312626E+02  0.83200312626E+02  0.00000000000E+00 0. -1.
         -6    2    1    2    0  503 -0.27105128511E+02  0.37742929385E+02  0.90510563047E+02  0.20000721316E+03  0.17219612825E+03 0.  0.
        -24    2    3    3    0    0 -0.45640757704E+02 -0.31818031250E+02  0.21104200470E+02  0.99899121783E+02  0.80243263761E+02 0.  0.
          6    2    1    2  501    0  0.27105128511E+02 -0.37742929385E+02  0.24989677609E+03  0.30680075122E+03  0.17181119155E+03 0.  0.
         24    2    5    5    0    0  0.24879882551E+02 -0.31447867626E+02  0.48854773966E+02  0.10559300749E+03  0.84587926778E+02 0.  0.
          5    1    5    5  501    0  0.22252459601E+01 -0.62950617590E+01  0.20104200212E+03  0.20120774374E+03  0.47000000000E+01 0. -1.
        -13    1    6    6    0    0  0.51678318812E+02 -0.12838052925E+01  0.36891185299E+02  0.63507923474E+02  0.00000000000E+00 0.  1.
         14    1    6    6    0    0 -0.26798436261E+02 -0.30164062333E+02  0.11963588667E+02  0.42085084012E+02  0.00000000000E+00 0. -1.
         -5    1    3    3    0  503  0.18535629193E+02  0.69560960635E+02  0.69406362577E+02  0.10010809138E+03  0.47000000000E+01 0.  1.
         11    1    4    4    0    0 -0.33471761110E+02  0.78142131147E+00 -0.25252065953E+02  0.41936097172E+02  0.00000000000E+00 0. -1.
        -12    1    4    4    0    0 -0.12168996593E+02 -0.32599452561E+02  0.46356266423E+02  0.57963024611E+02  0.00000000000E+00 0.  1.
</event>
<event>
12    1  0.8493057E-002  0.1773330E+03  0.7818608E-02  0.1170876E+00
         21   -1    0    0  501  502  0.00000000000E+00  0.00000000000E+00  0.58967401390E+03  0.58967401390E+03  0.00000000000E+00 0.  1.
         21   -1    0    0  502  503 -0.00000000000E+00 -0.00000000000E+00 -0.15512516965E+03  0.15512516965E+03  0.00000000000E+00 0.  1.
         -6    2    1    2    0  503 -0.37064199070E+01 -0.41406562635E+02 -0.84834760311E+02  0.19658055721E+03  0.17239123510E+03 0.  0.
        -24    2    3    3    0    0  0.41378774649E+02 -0.49857877407E+02 -0.10356618157E+03  0.14681052976E+03  0.81420923318E+02 0.  0.
          6    2    1    2  501    0  0.37064199070E+01  0.41406562635E+02  0.51938360456E+03  0.54821862635E+03  0.17045847766E+03 0.  0.
         24    2    5    5    0    0  0.61821178464E+02 -0.24431145314E+00  0.33549710942E+03  0.35086500066E+03  0.82012318993E+02 0.  0.
          5    1    5    5  501    0 -0.58114758557E+02  0.41650874088E+02  0.18388649514E+03  0.19735362568E+03  0.47000000000E+01 0. -1.
        -11    1    6    6    0    0  0.40340088712E+02  0.39294618578E+02  0.15738696122E+03  0.16715874302E+03  0.00000000000E+00 0.  1.
         12    1    6    6    0    0  0.21481089751E+02 -0.39538930031E+02  0.17811014820E+03  0.18370625764E+03  0.00000000000E+00 0. -1.
         -5    1    3    3    0  503 -0.45085194556E+02  0.84513147721E+01  0.18731421258E+02  0.49770027445E+02  0.47000000000E+01 0.  1.
         13    1    4    4    0    0  0.23973905591E+02  0.19370695393E+02 -0.19265898722E+02  0.36347583728E+02  0.00000000000E+00 0. -1.
        -14    1    4    4    0    0  0.17404869057E+02 -0.69228572800E+02 -0.84300282847E+02  0.11046294604E+03  0.00000000000E+00 0.  1.
</event>
<event>
12    1  0.8493057E-002  0.1810848E+03  0.7818608E-02  0.1166920E+00
         21   -1    0    0  503  502  0.00000000000E+00  0.00000000000E+00  0.74053252873E+02  0.74053252873E+02  0.00000000000E+00 0. -1.
         21   -1    0    0  501  503 -0.00000000000E+00 -0.00000000000E+00 -0.46767439953E+03  0.46767439953E+03  0.00000000000E+00 0.  1.
          6    2    1    2  501    0  0.47831181894E+02 -0.27063992967E+02 -0.26095470553E+03  0.31724580932E+03  0.17183498920E+03 0.  0.
         24    2    3    3    0    0 -0.29262691956E+02  0.23526821121E+02 -0.12138470781E+03  0.14989955116E+03  0.79534971527E+02 0.  0.
         -6    2    1    2    0  502 -0.47831181894E+02  0.27063992967E+02 -0.13266644113E+03  0.22448184309E+03  0.17254399902E+03 0.  0.
        -24    2    5    5    0    0 -0.15924971016E+02  0.75609358205E+02 -0.48447665665E+02  0.12206333441E+03  0.81128919314E+02 0.  0.
          5    1    3    3  501    0  0.77093873850E+02 -0.50590814089E+02 -0.13956999772E+03  0.16734625815E+03  0.47000000000E+01 0. -1.
        -13    1    4    4    0    0 -0.97192806857E+01 -0.26538875424E+02 -0.70222131941E+02  0.75696262392E+02  0.00000000000E+00 0.  1.
         14    1    4    4    0    0 -0.19543411270E+02  0.50065696545E+02 -0.51162575870E+02  0.74203288770E+02  0.00000000000E+00 0. -1.
         -5    1    5    5    0  502 -0.31906210878E+02 -0.48545365237E+02 -0.84218775463E+02  0.10241850867E+03  0.47000000000E+01 0.  1.
         11    1    6    6    0    0  0.21067349542E+02  0.37847219474E+01  0.86981943319E+01  0.23104456747E+02  0.00000000000E+00 0. -1.
        -12    1    6    6    0    0 -0.36992320558E+02  0.71824636257E+02 -0.57145859997E+02  0.98958877664E+02  0.00000000000E+00 0.  1.
</event>
<event>
12    1  0.8493057E-002  0.2211532E+03  0.7818608E-02  0.1133154E+00
         21   -1    0    0  503  502  0.00000000000E+00  0.00000000000E+00  0.62386074580E+03  0.62386074580E+03  0.00000000000E+00 0.  1.
         21   -1    0    0  501  503 -0.00000000000E+00 -0.00000000000E+00 -0.13146005097E+03  0.13146005097E+03  0.00000000000E+00 0.  1.
          6    2    1    2  501    0 -0.58063120857E+02 -0.12397447620E+03  0.54835354203E+01  0.22053385759E+03  0.17281237349E+03 0.  0.
         24    2    3    3    0    0  0.25941055306E+02 -0.87493536611E+02 -0.22754075769E+02  0.12458067499E+03  0.81697853813E+02 0.  0.
         -6    2    1    2    0  502  0.58063120857E+02  0.12397447620E+03  0.48691715940E+03  0.53478693917E+03  0.17368866813E+03 0.  0.
        -24    2    5    5    0    0 -0.35070591274E+02  0.42319519235E+02  0.28367760082E+03  0.29673268379E+03  0.67501232155E+02 0.  0.
          5    1    3    3  501    0 -0.84004176163E+02 -0.36480939589E+02  0.28237611189E+02  0.95953182604E+02  0.47000000000E+01 0. -1.
        -13    1    4    4    0    0 -0.25529982098E+02 -0.28894122875E+02  0.10241045004E+02  0.39893976054E+02  0.00000000000E+00 0.  1.
         14    1    4    4    0    0  0.51471037405E+02 -0.58599413737E+02 -0.32995120773E+02  0.84686698935E+02  0.00000000000E+00 0. -1.
         -5    1    5    5    0  502  0.93133712130E+02  0.81654956965E+02  0.20323955859E+03  0.23805425539E+03  0.47000000000E+01 0.  1.
         11    1    6    6    0    0 -0.34122939436E+02 -0.17739835800E+01  0.19177654470E+03  0.19479672767E+03  0.00000000000E+00 0. -1.
        -12    1    6    6    0    0 -0.94765183730E+00  0.44093502815E+02  0.91901056114E+02  0.10193595612E+03  0.00000000000E+00 0.  1.
</event>
<event>
12    1  0.8493057E-002  0.2164752E+03  0.7818608E-02  0.1137136E+00
         21   -1    0    0  503  502  0.00000000000E+00  0.00000000000E+00  0.10023192872E+03  0.10023192872E+03  0.00000000000E+00 0. -1.
         21   -1    0    0  501  503 -0.00000000000E+00 -0.00000000000E+00 -0.15556190925E+04  0.15556190925E+04  0.00000000000E+00 0. -1.
          6    2    1    2  501    0  0.10143413172E+03  0.82751308086E+02 -0.14238039927E+04  0.14401664165E+04  0.17240892002E+03 0.  0.
         24    2    3    3    0    0  0.23243218269E+02 -0.12803932904E+02 -0.78847388016E+03  0.79293302363E+03  0.79671402507E+02 0.  0.
         -6    2    1    2    0  502 -0.10143413172E+03 -0.82751308086E+02 -0.31583171074E+02  0.21568460464E+03  0.16848053275E+03 0.  0.
        -24    2    5    5    0    0 -0.10634726954E+03 -0.10405417167E+03  0.95745444759E+01  0.16884446727E+03  0.79244998863E+02 0.  0.
          5    1    3    3  501    0  0.78190913450E+02  0.95555240991E+02 -0.63533011250E+03  0.64723339290E+03  0.47000000000E+01 0. -1.
        -13    1    4    4    0    0  0.11068453817E+02  0.24661082480E+02 -0.10841118282E+03  0.11173031916E+03  0.00000000000E+00 0.  1.
         14    1    4    4    0    0  0.12174764451E+02 -0.37465015384E+02 -0.68006269734E+03  0.68120270447E+03  0.00000000000E+00 0. -1.
         -5    1    5    5    0  502  0.49131378215E+01  0.21302863582E+02 -0.41157715550E+02  0.46840137375E+02  0.47000000000E+01 0.  1.
         13    1    6    6    0    0 -0.16383325674E+02  0.12489691068E+02  0.64371383135E+01  0.21583384647E+02  0.00000000000E+00 0. -1.
        -14    1    6    6    0    0 -0.89963943866E+02 -0.11654386274E+03  0.31374061624E+01  0.14726108262E+03  0.00000000000E+00 0.  1.
</event>
<event>
12    1  0.8493057E-002  0.1769024E+03  0.7818608E-02  0.1170985E+00
         21   -1    0    0  503  502  0.00000000000E+00  0.00000000000E+00  0.77898271890E+03  0.77898271890E+03  0.00000000000E+00 0.  1.
         21   -1    0    0  501  503 -0.00000000000E+00 -0.00000000000E+00 -0.98667090296E+02  0.98667090296E+02  0.00000000000E+00 0.  1.
          6    2    1    2  501    0  0.38933115933E+02 -0.13662388008E+02  0.16463291243E+01  0.17630361149E+03  0.17139954685E+03 0.  0.
         24    2    3    3    0    0 -0.26493787428E+02  0.37597140793E+02  0.14787428121E+02  0.92024328984E+02  0.78322048789E+02 0.  0.
         -6    2    1    2    0  502 -0.38933115933E+02  0.13662388008E+02  0.67866929948E+03  0.70134619771E+03  0.17202332000E+03 0.  0.
        -24    2    5    5    0    0  0.18199187502E+02 -0.45569808298E+02  0.33234779156E+03  0.34535008815E+03  0.80023815053E+02 0.  0.
          5    1    3    3  501    0  0.65426903361E+02 -0.51259528801E+02 -0.13141098996E+02  0.84279282503E+02  0.47000000000E+01 0. -1.
        -11    1    4    4    0    0 -0.52969364582E+02  0.14085864194E+02  0.37614700436E+01  0.54939182841E+02  0.00000000000E+00 0.  1.
         12    1    4    4    0    0  0.26475577154E+02  0.23511276599E+02  0.11025958077E+02  0.37085146143E+02  0.00000000000E+00 0. -1.
         -5    1    5    5    0  502 -0.57132303435E+02  0.59232196305E+02  0.34632150792E+03  0.35599610956E+03  0.47000000000E+01 0.  1.
         13    1    6    6    0    0  0.14869042962E+01 -0.47873985672E+02  0.86106065654E+02  0.98531131785E+02  0.00000000000E+00 0. -1.
        -14    1    6    6    0    0  0.16712283205E+02  0.23041773738E+01  0.24624172591E+03  0.24681895636E+03  0.00000000000E+00 0.  1.
</event>
<event>
12    1  0.8493057E-002  0.1980729E+03  0.7818608E-02  0.1151481E+00
         21   -1    0    0  503  502  0.00000000000E+00  0.00000000000E+00  0.49809367878E+03  0.49809367878E+03  0.00000000000E+00 0.  1.
         21   -1    0    0  501  503 -0.00000000000E+00 -0.00000000000E+00 -0.10743097514E+03  0.10743097514E+03  0.00000000000E+00 0.  1.
          6    2    1    2  501    0 -0.60830676706E+02  0.77597286247E+02  0.38582453704E+02  0.20179564707E+03  0.17178814680E+03 0.  0.
         24    2    3    3    0    0 -0.10523066595E+03  0.46685576859E+02  0.11718454666E+02  0.14120969766E+03  0.80930960634E+02 0.  0.
         -6    2    1    2    0  502  0.60830676706E+02 -0.77597286247E+02  0.35208024994E+03  0.40372900684E+03  0.17121594116E+03 0.  0.
        -24    2    5    5    0    0  0.98732216458E+02 -0.63074927388E+02  0.32583568811E+03  0.35516675146E+03  0.79044472690E+02 0.  0.
          5    1    3    3  501    0  0.44399989245E+02  0.30911709388E+02  0.26863999038E+02  0.60585949415E+02  0.47000000000E+01 0. -1.
        -13    1    4    4    0    0 -0.53308156315E+02  0.60391399538E+02 -0.13844803527E+02  0.81734688184E+02  0.00000000000E+00 0.  1.
         14    1    4    4    0    0 -0.51922509636E+02 -0.13705822679E+02  0.25563258193E+02  0.59475009472E+02  0.00000000000E+00 0. -1.
         -5    1    5    5    0  502 -0.37901539752E+02 -0.14522358858E+02  0.26244561824E+02  0.48562255381E+02  0.47000000000E+01 0.  1.
         13    1    6    6    0    0  0.10537172018E+02  0.10987602636E+00  0.13683595941E+03  0.13724111576E+03  0.00000000000E+00 0. -1.
        -14    1    6    6    0    0  0.88195044439E+02 -0.63184803415E+02  0.18899972870E+03  0.21792563570E+03  0.00000000000E+00 0.  1.
</event>
<event>
12    1  0.8493057E-002  0.3077712E+03  0.7818608E-02  0.1081478E+00
         21   -1    0    0  503  502  0.00000000000E+00  0.00000000000E+00  0.67298860490E+02  0.67298860490E+02  0.00000000000E+00 0.  1.
         21   -1    0    0  501  503 -0.00000000000E+00 -0.00000000000E+00 -0.14476066433E+04  0.14476066433E+04  0.00000000000E+00 0. -1.
          6    2    1    2  501    0 -0.24136248579E+03  0.81309320720E+02 -0.82020195663E+03  0.87604472836E+03  0.17278906576E+03 0.  0.
         24    2    3    3    0    0 -0.23557465439E+03  0.11417318312E+03 -0.72712017322E+03  0.77705058285E+03  0.81073599035E+02 0.  0.
         -6    2    1    2    0  502  0.24136248579E+03 -0.81309320720E+02 -0.56010582619E+03  0.63886077544E+03  0.17192294400E+03 0.  0.
        -24    2    5    5    0    0  0.21289080243E+03 -0.19611323447E+02 -0.34759114127E+03  0.41569746992E+03  0.79231857518E+02 0.  0.
          5    1    3    3  501    0 -0.57878314036E+01 -0.32863862398E+02 -0.93081783402E+02  0.98994145511E+02  0.47000000000E+01 0. -1.
        -11    1    4    4    0    0 -0.11925498492E+03  0.20842069903E+02 -0.26225377757E+03  0.28884803471E+03  0.00000000000E+00 0.  1.
         12    1    4    4    0    0 -0.11631966947E+03  0.93331113215E+02 -0.46486639566E+03  0.48820254814E+03  0.00000000000E+00 0. -1.
         -5    1    5    5    0  502  0.28471683368E+02 -0.61697997273E+02 -0.21251468492E+03  0.22316330551E+03  0.47000000000E+01 0.  1.
         11    1    6    6    0    0  0.10950664920E+03 -0.38415893047E+02 -0.23249054905E+03  0.25984484304E+03  0.00000000000E+00 0. -1.
        -12    1    6    6    0    0  0.10338415323E+03  0.18804569600E+02 -0.11510059222E+03  0.15585262688E+03  0.00000000000E+00 0.  1.
</event>
<event>
12    1  0.8493057E-002  0.1956384E+03  0.7818608E-02  0.1155572E+00
         21   -1    0    0  501  502  0.00000000000E+00  0.00000000000E+00  0.17902674246E+03  0.17902674246E+03  0.00000000000E+00 0.  1.
         21   -1    0    0  502  503 -0.00000000000E+00 -0.00000000000E+00 -0.32153242191E+03  0.32153242191E+03  0.00000000000E+00 0. -1.
         -6    2    1    2    0  503  0.39387688408E+02  0.85030369580E+02 -0.22390199363E+03  0.29733227363E+03  0.17173475024E+03 0.  0.
        -24    2    3    3    0    0  0.45333541459E+02 -0.72141718437E+01 -0.15664849237E+03  0.18292278092E+03  0.82551919170E+02 0.  0.
          6    2    1    2  501    0 -0.39387688408E+02 -0.85030369580E+02  0.81396314182E+02  0.20322689074E+03  0.16091692083E+03 0.  0.
         24    2    5    5    0    0 -0.77288186402E+02 -0.95640546374E+02  0.69093171823E+02  0.16172410877E+03  0.79121698014E+02 0.  0.
          5    1    5    5  501    0  0.37900497994E+02  0.10610176794E+02  0.12303142360E+02  0.41502781976E+02  0.47000000000E+01 0. -1.
        -11    1    6    6    0    0 -0.10872337792E+02 -0.76166429858E+02  0.33850072764E+02  0.84055696967E+02  0.00000000000E+00 0.  1.
         12    1    6    6    0    0 -0.66415848610E+02 -0.19474116516E+02  0.35243099059E+02  0.77668411802E+02  0.00000000000E+00 0. -1.
         -5    1    3    3    0  503 -0.59458530508E+01  0.92244541424E+02 -0.67253501256E+02  0.11440949271E+03  0.47000000000E+01 0.  1.
         11    1    4    4    0    0 -0.75155698844E+00  0.84536706131E+00 -0.12812247828E+03  0.12812747139E+03  0.00000000000E+00 0. -1.
        -12    1    4    4    0    0  0.46085098448E+02 -0.80595389050E+01 -0.28526014092E+02  0.54795309528E+02  0.00000000000E+00 0.  1.
</event>
<event>
12    1  0.8493057E-002  0.1982712E+03  0.7818608E-02  0.1151369E+00
         21   -1    0    0  501  502  0.00000000000E+00  0.00000000000E+00  0.47428827122E+02  0.47428827122E+02  0.00000000000E+00 0. -1.
         21   -1    0    0  502  503 -0.00000000000E+00 -0.00000000000E+00 -0.13569803919E+04  0.13569803919E+04  0.00000000000E+00 0. -1.
         -6    2    1    2    0  503 -0.94961625177E+01 -0.95525194665E+02 -0.10949320714E+04  0.11127388299E+04  0.17348262946E+03 0.  0.
        -24    2    3    3    0    0  0.20165678302E+01 -0.12564966734E+03 -0.66368748211E+03  0.68026453866E+03  0.80541065291E+02 0.  0.
          6    2    1    2  501    0  0.94961625177E+01  0.95525194665E+02 -0.21461949334E+03  0.29167038906E+03  0.17261184494E+03 0.  0.
         24    2    5    5    0    0  0.46312257224E+02  0.12080766721E+03 -0.16333376513E+03  0.22350189072E+03  0.80844657831E+02 0.  0.
          5    1    5    5  501    0 -0.36816094706E+02 -0.25282472545E+02 -0.51285728209E+02  0.68168498336E+02  0.47000000000E+01 0. -1.
        -13    1    6    6    0    0  0.40046505505E+02  0.34328563117E+02 -0.20865686852E+02  0.56723449619E+02  0.00000000000E+00 0.  1.
         14    1    6    6    0    0  0.62657517188E+01  0.86479104094E+02 -0.14246807828E+03  0.16677844111E+03  0.00000000000E+00 0. -1.
         -5    1    3    3    0  503 -0.11512730348E+02  0.30124472674E+02 -0.43124458931E+03  0.43247429128E+03  0.47000000000E+01 0.  1.
         11    1    4    4    0    0  0.32599990525E+02 -0.73183024181E+02 -0.26087234185E+03  0.27289722086E+03  0.00000000000E+00 0. -1.
        -12    1    4    4    0    0 -0.30583422695E+02 -0.52466643159E+02 -0.40281514026E+03  0.40736731780E+03  0.00000000000E+00 0.  1.
</event>
<event>
12    1  0.8493057E-002  0.1775024E+03  0.7818608E-02  0.1170279E+00
         21   -1    0    0  501  502  0.00000000000E+00  0.00000000000E+00  0.42619463934E+03  0.42619463934E+03  0.00000000000E+00 0. -1.
         21   -1    0    0  502  503 -0.00000000000E+00 -0.00000000000E+00 -0.12268421591E+03  0.12268421591E+03  0.00000000000E+00 0. -1.
         -6    2    1    2    0  503 -0.29622543496E+01 -0.41164579016E+02 -0.21327910372E+02  0.17877915615E+03  0.17263779828E+03 0.  0.
        -24    2    3    3    0    0 -0.49072983476E+02 -0.64932962840E+02 -0.43597616476E+02  0.12212966171E+03  0.79940319843E+02 0.  0.
          6    2    1    2  501    0  0.29622543496E+01  0.41164579016E+02  0.32483833380E+03  0.37009969910E+03  0.17248346775E+03 0.  0.
         24    2    5    5    0    0  0.50803900521E+02 -0.28489081620E+02  0.16530228377E+03  0.18950541123E+03  0.72074904011E+02 0.  0.
          5    1    5    5  501    0 -0.47841646172E+02  0.69653660636E+02  0.15953605004E+03  0.18059428787E+03  0.47000000000E+01 0. -1.
        -13    1    6    6    0    0 -0.13558327259E+02  0.93751391124E+01  0.18336742611E+02  0.24656796244E+02  0.00000000000E+00 0.  1.
         14    1    6    6    0    0  0.64362227780E+02 -0.37864220732E+02  0.14696554116E+03  0.16484861499E+03  0.00000000000E+00 0. -1.
         -5    1    3    3    0  503  0.46110729126E+02  0.23768383824E+02  0.22269706104E+02  0.56649494438E+02  0.47000000000E+01 0.  1.
         11    1    4    4    0    0 -0.58887767017E+02 -0.20632249474E+02 -0.44675141765E+02  0.76741951463E+02  0.00000000000E+00 0. -1.
        -12    1    4    4    0    0  0.98147835410E+01 -0.44300713367E+02  0.10775252895E+01  0.45387710247E+02  0.00000000000E+00 0.  1.
</event>
<event>
12    1  0.8493057E-002  0.1984222E+03  0.7818608E-02  0.1151376E+00
         21   -1    0    0  503  502  0.00000000000E+00  0.00000000000E+00  0.82030275815E+02  0.82030275815E+02  0.00000000000E+00 0.  1.
         21   -1    0    0  501  503 -0.00000000000E+00 -0.00000000000E+00 -0.65650491249E+03  0.65650491249E+03  0.00000000000E+00 0. -1.
          6    2    1    2  501    0 -0.16320856967E+02 -0.95423919292E+02 -0.47981091314E+03  0.51868848093E+03  0.17160166997E+03 0.  0.
         24    2    3    3    0    0 -0.71362283573E+02 -0.46625836142E+02 -0.33967015421E+03  0.36034602335E+03  0.84893455373E+02 0.  0.
         -6    2    1    2    0  502  0.16320856967E+02  0.95423919292E+02 -0.94663723542E+02  0.21984670738E+03  0.17320294295E+03 0.  0.
        -24    2    5    5    0    0  0.72656243391E+02  0.33763563761E+02 -0.43114460393E+02  0.12158638101E+03  0.80656576980E+02 0.  0.
          5    1    3    3  501    0  0.55041426605E+02 -0.48798083149E+02 -0.14014075892E+03  0.15834245758E+03  0.47000000000E+01 0. -1.
        -11    1    4    4    0    0 -0.49773892003E+02 -0.36873997653E+02 -0.88294258178E+02  0.10785642334E+03  0.00000000000E+00 0.  1.
         12    1    4    4    0    0 -0.21588391570E+02 -0.97518384893E+01 -0.25137589604E+03  0.25248960001E+03  0.00000000000E+00 0. -1.
         -5    1    5    5    0  502 -0.56335386424E+02  0.61660355531E+02 -0.51549263149E+02  0.98260326373E+02  0.47000000000E+01 0.  1.
         11    1    6    6    0    0  0.10405089800E+02  0.41960296362E+02 -0.39717390549E+02  0.58706076999E+02  0.00000000000E+00 0. -1.
        -12    1    6    6    0    0  0.62251153591E+02 -0.81967326015E+01 -0.33970698440E+01  0.62880304009E+02  0.00000000000E+00 0.  1.
</event>
<event>
12    1  0.8493057E-002  0.2028721E+03  0.7818608E-02  0.1147590E+00
         21   -1    0    0  501  502  0.00000000000E+00  0.00000000000E+00  0.33854257410E+03  0.33854257410E+03  0.00000000000E+00 0.  1.
         21   -1    0    0  502  503 -0.00000000000E+00 -0.00000000000E+00 -0.13907952881E+03  0.13907952881E+03  0.00000000000E+00 0.  1.
         -6    2    1    2    0  503 -0.10478696038E+03  0.14838233422E+02  0.13524675469E+02  0.20332238288E+03  0.17307973393E+03 0.  0.
        -24    2    3    3    0    0 -0.23326939640E+02 -0.37617743508E+02  0.25439452687E+02  0.10559103473E+03  0.92428675873E+02 0.  0.
          6    2    1    2  501    0  0.10478696038E+03 -0.14838233422E+02  0.18593836981E+03  0.27429972003E+03  0.17165890249E+03 0.  0.
         24    2    5    5    0    0  0.12848280719E+03  0.25389171049E+02  0.15125277228E+03  0.21594804565E+03  0.81263248438E+02 0.  0.
          5    1    5    5  501    0 -0.23695846819E+02 -0.40227404471E+02  0.34685597537E+02  0.58351674384E+02  0.47000000000E+01 0. -1.
        -11    1    6    6    0    0  0.84558440090E+02  0.30349578258E+02  0.44191967771E+02  0.10012071068E+03  0.00000000000E+00 0.  1.
         12    1    6    6    0    0  0.43924367105E+02 -0.49604072089E+01  0.10706080451E+03  0.11582733497E+03  0.00000000000E+00 0. -1.
         -5    1    3    3    0  503 -0.81460020736E+02  0.52455976929E+02 -0.11914777218E+02  0.97731348144E+02  0.47000000000E+01 0.  1.
         13    1    4    4    0    0  0.21206212796E+02 -0.47562237390E+02 -0.24141370091E+01  0.52131544618E+02  0.00000000000E+00 0. -1.
        -14    1    4    4    0    0 -0.44533152436E+02  0.99444938828E+01  0.27853589696E+02  0.53459490116E+02  0.00000000000E+00 0.  1.
</event>
<event>
12    1  0.8493057E-002  0.1736134E+03  0.7818608E-02  0.1174342E+00
         21   -1    0    0  503  502  0.00000000000E+00  0.00000000000E+00  0.12700672470E+03  0.12700672470E+03  0.00000000000E+00 0.  1.
         21   -1    0    0  501  503 -0.00000000000E+00 -0.00000000000E+00 -0.36009897052E+03  0.36009897052E+03  0.00000000000E+00 0.  1.
          6    2    1    2  501    0 -0.24727497113E+02 -0.96612951668E+01 -0.25959469863E+03  0.31229956140E+03  0.17157161407E+03 0.  0.
         24    2    3    3    0    0 -0.56484287914E+02  0.37045553003E+02 -0.21727943092E+03  0.24156982713E+03  0.81134348476E+02 0.  0.
         -6    2    1    2    0  502  0.24727497113E+02  0.96612951668E+01  0.26502452816E+02  0.17480613381E+03  0.17073375377E+03 0.  0.
        -24    2    5    5    0    0  0.42019895755E+02  0.52204553012E+02 -0.20287974045E+02  0.10907646103E+03  0.83636627531E+02 0.  0.
          5    1    3    3  501    0  0.31756790801E+02 -0.46706848170E+02 -0.42315267713E+02  0.70729734268E+02  0.47000000000E+01 0. -1.
        -13    1    4    4    0    0 -0.26254101846E+02 -0.25178332098E+02 -0.77016568486E+02  0.85174985133E+02  0.00000000000E+00 0.  1.
         14    1    4    4    0    0 -0.30230186068E+02  0.62223885101E+02 -0.14026286243E+03  0.15639484200E+03  0.00000000000E+00 0. -1.
         -5    1    5    5    0  502 -0.17292398642E+02 -0.42543257845E+02  0.46790426861E+02  0.65729672787E+02  0.47000000000E+01 0.  1.
         13    1    6    6    0    0 -0.76436681357E+01  0.48880442999E+02 -0.30698478339E+02  0.58224736519E+02  0.00000000000E+00 0. -1.
        -14    1    6    6    0    0  0.49663563891E+02  0.33241100127E+01  0.10410504294E+02  0.50851724508E+02  0.00000000000E+00 0.  1.
</event>
<event>
12    1  0.8493057E-002  0.1762695E+03  0.7818608E-02  0.1171700E+00
         21   -1    0    0  503  502  0.00000000000E+00  0.00000000000E+00  0.29299729377E+03  0.29299729377E+03  0.00000000000E+00 0. -1.
         21   -1    0    0  501  503 -0.00000000000E+00 -0.00000000000E+00 -0.10836596735E+03  0.10836596735E+03  0.00000000000E+00 0. -1.
          6    2    1    2  501    0  0.16763122883E+02 -0.27365594057E+02  0.12485751148E+03  0.21523468215E+03  0.17235629434E+03 0.  0.
         24    2    3    3    0    0  0.59996068750E+02 -0.47023430767E+02  0.11483229421E+03  0.16646878080E+03  0.93352385514E+02 0.  0.
         -6    2    1    2    0  502 -0.16763122883E+02  0.27365594057E+02  0.59773814934E+02  0.18612857898E+03  0.17332357293E+03 0.  0.
        -24    2    5    5    0    0 -0.22435449992E+02  0.40735490520E+02 -0.30619949859E+02  0.94454961511E+02  0.76298288450E+02 0.  0.
          5    1    3    3  501    0 -0.43232945866E+02  0.19657836710E+02  0.10025217269E+02  0.48765901342E+02  0.47000000000E+01 0. -1.
        -11    1    4    4    0    0  0.58203210362E+01  0.14675247832E+02  0.72290374711E+02  0.73994170796E+02  0.00000000000E+00 0.  1.
         12    1    4    4    0    0  0.54175747714E+02 -0.61698678598E+02  0.42541919503E+02  0.92474610008E+02  0.00000000000E+00 0. -1.
         -5    1    5    5    0  502  0.56723271085E+01 -0.13369896463E+02  0.90393764793E+02  0.91673617468E+02  0.47000000000E+01 0.  1.
         11    1    6    6    0    0 -0.49101593731E+02  0.19706925581E+02 -0.76565423282E+01  0.53459817276E+02  0.00000000000E+00 0. -1.
        -12    1    6    6    0    0  0.26666143739E+02  0.21028564939E+02 -0.22963407531E+02  0.40995144234E+02  0.00000000000E+00 0.  1.
</event>
<event>
12    1  0.8493057E-002  0.1743612E+03  0.7818608E-02  0.1173492E+00
         21   -1    0    0  503  502  0.00000000000E+00  0.00000000000E+00  0.13338788626E+04  0.13338788626E+04  0.00000000000E+00 0. -1.
         21   -1    0    0  501  503 -0.00000000000E+00 -0.00000000000E+00 -0.77421394595E+02  0.77421394595E+02  0.00000000000E+00 0. -1.
          6    2    1    2  501    0  0.30688782555E+02 -0.19439307741E+02  0.35395230308E+02  0.17791757312E+03  0.17053490093E+03 0.  0.
         24    2    3    3    0    0 -0.30423392426E+02  0.53011469845E+01 -0.16718569410E+02  0.93746757798E+02  0.86920993255E+02 0.  0.
         -6    2    1    2    0  502 -0.30688782555E+02  0.19439307741E+02  0.12210622377E+04  0.12333826841E+04  0.17005931020E+03 0.  0.
        -24    2    5    5    0    0  0.39417023995E+02 -0.36044369573E+01  0.45352923986E+03  0.46229589839E+03  0.80386768301E+02 0.  0.
          5    1    3    3  501    0  0.61112174981E+02 -0.24740454725E+02  0.52113799718E+02  0.84170815322E+02  0.47000000000E+01 0. -1.
        -13    1    4    4    0    0 -0.54050367773E+02  0.12176079491E+02  0.11206689043E+02  0.56526887827E+02  0.00000000000E+00 0.  1.
         14    1    4    4    0    0  0.23626975346E+02 -0.68749325065E+01 -0.27925258453E+02  0.37219869971E+02  0.00000000000E+00 0. -1.
         -5    1    5    5    0  502 -0.70105806550E+02  0.23043744698E+02  0.76753299784E+03  0.77108678568E+03  0.47000000000E+01 0.  1.
         13    1    6    6    0    0  0.45532405553E+02  0.77449379247E+01  0.44366591732E+03  0.44606348227E+03  0.00000000000E+00 0. -1.
        -14    1    6    6    0    0 -0.61153815585E+01 -0.11349374882E+02  0.98633225359E+01  0.16232416125E+02  0.00000000000E+00 0.  1.
</event>
<event>
12    1  0.8493057E-002  0.2608892E+03  0.7818608E-02  0.1106628E+00
         21   -1    0    0  503  502  0.00000000000E+00  0.00000000000E+00  0.22063769382E+03  0.22063769382E+03  0.00000000000E+00 0.  1.
         21   -1    0    0  501  503 -0.00000000000E+00 -0.00000000000E+00 -0.31772399091E+03  0.31772399091E+03  0.00000000000E+00 0. -1.
          6    2    1    2  501    0 -0.18762970673E+03 -0.56289086026E+02 -0.94808643900E+02  0.27758212813E+03  0.17230725708E+03 0.  0.
         24    2    3    3    0    0 -0.31369171587E+02 -0.52962728438E+02 -0.13705544462E+02  0.10143383198E+03  0.79447497071E+02 0.  0.
         -6    2    1    2    0  502  0.18762970673E+03  0.56289086026E+02 -0.22776531907E+01  0.26077955661E+03  0.17212617868E+03 0.  0.
        -24    2    5    5    0    0  0.14979108778E+03  0.71563609528E+02 -0.56347265283E+02  0.19287753083E+03  0.80423923111E+02 0.  0.
          5    1    3    3  501    0 -0.15626053514E+03 -0.33263575888E+01 -0.81103099439E+02  0.17614829615E+03  0.47000000000E+01 0. -1.
        -11    1    4    4    0    0  0.18181589894E+01 -0.36681902797E+02 -0.41327059365E+02  0.55288276612E+02  0.00000000000E+00 0.  1.
         12    1    4    4    0    0 -0.33187330576E+02 -0.16280825641E+02  0.27621514904E+02  0.46145555364E+02  0.00000000000E+00 0. -1.
         -5    1    5    5    0  502  0.37838618951E+02 -0.15274523501E+02  0.54069612092E+02  0.67902025773E+02  0.47000000000E+01 0.  1.
         13    1    6    6    0    0  0.42229691435E+02  0.63618667553E+02 -0.28315530766E+02  0.81439861140E+02  0.00000000000E+00 0. -1.
        -14    1    6    6    0    0  0.10756139634E+03  0.79449419743E+01 -0.28031734517E+02  0.11143766969E+03  0.00000000000E+00 0.  1.
</event>
<event>
12    1  0.8493057E-002  0.1945378E+03  0.7818608E-02  0.1154556E+00
         21   -1    0    0  503  502  0.00000000000E+00  0.00000000000E+00  0.27811004320E+03  0.27811004320E+03  0.00000000000E+00 0.  1.
         21   -1    0    0  501  503 -0.00000000000E+00 -0.00000000000E+00 -0.44231800794E+03  0.44231800794E+03  0.00000000000E+00 0.  1.
          6    2    1    2  501    0 -0.29444925705E+02 -0.88396727438E+02 -0.38198740532E+03  0.42841294248E+03  0.17012432627E+03 0.  0.
         24    2    3    3    0    0 -0.67567027469E+02 -0.13657407028E+02 -0.26057840096E+03  0.28075964249E+03  0.78568733196E+02 0.  0.
         -6    2    1    2    0  502  0.29444925705E+02  0.88396727438E+02  0.21777944058E+03  0.29201510867E+03  0.17077457035E+03 0.  0.
        -24    2    5    5    0    0  0.38707966916E+02 -0.15207829204E+02  0.10319134027E+03  0.13718542539E+03  0.80260846382E+02 0.  0.
          5    1    3    3  501    0  0.38122101764E+02 -0.74739320410E+02 -0.12140900436E+03  0.14765329999E+03  0.47000000000E+01 0. -1.
        -13    1    4    4    0    0 -0.41789901616E+02 -0.46343735892E+02 -0.14273801781E+03  0.15578279578E+03  0.00000000000E+00 0.  1.
         14    1    4    4    0    0 -0.25777125853E+02  0.32686328864E+02 -0.11784038315E+03  0.12497684671E+03  0.00000000000E+00 0. -1.
         -5    1    5    5    0  502 -0.92630412116E+01  0.10360455664E+03  0.11458810031E+03  0.15482968327E+03  0.47000000000E+01 0.  1.
         11    1    6    6    0    0 -0.21731368534E+02 -0.18717891227E+02  0.23337848378E+02  0.36976573627E+02  0.00000000000E+00 0. -1.
        -12    1    6    6    0    0  0.60439335450E+02  0.35100620233E+01  0.79853491889E+02  0.10020885176E+03  0.00000000000E+00 0.  1.
</event>
<event>
12    1  0.8493057E-002  0.2116629E+03  0.7818608E-02  0.1140361E+00
         21   -1    0    0  501  502  0.00000000000E+00  0.00000000000E+00  0.43414312399E+03  0.43414312399E+03  0.00000000000E+00 0.  1.
         21   -1    0    0  502  503 -0.00000000000E+00 -0.00000000000E+00 -0.10312747108E+03  0.10312747108E+03  0.00000000000E+00 0.  1.
         -6    2    1    2    0  503 -0.85134145428E+02  0.87501169346E+02  0.15406105732E+03  0.26179380856E+03  0.17290723370E+03 0.  0.
        -24    2    3    3    0    0 -0.80122526793E+02  0.12286924854E+03  0.93929265403E+02  0.19169430966E+03  0.80047048178E+02 0.  0.
          6    2    1    2  501    0  0.85134145428E+02 -0.87501169346E+02  0.17695459559E+03  0.27547678651E+03  0.17225055486E+03 0.  0.
         24    2    5    5    0    0  0.80176779765E+02 -0.71379901868E+02  0.20379687930E+03  0.24342887029E+03  0.78746685469E+02 0.  0.
          5    1    5    5  501    0  0.49573656625E+01 -0.16121267478E+02 -0.26842283708E+02  0.32047916220E+02  0.47000000000E+01 0. -1.
        -13    1    6    6    0    0  0.53213510351E+02 -0.54578483744E+01  0.13139828129E+03  0.14186956728E+03  0.00000000000E+00 0.  1.
         14    1    6    6    0    0  0.26963269415E+02 -0.65922053494E+02  0.72398598009E+02  0.10155930301E+03  0.00000000000E+00 0. -1.
         -5    1    3    3    0  503 -0.50116186349E+01 -0.35368079191E+02  0.60131791917E+02  0.70099498901E+02  0.47000000000E+01 0.  1.
         13    1    4    4    0    0  0.93339798935E+01  0.36142634325E+02  0.43394917558E+02  0.57240999873E+02  0.00000000000E+00 0. -1.
        -14    1    4    4    0    0 -0.89456506686E+02  0.86726614213E+02  0.50534347845E+02  0.13445330979E+03  0.00000000000E+00 0.  1.
</event>
<event>
12    1  0.8493057E-002  0.1820488E+03  0.7818608E-02  0.1166159E+00
         21   -1    0    0  503  502  0.00000000000E+00  0.00000000000E+00  0.16635096076E+04  0.16635096076E+04  0.00000000000E+00 0.  1.
         21   -1    0    0  501  503 -0.00000000000E+00 -0.00000000000E+00 -0.26791982574E+02  0.26791982574E+02  0.00000000000E+00 0.  1.
          6    2    1    2  501    0 -0.51230726609E+02 -0.23465725774E+02  0.12531426239E+04  0.12662970402E+04  0.17310843606E+03 0.  0.
         24    2    3    3    0    0 -0.77916053819E+02 -0.58346505448E+02  0.68920152835E+03  0.70062891780E+03  0.80043161157E+02 0.  0.
         -6    2    1    2    0  502  0.51230726609E+02  0.23465725774E+02  0.38357500112E+03  0.42400454993E+03  0.17168240808E+03 0.  0.
        -24    2    5    5    0    0  0.89127828177E+02  0.18093679325E+02  0.18228322553E+03  0.21905207225E+03  0.80532509328E+02 0.  0.
          5    1    3    3  501    0  0.26685327210E+02  0.34880779674E+02  0.56394109557E+03  0.56566812244E+03  0.47000000000E+01 0. -1.
        -13    1    4    4    0    0 -0.22880651198E+02 -0.39972704141E+00  0.39808625173E+03  0.39874346114E+03  0.00000000000E+00 0.  1.
         14    1    4    4    0    0 -0.55035402621E+02 -0.57946778407E+02  0.29111527661E+03  0.30188545667E+03  0.00000000000E+00 0. -1.
         -5    1    5    5    0  502 -0.37897101568E+02  0.53720464489E+01  0.20129177559E+03  0.20495247768E+03  0.47000000000E+01 0.  1.
         13    1    6    6    0    0  0.20553732318E+02  0.54560563407E+01  0.13044048393E+03  0.13216256773E+03  0.00000000000E+00 0. -1.
        -14    1    6    6    0    0  0.68574095859E+02  0.12637622984E+02  0.51842741606E+02  0.86889504515E+02  0.00000000000E+00 0.  1.
</event>
<event>
12    1  0.8493057E-002  0.4040110E+03  0.7818608E-02  0.1042406E+00
         21   -1    0    0  503  502  0.00000000000E+00  0.00000000000E+00  0.20672351756E+03  0.20672351756E+03  0.00000000000E+00 0.  1.
         21   -1    0    0  501  503 -0.00000000000E+00 -0.00000000000E+00 -0.79029604862E+03  0.79029604862E+03  0.00000000000E+00 0. -1.
          6    2    1    2  501    0  0.55826801133E+02 -0.36114973903E+03 -0.30823209806E+03  0.50810518379E+03  0.17209905806E+03 0.  0.
         24    2    3    3    0    0  0.10051713141E+03 -0.31310544739E+03 -0.25371510079E+03  0.42266706249E+03  0.78341422300E+02 0.  0.
         -6    2    1    2    0  502 -0.55826801133E+02  0.36114973903E+03 -0.27534043300E+03  0.48891438240E+03  0.17227638708E+03 0.  0.
        -24    2    5    5    0    0 -0.82039279171E+02  0.15221178852E+03 -0.99978035403E+02  0.21484099504E+03  0.79133897257E+02 0.  0.
          5    1    3    3  501    0 -0.44690330280E+02 -0.48044291644E+02 -0.54516997269E+02  0.85438121300E+02  0.47000000000E+01 0. -1.
        -11    1    4    4    0    0  0.83674813571E+02 -0.29208590452E+03 -0.20351234248E+03  0.36569512382E+03  0.00000000000E+00 0.  1.
         12    1    4    4    0    0  0.16842317842E+02 -0.21019542867E+02 -0.50202758315E+02  0.56971938663E+02  0.00000000000E+00 0. -1.
         -5    1    5    5    0  502  0.26212478038E+02  0.20893795051E+03 -0.17536239759E+03  0.27407338736E+03  0.47000000000E+01 0.  1.
         13    1    6    6    0    0 -0.65742709038E+02  0.10875869225E+03 -0.29513569959E+02  0.13046688370E+03  0.00000000000E+00 0. -1.
        -14    1    6    6    0    0 -0.16296570132E+02  0.43453096274E+02 -0.70464465444E+02  0.84374111339E+02  0.00000000000E+00 0.  1.
</event>
<event>
12    1  0.8493057E-002  0.2497381E+03  0.7818608E-02  0.1113607E+00
         21   -1    0    0  503  502  0.00000000000E+00  0.00000000000E+00  0.39838099259E+03  0.39838099259E+03  0.00000000000E+00 0. -1.
         21   -1    0    0  501  503 -0.00000000000E+00 -0.00000000000E+00 -0.19368518974E+03  0.19368518974E+03  0.00000000000E+00 0. -1.
          6    2    1    2  501    0 -0.22351892137E+02  0.17893666174E+03 -0.28062456146E+02  0.25130978946E+03  0.17277491958E+03 0.  0.
         24    2    3    3    0    0 -0.25746473436E+02  0.12271951505E+03  0.48333322870E+02  0.15628192083E+03  0.79780752132E+02 0.  0.
         -6    2    1    2    0  502  0.22351892137E+02 -0.17893666174E+03  0.23275825899E+03  0.34075639287E+03  0.17152427280E+03 0.  0.
        -24    2    5    5    0    0  0.51207199461E+02 -0.18899416102E+03  0.17042174087E+03  0.27117397021E+03  0.78426922567E+02 0.  0.
          5    1    3    3  501    0  0.33945812992E+01  0.56217146688E+02 -0.76395779016E+02  0.95027868625E+02  0.47000000000E+01 0. -1.
        -13    1    4    4    0    0 -0.36224924423E+02  0.13514274919E+02  0.16610036289E+02  0.42080566555E+02  0.00000000000E+00 0.  1.
         14    1    4    4    0    0  0.10478450987E+02  0.10920524013E+03  0.31723286581E+02  0.11420135428E+03  0.00000000000E+00 0. -1.
         -5    1    5    5    0  502 -0.28855307324E+02  0.10057499275E+02  0.62336518122E+02  0.69582422665E+02  0.47000000000E+01 0.  1.
         13    1    6    6    0    0  0.32726869700E+02 -0.31422993261E+02  0.11913229167E+02  0.46908181963E+02  0.00000000000E+00 0. -1.
        -14    1    6    6    0    0  0.18480329761E+02 -0.15757116775E+03  0.15850851170E+03  0.22426578825E+03  0.00000000000E+00 0.  1.
</event>
<event>
12    1  0.8493057E-002  0.2045887E+03  0.7818608E-02  0.1146132E+00
         21   -1    0    0  503  502  0.00000000000E+00  0.00000000000E+00  0.43675279344E+03  0.43675279344E+03  0.00000000000E+00 0.  1.
         21   -1    0    0  501  503 -0.00000000000E+00 -0.00000000000E+00 -0.20151265632E+03  0.20151265632E+03  0.00000000000E+00 0.  1.
          6    2    1    2  501    0 -0.54656800916E+02 -0.97354234515E+02 -0.11386357928E+03  0.23413985199E+03  0.17143903504E+03 0.  0.
         24    2    3    3    0    0 -0.70388969749E+02 -0.14624901700E+02 -0.15386897213E+02  0.10448110544E+03  0.74236446414E+02 0.  0.
         -6    2    1    2    0  502  0.54656800916E+02  0.97354234515E+02  0.34910371640E+03  0.40412559777E+03  0.17023184516E+03 0.  0.
        -24    2    5    5    0    0  0.74717383386E+02  0.10685523303E+03  0.16767786323E+03  0.22128652607E+03  0.62057494298E+02 0.  0.
          5    1    3    3  501    0  0.15732168833E+02 -0.82729332815E+02 -0.98476682069E+02  0.12965874655E+03  0.47000000000E+01 0. -1.
        -13    1    4    4    0    0  0.15289337529E+02  0.10302069190E+01 -0.74048087123E+01  0.17019293770E+02  0.00000000000E+00 0.  1.
         14    1    4    4    0    0 -0.85678307278E+02 -0.15655108619E+02 -0.79820885007E+01  0.87461811671E+02  0.00000000000E+00 0. -1.
         -5    1    5    5    0  502 -0.20060582470E+02 -0.95009985109E+01  0.18142585317E+03  0.18283907170E+03  0.47000000000E+01 0.  1.
         11    1    6    6    0    0  0.51027957737E+02  0.26558793093E+02  0.46333661153E+02  0.73864945117E+02  0.00000000000E+00 0. -1.
        -12    1    6    6    0    0  0.23689425649E+02  0.80296439934E+02  0.12134420207E+03  0.14742158095E+03  0.00000000000E+00 0.  1.
</event>
<event>
12    1  0.8493057E-002  0.2480684E+03  0.7818608E-02  0.1114877E+00
         21   -1    0    0  501  502  0.00000000000E+00  0.00000000000E+00  0.26010138662E+03  0.26010138662E+03  0.00000000000E+00 0.  1.
         21   -1    0    0  502  503 -0.00000000000E+00 -0.00000000000E+00 -0.30666292122E+03  0.30666292122E+03  0.00000000000E+00 0.  1.
         -6    2    1    2    0  503 -0.10736305564E+03 -0.14183741943E+03 -0.16078151782E+03  0.29561567893E+03  0.17289665668E+03 0.  0.
        -24    2    3    3    0    0  0.63962855732E+01 -0.89221553648E+01 -0.40044254508E+02  0.82995755389E+02  0.71862617320E+02 0.  0.
          6    2    1    2  501    0  0.10736305564E+03  0.14183741943E+03  0.11421998322E+03  0.27114862890E+03  0.16979603978E+03 0.  0.
         24    2    5    5    0    0  0.11397411089E+03  0.15973062196E+03  0.12174537527E+03  0.25011070425E+03  0.96070070437E+02 0.  0.
          5    1    5    5  501    0 -0.66110552527E+01 -0.17893202529E+02 -0.75253920533E+01  0.21037924657E+02  0.47000000000E+01 0. -1.
        -11    1    6    6    0    0  0.58178701476E+02  0.10887002367E+03  0.22599176859E+02  0.12549169755E+03  0.00000000000E+00 0.  1.
         12    1    6    6    0    0  0.55795409418E+02  0.50860598288E+02  0.99146198416E+02  0.12461900670E+03  0.00000000000E+00 0. -1.
         -5    1    3    3    0  503 -0.11375934121E+03 -0.13291526406E+03 -0.12073726331E+03  0.21261992354E+03  0.47000000000E+01 0.  1.
         11    1    4    4    0    0 -0.67165446209E+01  0.16742291277E+02  0.13267222074E+02  0.22392754865E+02  0.00000000000E+00 0. -1.
        -12    1    4    4    0    0  0.13112830194E+02 -0.25664446642E+02 -0.53311476583E+02  0.60603000524E+02  0.00000000000E+00 0.  1.
</event>
<event>
12    1  0.8493057E-002  0.1743921E+03  0.7818608E-02  0.1173518E+00
         21   -1    0    0  501  502  0.00000000000E+00  0.00000000000E+00  0.18815124077E+04  0.18815124077E+04  0.00000000000E+00 0.  1.
         21   -1    0    0  502  503 -0.00000000000E+00 -0.00000000000E+00 -0.16193781637E+02  0.16193781637E+02  0.00000000000E+00 0.  1.
         -6    2    1    2    0  503 -0.19138691328E+01  0.33588317030E+02  0.10066842880E+04  0.10216779671E+04  0.17111626133E+03 0.  0.
        -24    2    3    3    0    0  0.86766968992E+01 -0.20973100237E+02  0.25854758980E+03  0.27146485239E+03  0.79568548369E+02 0.  0.
          6    2    1    2  501    0  0.19138691328E+01 -0.33588317030E+02  0.85863433809E+03  0.87602822223E+03  0.17041326725E+03 0.  0.
         24    2    5    5    0    0  0.67472211389E+02 -0.13929900503E+02  0.51542216073E+03  0.52602673899E+03  0.79357324327E+02 0.  0.
          5    1    5    5  501    0 -0.65558342256E+02 -0.19658416527E+02  0.34321217736E+03  0.35000148323E+03  0.47000000000E+01 0. -1.
        -13    1    6    6    0    0  0.32493138628E+02  0.20033757184E+01  0.54341875382E+02  0.63347115106E+02  0.00000000000E+00 0.  1.
         14    1    6    6    0    0  0.34979072761E+02 -0.15933276221E+02  0.46108028535E+03  0.46267962389E+03  0.00000000000E+00 0. -1.
         -5    1    3    3    0  503 -0.10590566032E+02  0.54561417268E+02  0.74813669820E+03  0.75021311474E+03  0.47000000000E+01 0.  1.
         11    1    4    4    0    0  0.13872496585E+02  0.28151993199E+02  0.73138835573E+02  0.79588128208E+02  0.00000000000E+00 0. -1.
        -12    1    4    4    0    0 -0.51957996859E+01 -0.49125093436E+02  0.18540875423E+03  0.19187672419E+03  0.00000000000E+00 0.  1.
</event>
<event>
12    1  0.8493057E-002  0.1800935E+03  0.7818608E-02  0.1167850E+00
         21   -1    0    0  503  502  0.00000000000E+00  0.00000000000E+00  0.18359697217E+04  0.18359697217E+04  0.00000000000E+00 0.  1.
         21   -1    0    0  501  503 -0.00000000000E+00 -0.00000000000E+00 -0.53403275788E+02  0.53403275788E+02  0.00000000000E+00 0.  1.
          6    2    1    2  501    0 -0.46665790054E+02  0.20661291535E+02  0.11741929178E+03  0.21451518037E+03  0.17211881826E+03 0.  0.
         24    2    3    3    0    0 -0.65527649119E+02  0.66858854828E+02  0.10652432765E+03  0.16322410098E+03  0.80812718633E+02 0.  0.
         -6    2    1    2    0  502  0.46665790054E+02 -0.20661291535E+02  0.16651471542E+04  0.16748578171E+04  0.17271096581E+03 0.  0.
        -24    2    5    5    0    0 -0.36105504487E+02 -0.37324116419E+02  0.85334280484E+03  0.85866107094E+03  0.80051202749E+02 0.  0.
          5    1    3    3  501    0  0.18861859065E+02 -0.46197563292E+02  0.10894964135E+02  0.51291079391E+02  0.47000000000E+01 0. -1.
        -13    1    4    4    0    0 -0.35201315376E+02  0.62178701844E+02  0.24316272443E+02  0.75475854899E+02  0.00000000000E+00 0.  1.
         14    1    4    4    0    0 -0.30326333743E+02  0.46801529832E+01  0.82208055203E+02  0.87748246082E+02  0.00000000000E+00 0. -1.
         -5    1    5    5    0  502  0.82771294540E+02  0.16662824883E+02  0.81180434932E+03  0.81619674620E+03  0.47000000000E+01 0.  1.
         11    1    6    6    0    0 -0.46931219893E+02  0.68054480871E+01  0.33655552611E+03  0.33988009015E+03  0.00000000000E+00 0. -1.
        -12    1    6    6    0    0  0.10825715407E+02 -0.44129564506E+02  0.51678727873E+03  0.51878098080E+03  0.00000000000E+00 0.  1.
</event>
<event>
12    1  0.8493057E-002  0.1965390E+03  0.7818608E-02  0.1153169E+00
         21   -1    0    0  503  502  0.00000000000E+00  0.00000000000E+00  0.14501780540E+03  0.14501780540E+03  0.00000000000E+00 0.  1.
         21   -1    0    0  501  503 -0.00000000000E+00 -0.00000000000E+00 -0.69460029439E+03  0.69460029439E+03  0.00000000000E+00 0.  1.
          6    2    1    2  501    0  0.94814574872E+02 -0.79567982020E+01 -0.60497315810E+03  0.63542280967E+03  0.16945946646E+03 0.  0.
         24    2    3    3    0    0  0.84746071595E+02  0.43474345404E+02 -0.52337485470E+03  0.53833053187E+03  0.82502167507E+02 0.  0.
         -6    2    1    2    0  502 -0.94814574872E+02  0.79567982020E+01  0.55390669113E+02  0.20419529012E+03  0.17197231183E+03 0.  0.
        -24    2    5    5    0    0 -0.27449693702E+02 -0.38721891528E+02 -0.24031636818E+02  0.89972175252E+02  0.72557578403E+02 0.  0.
          5    1    3    3  501    0  0.10068503277E+02 -0.51431143606E+02 -0.81598303399E+02  0.97092277800E+02  0.47000000000E+01 0. -1.
        -13    1    4    4    0    0  0.30746497500E+02 -0.11205159054E+02 -0.30650886235E+03  0.30825084817E+03  0.00000000000E+00 0.  1.
         14    1    4    4    0    0  0.53999574095E+02  0.54679504458E+02 -0.21686599235E+03  0.23007968370E+03  0.00000000000E+00 0. -1.
         -5    1    5    5    0  502 -0.67364881170E+02  0.46678689730E+02  0.79422305931E+02  0.11422311486E+03  0.47000000000E+01 0.  1.
         11    1    6    6    0    0 -0.30578513417E+02  0.13421321734E+02 -0.16320736700E+02  0.37169124368E+02  0.00000000000E+00 0. -1.
        -12    1    6    6    0    0  0.31288197143E+01 -0.52143213262E+02 -0.77109001181E+01  0.52803050884E+02  0.00000000000E+00 0.  1.
</event>
<event>
12    1  0.8493057E-002  0.1939200E+03  0.7818608E-02  0.1154992E+00
         21   -1    0    0  501  502  0.00000000000E+00  0.00000000000E+00  0.23627673079E+04  0.23627673079E+04  0.00000000000E+00 0. -1.
         21   -1    0    0  502  503 -0.00000000000E+00 -0.00000000000E+00 -0.44633294751E+02  0.44633294751E+02  0.00000000000E+00 0. -1.
         -6    2    1    2    0  503  0.75953090759E+02 -0.44200415432E+02  0.19351455656E+03  0.27395773485E+03  0.17286528905E+03 0.  0.
        -24    2    3    3    0    0  0.70462128410E+02  0.28208930748E+02  0.16162018247E+03  0.19450583002E+03  0.77141293847E+02 0.  0.
          6    2    1    2  501    0 -0.75953090759E+02  0.44200415432E+02  0.21246194566E+04  0.21334428679E+04  0.17276598674E+03 0.  0.
         24    2    5    5    0    0  0.20543885430E+02  0.54117726848E+02  0.10953595978E+04  0.10996111763E+04  0.77338935469E+02 0.  0.
          5    1    5    5  501    0 -0.96496976189E+02 -0.99173114163E+01  0.10292598588E+04  0.10338316916E+04  0.47000000000E+01 0. -1.
        -13    1    6    6    0    0  0.10302091143E+02 -0.14928537439E+02  0.88760754513E+02  0.90595065284E+02  0.00000000000E+00 0.  1.
         14    1    6    6    0    0  0.10241794287E+02  0.69046264288E+02  0.10065988433E+04  0.10090161110E+04  0.00000000000E+00 0. -1.
         -5    1    3    3    0  503  0.54909623497E+01 -0.72409346180E+02  0.31894374098E+02  0.79451904829E+02  0.47000000000E+01 0.  1.
         13    1    4    4    0    0  0.45046339491E+02  0.41611366220E+02  0.49638114961E+02  0.78896267067E+02  0.00000000000E+00 0. -1.
        -14    1    4    4    0    0  0.25415788919E+02 -0.13402435472E+02  0.11198206750E+03  0.11560956295E+03  0.00000000000E+00 0.  1.
</event>
<event>
12    1  0.8493057E-002  0.1864358E+03  0.7818608E-02  0.1164866E+00
         21   -1    0    0  501  502  0.00000000000E+00  0.00000000000E+00  0.11447691296E+03  0.11447691296E+03  0.00000000000E+00 0.  1.
         21   -1    0    0  502  503 -0.00000000000E+00 -0.00000000000E+00 -0.17032566401E+04  0.17032566401E+04  0.00000000000E+00 0.  1.
         -6    2    1    2    0  503  0.15562109704E+02 -0.30676360284E+02 -0.16195301314E+04  0.16287788150E+04  0.16988043839E+03 0.  0.
        -24    2    3    3    0    0  0.72640622927E+02 -0.25988601147E+02 -0.86447138583E+03  0.87153662718E+03  0.79455950728E+02 0.  0.
          6    2    1    2  501    0 -0.15562109704E+02  0.30676360284E+02  0.30750404340E+02  0.18895473797E+03  0.18323506023E+03 0.  0.
         24    2    5    5    0    0  0.36279534164E+01 -0.36600176775E+02  0.68458414416E+02  0.10934082597E+03  0.76916361929E+02 0.  0.
          5    1    5    5  501    0 -0.19190063121E+02  0.67276537059E+02 -0.37708010076E+02  0.79613912008E+02  0.47000000000E+01 0. -1.
        -11    1    6    6    0    0  0.27791873398E+02 -0.18481834307E+02  0.71578928771E+02  0.78977904951E+02  0.00000000000E+00 0.  1.
         12    1    6    6    0    0 -0.24163919982E+02 -0.18118342468E+02 -0.31205143556E+01  0.30362921014E+02  0.00000000000E+00 0. -1.
         -5    1    3    3    0  503 -0.57078513222E+02 -0.46877591367E+01 -0.75505874561E+03  0.75724218787E+03  0.47000000000E+01 0.  1.
         11    1    4    4    0    0 -0.12873063688E+01  0.97909525008E+01 -0.14134128089E+02  0.17242200712E+02  0.00000000000E+00 0. -1.
        -12    1    4    4    0    0  0.73927929296E+02 -0.35779553648E+02 -0.85033725774E+03  0.85429442647E+03  0.00000000000E+00 0.  1.
</event>
<event>
12    1  0.8493057E-002  0.1909625E+03  0.7818608E-02  0.1158207E+00
         21   -1    0    0  501  502  0.00000000000E+00  0.00000000000E+00  0.92807670667E+03  0.92807670667E+03  0.00000000000E+00 0. -1.
         21   -1    0    0  502  503 -0.00000000000E+00 -0.00000000000E+00 -0.20583676557E+03  0.20583676557E+03  0.00000000000E+00 0. -1.
         -6    2    1    2    0  503 -0.77282856908E+02 -0.18484105574E+02 -0.15019145397E+03  0.24082713392E+03  0.17066321647E+03 0.  0.
        -24    2    3    3    0    0 -0.19940030298E+02  0.36333343027E+02 -0.27517610885E+02  0.94662452096E+02  0.80535981425E+02 0.  0.
          6    2    1    2  501    0  0.77282856908E+02  0.18484105574E+02  0.87243139508E+03  0.89308633832E+03  0.17364436775E+03 0.  0.
         24    2    5    5    0    0  0.39186813079E+02  0.61014701526E+02  0.33133689787E+03  0.34896732096E+03  0.82071012463E+02 0.  0.
          5    1    5    5  501    0  0.38096043829E+02 -0.42530595952E+02  0.54109449721E+03  0.54411901736E+03  0.47000000000E+01 0. -1.
        -11    1    6    6    0    0 -0.18870122736E+02  0.45082827692E+02  0.16416296267E+03  0.17128345279E+03  0.00000000000E+00 0.  1.
         12    1    6    6    0    0  0.58056935816E+02  0.15931873835E+02  0.16717393520E+03  0.17768386817E+03  0.00000000000E+00 0. -1.
         -5    1    3    3    0  503 -0.57342826610E+02 -0.54817448601E+02 -0.12267384309E+03  0.14616468182E+03  0.47000000000E+01 0.  1.
         13    1    4    4    0    0 -0.36866075799E+02  0.34136426204E+02 -0.46973066264E+02  0.68781335354E+02  0.00000000000E+00 0. -1.
        -14    1    4    4    0    0  0.16926045501E+02  0.21969168230E+01  0.19455455378E+02  0.25881116742E+02  0.00000000000E+00 0.  1.
</event>
<event>
12    1  0.8493057E-002  0.1730856E+03  0.7818608E-02  0.1174752E+00
         21   -1    0    0  503  502  0.00000000000E+00  0.00000000000E+00  0.65813569347E+03  0.65813569347E+03  0.00000000000E+00 0.  1.
         21   -1    0    0  501  503 -0.00000000000E+00 -0.00000000000E+00 -0.54506889367E+02  0.54506889367E+02  0.00000000000E+00 0.  1.
          6    2    1    2  501    0 -0.16463340315E+02  0.12002362534E-01  0.15667768561E+03  0.23346633182E+03  0.17230086827E+03 0.  0.
         24    2    3    3    0    0  0.39752496010E+02 -0.42275474265E+02  0.93291239611E+02  0.13865925154E+03  0.84591110571E+02 0.  0.
         -6    2    1    2    0  502  0.16463340315E+02 -0.12002362534E-01  0.44695111849E+03  0.47917625102E+03  0.17196957726E+03 0.  0.
        -24    2    5    5    0    0  0.64363727681E+02 -0.34476377521E+02  0.22716673347E+03  0.25155923460E+03  0.79661870861E+02 0.  0.
          5    1    3    3  501    0 -0.56215836325E+02  0.42287476627E+02  0.63386446002E+02  0.94807080273E+02  0.47000000000E+01 0. -1.
        -13    1    4    4    0    0 -0.26291820934E+01  0.20199492989E+02  0.44033591665E+02  0.48516897164E+02  0.00000000000E+00 0.  1.
         14    1    4    4    0    0  0.42381678103E+02 -0.62474967254E+02  0.49257647946E+02  0.90142354381E+02  0.00000000000E+00 0. -1.
         -5    1    5    5    0  502 -0.47900387366E+02  0.34464375158E+02  0.21978438503E+03  0.22761701643E+03  0.47000000000E+01 0.  1.
         11    1    6    6    0    0 -0.19022608503E+02 -0.63924446755E+01  0.43149519698E+02  0.47587855944E+02  0.00000000000E+00 0. -1.
        -12    1    6    6    0    0  0.83386336184E+02 -0.28083932845E+02  0.18401721377E+03  0.20397137865E+03  0.00000000000E+00 0.  1.
</event>
<event>
12    1  0.8493057E-002  0.2661099E+03  0.7818608E-02  0.1103674E+00
         21   -1    0    0  501  502  0.00000000000E+00  0.00000000000E+00  0.88199943582E+03  0.88199943582E+03  0.00000000000E+00 0. -1.
         21   -1    0    0  502  503 -0.00000000000E+00 -0.00000000000E+00 -0.13602546273E+03  0.13602546273E+03  0.00000000000E+00 0.  1.
         -6    2    1    2    0  503  0.13324212553E+01  0.20269036141E+03  0.46688987534E+02  0.27017466964E+03  0.17242196091E+03 0.  0.
        -24    2    3    3    0    0  0.47753436355E+02  0.19473892135E+03  0.45504301312E+02  0.22282881952E+03  0.85897632106E+02 0.  0.
          6    2    1    2  501    0 -0.13324212553E+01 -0.20269036141E+03  0.69928498555E+03  0.74785022891E+03  0.17086636857E+03 0.  0.
         24    2    5    5    0    0 -0.67169081098E+02 -0.13391448591E+03  0.46929054530E+03  0.49888412805E+03  0.78784404052E+02 0.  0.
          5    1    5    5  501    0  0.65836659842E+02 -0.68775875494E+02  0.22999444025E+03  0.24896610085E+03  0.47000000000E+01 0. -1.
        -11    1    6    6    0    0 -0.62485297990E+02 -0.13505211070E+03  0.47086057154E+03  0.49381490753E+03  0.00000000000E+00 0.  1.
         12    1    6    6    0    0 -0.46837831074E+01  0.11376247836E+01 -0.15700262368E+01  0.50692205248E+01  0.00000000000E+00 0. -1.
         -5    1    3    3    0  503 -0.46421015100E+02  0.79514400608E+01  0.11846862228E+01  0.47345850118E+02  0.47000000000E+01 0.  1.
         13    1    4    4    0    0  0.99077326174E+01  0.16559282721E+01 -0.14036153676E+02  0.17260326592E+02  0.00000000000E+00 0. -1.
        -14    1    4    4    0    0  0.37845703738E+02  0.19308299307E+03  0.59540454987E+02  0.20556849293E+03  0.00000000000E+00 0.  1.
</event>
<event>
12    1  0.8493057E-002  0.2351158E+03  0.7818608E-02  0.1123197E+00
         21   -1    0    0  501  502  0.00000000000E+00  0.00000000000E+00  0.32225042392E+03  0.32225042392E+03  0.00000000000E+00 0.  1.
         21   -1    0    0  502  503 -0.00000000000E+00 -0.00000000000E+00 -0.37868788728E+03  0.37868788728E+03  0.00000000000E+00 0. -1.
         -6    2    1    2    0  503 -0.13521967733E+03 -0.84649309083E+02 -0.28769374445E+03  0.37115212945E+03  0.17186141491E+03 0.  0.
        -24    2    3    3    0    0 -0.69694862412E+02 -0.12249309315E+03 -0.17805718755E+03  0.23785577552E+03  0.70774827404E+02 0.  0.
          6    2    1    2  501    0  0.13521967733E+03  0.84649309083E+02  0.23125628109E+03  0.32978618176E+03  0.17271245314E+03 0.  0.
         24    2    5    5    0    0  0.64712119453E+01 -0.21318640318E+01  0.84690512292E+02  0.11621943826E+03  0.79297247924E+02 0.  0.
          5    1    5    5  501    0  0.12874846538E+03  0.86781173115E+02  0.14656576880E+03  0.21356674350E+03  0.47000000000E+01 0. -1.
        -13    1    6    6    0    0  0.34025270480E+02  0.68748499753E+01  0.79529132028E+02  0.86774797231E+02  0.00000000000E+00 0.  1.
         14    1    6    6    0    0 -0.27554058534E+02 -0.90067140071E+01  0.51613802642E+01  0.29444641026E+02  0.00000000000E+00 0. -1.
         -5    1    3    3    0  503 -0.65524814913E+02  0.37843784066E+02 -0.10963655690E+03  0.13329635393E+03  0.47000000000E+01 0.  1.
         11    1    4    4    0    0  0.13908127455E+02 -0.24524420799E+02 -0.41239757024E+02  0.49955988472E+02  0.00000000000E+00 0. -1.
        -12    1    4    4    0    0 -0.83602989867E+02 -0.97968672350E+02 -0.13681743052E+03  0.18789978704E+03  0.00000000000E+00 0.  1.
</event>
<event>
12    1  0.8493057E-002  0.2066897E+03  0.7818608E-02  0.1145628E+00
         21   -1    0    0  501  502  0.00000000000E+00  0.00000000000E+00  0.24195151353E+03  0.24195151353E+03  0.00000000000E+00 0.  1.
         21   -1    0    0  502  503 -0.00000000000E+00 -0.00000000000E+00 -0.21433586851E+03  0.21433586851E+03  0.00000000000E+00 0. -1.
         -6    2    1    2    0  503  0.23266319623E+02  0.10110347697E+03 -0.89248249599E+02  0.21884725845E+03  0.17077950050E+03 0.  0.
        -24    2    3    3    0    0  0.63228067026E+02  0.13918546854E+02 -0.61815883444E+02  0.11898346117E+03  0.78385879975E+02 0.  0.
          6    2    1    2  501    0 -0.23266319623E+02 -0.10110347697E+03  0.11686389462E+03  0.23744012360E+03  0.17876634959E+03 0.  0.
         24    2    5    5    0    0 -0.31500130142E+02 -0.12438647548E+03  0.13738650186E+03  0.20498768049E+03  0.81735211381E+02 0.  0.
          5    1    5    5  501    0  0.82338105194E+01  0.23282998513E+02 -0.20522607240E+02  0.32452443103E+02  0.47000000000E+01 0. -1.
        -13    1    6    6    0    0 -0.43338179387E+02 -0.23249893819E+02  0.33417007129E+02  0.59459664652E+02  0.00000000000E+00 0.  1.
         14    1    6    6    0    0  0.11838049245E+02 -0.10113658166E+03  0.10396949473E+03  0.14552801584E+03  0.00000000000E+00 0. -1.
         -5    1    3    3    0  503 -0.39961747404E+02  0.87184930111E+02 -0.27432366156E+02  0.99863797279E+02  0.47000000000E+01 0.  1.
         11    1    4    4    0    0  0.12773485767E+01 -0.22654818925E+02 -0.35992881681E+02  0.42548325133E+02  0.00000000000E+00 0. -1.
        -12    1    4    4    0    0  0.61950718450E+02  0.36573365779E+02 -0.25823001762E+02  0.76435136036E+02  0.00000000000E+00 0.  1.
</event>
<event>
12    1  0.8493057E-002  0.3068981E+03  0.7818608E-02  0.1082378E+00
         21   -1    0    0  501  502  0.00000000000E+00  0.00000000000E+00  0.55743536372E+03  0.55743536372E+03  0.00000000000E+00 0.  1.
         21   -1    0    0  502  503 -0.00000000000E+00 -0.00000000000E+00 -0.18718099275E+03  0.18718099275E+03  0.00000000000E+00 0. -1.
         -6    2    1    2    0  503 -0.28577553029E+02  0.25229512631E+03  0.62745905852E+02  0.31324666752E+03  0.17238595858E+03 0.  0.
        -24    2    3    3    0    0 -0.78621016540E+02  0.12188694201E+03  0.49448880103E+02  0.17285598526E+03  0.79976928057E+02 0.  0.
          6    2    1    2  501    0  0.28577553029E+02 -0.25229512631E+03  0.30750846512E+03  0.43136968894E+03  0.16446533106E+03 0.  0.
         24    2    5    5    0    0  0.24307365519E+02 -0.26411171511E+03  0.25327492308E+03  0.37550168957E+03  0.80668991135E+02 0.  0.
          5    1    5    5  501    0  0.42701875107E+01  0.11816588796E+02  0.54233542038E+02  0.55867999374E+02  0.47000000000E+01 0. -1.
        -11    1    6    6    0    0  0.31609592102E+02 -0.10881157494E+03  0.15341171894E+03  0.19072042539E+03  0.00000000000E+00 0.  1.
         12    1    6    6    0    0 -0.73022265830E+01 -0.15530014017E+03  0.99863204145E+02  0.18478126418E+03  0.00000000000E+00 0. -1.
         -5    1    3    3    0  503  0.50043463511E+02  0.13040818430E+03  0.13297025750E+02  0.14039068226E+03  0.47000000000E+01 0.  1.
         13    1    4    4    0    0 -0.20607867007E+02  0.86190579173E+02 -0.10854358349E+00  0.88620042329E+02  0.00000000000E+00 0. -1.
        -14    1    4    4    0    0 -0.58013149533E+02  0.35696362838E+02  0.49557423686E+02  0.84235942929E+02  0.00000000000E+00 0.  1.
</event>
<event>
12    1  0.8493057E-002  0.2191327E+03  0.7818608E-02  0.1134965E+00
         21   -1    0    0  501  502  0.00000000000E+00  0.00000000000E+00  0.29656608211E+03  0.29656608211E+03  0.00000000000E+00 0. -1.
         21   -1    0    0  502  503 -0.00000000000E+00 -0.00000000000E+00 -0.43298327125E+03  0.43298327125E+03  0.00000000000E+00 0. -1.
         -6    2    1    2    0  503 -0.12206653695E+03  0.51018861525E+02 -0.35759553860E+03  0.41819909346E+03  0.17179274977E+03 0.  0.
        -24    2    3    3    0    0 -0.11862963383E+02 -0.31365286253E+01 -0.78255271850E+02  0.11302584998E+03  0.80624980498E+02 0.  0.
          6    2    1    2  501    0  0.12206653695E+03 -0.51018861525E+02  0.22117834946E+03  0.31135025990E+03  0.17468817476E+03 0.  0.
         24    2    5    5    0    0  0.28259706500E+02  0.36509160427E+02  0.94871770509E+02  0.13124940496E+03  0.78065508751E+02 0.  0.
          5    1    5    5  501    0  0.93806830445E+02 -0.87528021952E+02  0.12630657895E+03  0.18010085494E+03  0.47000000000E+01 0. -1.
        -11    1    6    6    0    0  0.20007828032E+02  0.14123099638E+02  0.10313315035E+03  0.10600104635E+03  0.00000000000E+00 0.  1.
         12    1    6    6    0    0  0.82518784686E+01  0.22386060789E+02 -0.82613798383E+01  0.25248358615E+02  0.00000000000E+00 0. -1.
         -5    1    3    3    0  503 -0.11020357356E+03  0.54155390150E+02 -0.27934026675E+03  0.30517324348E+03  0.47000000000E+01 0.  1.
         11    1    4    4    0    0 -0.85665049026E+01  0.37919136906E+02 -0.48790185765E+02  0.62383717242E+02  0.00000000000E+00 0. -1.
        -12    1    4    4    0    0 -0.32964584802E+01 -0.41055665531E+02 -0.29465086085E+02  0.50642132743E+02  0.00000000000E+00 0.  1.
</event>
<event>
12    1  0.8493057E-002  0.2216115E+03  0.7818608E-02  0.1132946E+00
         21   -1    0    0  501  502  0.00000000000E+00  0.00000000000E+00  0.84214927294E+03  0.84214927294E+03  0.00000000000E+00 0. -1.
         21   -1    0    0  502  503 -0.00000000000E+00 -0.00000000000E+00 -0.62794920861E+02  0.62794920861E+02  0.00000000000E+00 0.  1.
         -6    2    1    2    0  503 -0.40654627640E+02 -0.13352925098E+03  0.26285694888E+03  0.34291106551E+03  0.17032722524E+03 0.  0.
        -24    2    3    3    0    0 -0.61716512794E+02 -0.36067967661E+02  0.71443142688E+02  0.12703230334E+03  0.76962700139E+02 0.  0.
          6    2    1    2  501    0  0.40654627640E+02  0.13352925098E+03  0.51649740319E+03  0.56203312829E+03  0.17213021285E+03 0.  0.
         24    2    5    5    0    0  0.81998063506E+02  0.11379556301E+03  0.30682315444E+03  0.34736110235E+03  0.82741614364E+02 0.  0.
          5    1    5    5  501    0 -0.41343435867E+02  0.19733687975E+02  0.20967424876E+03  0.21467202594E+03  0.47000000000E+01 0. -1.
        -11    1    6    6    0    0 -0.44980510381E+01  0.39834800114E+02  0.37139434701E+02  0.54647793855E+02  0.00000000000E+00 0.  1.
         12    1    6    6    0    0  0.86496114544E+02  0.73960762892E+02  0.26968371973E+03  0.29271330849E+03  0.00000000000E+00 0. -1.
         -5    1    3    3    0  503  0.21061885154E+02 -0.97461283320E+02  0.19141380620E+03  0.21587876217E+03  0.47000000000E+01 0.  1.
         13    1    4    4    0    0 -0.17419283677E+02  0.22596738716E+02  0.34473645091E+02  0.44749036306E+02  0.00000000000E+00 0. -1.
        -14    1    4    4    0    0 -0.44297229117E+02 -0.58664706377E+02  0.36969497596E+02  0.82283267036E+02  0.00000000000E+00 0.  1.
</event>
<event>
12    1  0.8493057E-002  0.2098479E+03  0.7818608E-02  0.1141911E+00
         21   -1    0    0  503  502  0.00000000000E+00  0.00000000000E+00  0.33579636367E+03  0.33579636367E+03  0.00000000000E+00 0.  1.
         21   -1    0    0  501  503 -0.00000000000E+00 -0.00000000000E+00 -0.31195273211E+03  0.31195273211E+03  0.00000000000E+00 0.  1.
          6    2    1    2  501    0  0.10121573127E+03 -0.65378246657E+02 -0.23514632684E+03  0.31441451995E+03  0.17042228708E+03 0.  0.
         24    2    3    3    0    0 -0.47502290976E+01 -0.67395533170E+02 -0.12433089891E+03  0.16100329718E+03  0.76806033045E+02 0.  0.
         -6    2    1    2    0  502 -0.10121573127E+03  0.65378246657E+02  0.25898995841E+03  0.33333457584E+03  0.17180570858E+03 0.  0.
        -24    2    5    5    0    0 -0.14275812029E+02 -0.21771196128E+02  0.13297254829E+03  0.15710730046E+03  0.79518686278E+02 0.  0.
          5    1    3    3  501    0  0.10596596037E+03  0.20172865131E+01 -0.11081542793E+03  0.15341122277E+03  0.47000000000E+01 0. -1.
        -13    1    4    4    0    0  0.26820199893E+02 -0.45324537887E+02 -0.33696389724E+02  0.62522664190E+02  0.00000000000E+00 0.  1.
         14    1    4    4    0    0 -0.31570428991E+02 -0.22070995284E+02 -0.90634509182E+02  0.98480632990E+02  0.00000000000E+00 0. -1.
         -5    1    5    5    0  502 -0.86939919245E+02  0.87149442785E+02  0.12601741011E+03  0.17622727538E+03  0.47000000000E+01 0.  1.
         11    1    6    6    0    0 -0.25819681243E+02 -0.44078453500E+02  0.54433350398E+02  0.74649552162E+02  0.00000000000E+00 0. -1.
        -12    1    6    6    0    0  0.11543869214E+02  0.22307257372E+02  0.78539197895E+02  0.82457748295E+02  0.00000000000E+00 0.  1.
</event>
<event>
12    1  0.8493057E-002  0.1817737E+03  0.7818608E-02  0.1166801E+00
         21   -1    0    0  503  502  0.00000000000E+00  0.00000000000E+00  0.21087426177E+03  0.21087426177E+03  0.00000000000E+00 0.  1.
         21   -1    0    0  501  503 -0.00000000000E+00 -0.00000000000E+00 -0.40320051125E+03  0.40320051125E+03  0.00000000000E+00 0.  1.
          6    2    1    2  501    0  0.41366219281E+02 -0.27225914425E+02 -0.33775150890E+03  0.38355935353E+03  0.17489791708E+03 0.  0.
         24    2    3    3    0    0  0.14627109337E+02  0.47212367670E+01 -0.82445017297E+02  0.12483344620E+03  0.92466026236E+02 0.  0.
         -6    2    1    2    0  502 -0.41366219281E+02  0.27225914425E+02  0.14542525942E+03  0.23051541949E+03  0.17186168285E+03 0.  0.
        -24    2    5    5    0    0  0.23404460110E+02  0.39370292582E+02  0.29834092023E+02  0.97375888137E+02  0.80586610877E+02 0.  0.
          5    1    3    3  501    0  0.26739109944E+02 -0.31947151192E+02 -0.25530649160E+03  0.25872590733E+03  0.47000000000E+01 0. -1.
        -13    1    4    4    0    0 -0.31718959320E+02  0.26390732547E+02 -0.26585716760E+02  0.49085267447E+02  0.00000000000E+00 0.  1.
         14    1    4    4    0    0  0.46346068656E+02 -0.21669495780E+02 -0.55859300537E+02  0.75748178749E+02  0.00000000000E+00 0. -1.
         -5    1    5    5    0  502 -0.64770679390E+02 -0.12144378157E+02  0.11559116739E+03  0.13313953135E+03  0.47000000000E+01 0.  1.
         13    1    6    6    0    0 -0.12891083338E+02  0.11518085636E+02 -0.22168942829E+02  0.28112423455E+02  0.00000000000E+00 0. -1.
        -14    1    6    6    0    0  0.36295543448E+02  0.27852206946E+02  0.52003034852E+02  0.69263464682E+02  0.00000000000E+00 0.  1.
</event>
<event>
12    1  0.8493057E-002  0.1794987E+03  0.7818608E-02  0.1168307E+00
         21   -1    0    0  501  502  0.00000000000E+00  0.00000000000E+00  0.13334603101E+04  0.13334603101E+04  0.00000000000E+00 0. -1.
         21   -1    0    0  502  503 -0.00000000000E+00 -0.00000000000E+00 -0.26266752591E+03  0.26266752591E+03  0.00000000000E+00 0. -1.
         -6    2    1    2    0  503  0.12940335866E+02 -0.51140485078E+02 -0.22510155729E+03  0.28786107120E+03  0.17149485039E+03 0.  0.
        -24    2    3    3    0    0 -0.12216384813E+02 -0.86901442941E+02 -0.21004205515E+03  0.24137897457E+03  0.80281028822E+02 0.  0.
          6    2    1    2  501    0 -0.12940335866E+02  0.51140485078E+02  0.12958943415E+04  0.13082667648E+04  0.17157209010E+03 0.  0.
         24    2    5    5    0    0  0.17428320372E+02 -0.21950274260E+02  0.93932779961E+03  0.94299111114E+03  0.78166230976E+02 0.  0.
          5    1    5    5  501    0 -0.30368656238E+02  0.73090759338E+02  0.35656654188E+03  0.36527565368E+03  0.47000000000E+01 0. -1.
        -11    1    6    6    0    0  0.24195848845E+02 -0.44731037398E+02  0.41181072953E+03  0.41493900969E+03  0.00000000000E+00 0.  1.
         12    1    6    6    0    0 -0.67675284732E+01  0.22780763138E+02  0.52751707009E+03  0.52805210145E+03  0.00000000000E+00 0. -1.
         -5    1    3    3    0  503  0.25156720680E+02  0.35760957863E+02 -0.15059502142E+02  0.46482096633E+02  0.47000000000E+01 0.  1.
         13    1    4    4    0    0 -0.12463996887E+02 -0.10035711149E+03 -0.15774177658E+03  0.18737494262E+03  0.00000000000E+00 0. -1.
        -14    1    4    4    0    0  0.24761207390E+00  0.13455668546E+02 -0.52300278575E+02  0.54004031949E+02  0.00000000000E+00 0.  1.
</event>
<event>
12    1  0.8493057E-002  0.1924640E+03  0.7818608E-02  0.1159716E+00
         21   -1    0    0  503  502  0.00000000000E+00  0.00000000000E+00  0.18287387203E+02  0.18287387203E+02  0.00000000000E+00 0. -1.
         21   -1    0    0  501  503 -0.00000000000E+00 -0.00000000000E+00 -0.19860931113E+04  0.19860931113E+04  0.00000000000E+00 0. -1.
          6    2    1    2  501    0 -0.31010317535E+02  0.33997927447E+02 -0.12619738351E+04  0.12765658379E+04  0.18688199235E+03 0.  0.
         24    2    3    3    0    0 -0.95031220690E+02  0.33851582550E+02 -0.84965069553E+03  0.85927558051E+03  0.79191895436E+02 0.  0.
         -6    2    1    2    0  502  0.31010317535E+02 -0.33997927447E+02 -0.70583188899E+03  0.72781466063E+03  0.17145852516E+03 0.  0.
        -24    2    5    5    0    0 -0.20020072873E+02 -0.15439407475E+02 -0.17193821645E+03  0.19114617545E+03  0.79592282866E+02 0.  0.
          5    1    3    3  501    0  0.64020903154E+02  0.14634489748E+00 -0.41232313956E+03  0.41729025735E+03  0.47000000000E+01 0. -1.
        -11    1    4    4    0    0 -0.38671071508E+02 -0.25524694784E+02 -0.29570964240E+03  0.29931781508E+03  0.00000000000E+00 0.  1.
         12    1    4    4    0    0 -0.56360149182E+02  0.59376277334E+02 -0.55394105312E+03  0.55995776543E+03  0.00000000000E+00 0. -1.
         -5    1    5    5    0  502  0.51030390409E+02 -0.18558519973E+02 -0.53389367254E+03  0.53666848518E+03  0.47000000000E+01 0.  1.
         13    1    6    6    0    0 -0.46030366854E+02  0.10022431570E+02 -0.96075180939E+02  0.10700319715E+03  0.00000000000E+00 0. -1.
        -14    1    6    6    0    0  0.26010293981E+02 -0.25461839045E+02 -0.75863035508E+02  0.84142978299E+02  0.00000000000E+00 0.  1.
</event>
<event>
12    1  0.8493057E-002  0.1954340E+03  0.7818608E-02  0.1154232E+00
         21   -1    0    0  503  502  0.00000000000E+00  0.00000000000E+00  0.17462583761E+03  0.17462583761E+03  0.00000000000E+00 0.  1.
         21   -1    0    0  501  503 -0.00000000000E+00 -0.00000000000E+00 -0.31646740417E+03  0.31646740417E+03  0.00000000000E+00 0. -1.
          6    2    1    2  501    0  0.46404560729E+02  0.75945882874E+02 -0.20910662067E+03  0.28440741360E+03  0.17099952551E+03 0.  0.
         24    2    3    3    0    0  0.21252534806E+02  0.91028978746E+02 -0.22064857583E+03  0.25254158680E+03  0.79708931980E+02 0.  0.
         -6    2    1    2    0  502 -0.46404560729E+02 -0.75945882874E+02  0.67265054111E+02  0.20668582817E+03  0.17399219431E+03 0.  0.
        -24    2    5    5    0    0 -0.55973098397E+02  0.13016564606E+02  0.63105528584E+02  0.11699042346E+03  0.80012703641E+02 0.  0.
          5    1    3    3  501    0  0.25152025924E+02 -0.15083095872E+02  0.11541955164E+02  0.31865826808E+02  0.47000000000E+01 0. -1.
        -11    1    4    4    0    0 -0.15474246106E+02  0.21333464102E+02 -0.10960634272E+02  0.28543028690E+02  0.00000000000E+00 0.  1.
         12    1    4    4    0    0  0.36726780912E+02  0.69695514644E+02 -0.20968794156E+03  0.22399855811E+03  0.00000000000E+00 0. -1.
         -5    1    5    5    0  502  0.95685376680E+01 -0.88962447480E+02  0.41595255267E+01  0.89695404717E+02  0.47000000000E+01 0.  1.
         13    1    6    6    0    0  0.46570188062E+01  0.33852909396E+02  0.25782377319E+02  0.42806988669E+02  0.00000000000E+00 0. -1.
        -14    1    6    6    0    0 -0.60630117204E+02 -0.20836344789E+02  0.37323151265E+02  0.74183434786E+02  0.00000000000E+00 0.  1.
</event>
<event>
12    1  0.8493057E-002  0.1750139E+03  0.7818608E-02  0.1172885E+00
         21   -1    0    0  503  502  0.00000000000E+00  0.00000000000E+00  0.59173768310E+02  0.59173768310E+02  0.00000000000E+00 0.  1.
         21   -1    0    0  501  503 -0.00000000000E+00 -0.00000000000E+00 -0.55772832753E+03  0.55772832753E+03  0.00000000000E+00 0.  1.
          6    2    1    2  501    0  0.28954281120E+02 -0.17212982203E+02 -0.16500201477E+03  0.24053173545E+03  0.17174170643E+03 0.  0.
         24    2    3    3    0    0 -0.15870710838E+02  0.47783504617E+02 -0.94755945003E+02  0.13474693729E+03  0.81504019651E+02 0.  0.
         -6    2    1    2    0  502 -0.28954281120E+02  0.17212982203E+02 -0.33355254445E+03  0.37637036040E+03  0.17106347104E+03 0.  0.
        -24    2    5    5    0    0 -0.55240404581E+02  0.53746732026E+02 -0.30110636743E+03  0.32068805112E+03  0.78965613568E+02 0.  0.
          5    1    3    3  501    0  0.44824991958E+02 -0.64996486821E+02 -0.70246069769E+02  0.10578479816E+03  0.47000000000E+01 0. -1.
        -11    1    4    4    0    0  0.15966245474E+02  0.55232179339E+02 -0.36976705368E+02  0.68357818638E+02  0.00000000000E+00 0.  1.
         12    1    4    4    0    0 -0.31836956312E+02 -0.74486747220E+01 -0.57779239635E+02  0.66389118650E+02  0.00000000000E+00 0. -1.
         -5    1    5    5    0  502  0.26286123460E+02 -0.36533749823E+02 -0.32446177024E+02  0.55682309274E+02  0.47000000000E+01 0.  1.
         11    1    6    6    0    0 -0.52749418733E+00  0.46241941524E+02 -0.76495565039E+02  0.89387733368E+02  0.00000000000E+00 0. -1.
        -12    1    6    6    0    0 -0.54712910393E+02  0.75047905022E+01 -0.22461080239E+03  0.23130031776E+03  0.00000000000E+00 0.  1.
</event>
<event>
12    1  0.8493057E-002  0.1742532E+03  0.7818608E-02  0.1173611E+00
         21   -1    0    0  503  502  0.00000000000E+00  0.00000000000E+00  0.20207975228E+04  0.20207975228E+04  0.00000000000E+00 0. -1.
         21   -1    0    0  501  503 -0.00000000000E+00 -0.00000000000E+00 -0.15932615486E+02  0.15932615486E+02  0.00000000000E+00 0. -1.
          6    2    1    2  501    0  0.72904098837E+01  0.25557160788E+02  0.75510465485E+03  0.77494980502E+03  0.17221452314E+03 0.  0.
         24    2    3    3    0    0 -0.11103531635E+02 -0.25406340068E+02  0.16436138771E+03  0.18170844337E+03  0.72349997168E+02 0.  0.
         -6    2    1    2    0  502 -0.72904098837E+01 -0.25557160788E+02  0.12497602524E+04  0.12617803332E+04  0.17170498605E+03 0.  0.
        -24    2    5    5    0    0 -0.55724294434E+02  0.15419653518E+02  0.96204296133E+03  0.96711396244E+03  0.80248328209E+02 0.  0.
          5    1    3    3  501    0  0.18393941519E+02  0.50963500856E+02  0.59074326714E+03  0.59324136165E+03  0.47000000000E+01 0. -1.
        -13    1    4    4    0    0 -0.14771277608E+01 -0.50279079394E+02  0.11698633288E+03  0.12734194051E+03  0.00000000000E+00 0.  1.
         14    1    4    4    0    0 -0.96264038744E+01  0.24872739325E+02  0.47375054827E+02  0.54366502858E+02  0.00000000000E+00 0. -1.
         -5    1    5    5    0  502  0.48433884551E+02 -0.40976814305E+02  0.28771729109E+03  0.29466637079E+03  0.47000000000E+01 0.  1.
         11    1    6    6    0    0 -0.11048128709E+02 -0.22040534514E+02  0.59137880035E+03  0.59189250022E+03  0.00000000000E+00 0. -1.
        -12    1    6    6    0    0 -0.44676165725E+02  0.37460188032E+02  0.37066416098E+03  0.37522146221E+03  0.00000000000E+00 0.  1.
</event>
<event>
12    1  0.8493057E-002  0.1931556E+03  0.7818608E-02  0.1156200E+00
         21   -1    0    0  503  502  0.00000000000E+00  0.00000000000E+00  0.18944265483E+04  0.18944265483E+04  0.00000000000E+00 0.  1.
         21   -1    0    0  501  503 -0.00000000000E+00 -0.00000000000E+00 -0.21430413587E+02  0.21430413587E+02  0.00000000000E+00 0.  1.
          6    2    1    2  501    0  0.83244355568E+02 -0.11402677429E+02  0.12228574117E+04  0.12376317382E+04  0.17115030333E+03 0.  0.
         24    2    3    3    0    0  0.88966904684E+02 -0.48097671113E+02  0.11320026478E+04  0.11393670536E+04  0.80615085445E+02 0.  0.
         -6    2    1    2    0  502 -0.83244355568E+02  0.11402677429E+02  0.65013872308E+03  0.67822522373E+03  0.17392369323E+03 0.  0.
        -24    2    5    5    0    0 -0.11346503544E+02 -0.76959732968E+01  0.14020432947E+03  0.16287171848E+03  0.81743327131E+02 0.  0.
          5    1    3    3  501    0 -0.57225491162E+01  0.36694993684E+02  0.90854763848E+02  0.98264684622E+02  0.47000000000E+01 0. -1.
        -11    1    4    4    0    0  0.24223279455E+02 -0.11390837409E+02  0.73262769627E+03  0.73311653903E+03  0.00000000000E+00 0.  1.
         12    1    4    4    0    0  0.64743625228E+02 -0.36706833704E+02  0.39937495155E+03  0.40625051455E+03  0.00000000000E+00 0. -1.
         -5    1    5    5    0  502 -0.71897852024E+02  0.19098650726E+02  0.50993439361E+03  0.51535350525E+03  0.47000000000E+01 0.  1.
         13    1    6    6    0    0  0.10005608519E+02 -0.39708320403E+02  0.48844724625E+02  0.63739077769E+02  0.00000000000E+00 0. -1.
        -14    1    6    6    0    0 -0.21352112062E+02  0.32012347107E+02  0.91359604842E+02  0.99132640708E+02  0.00000000000E+00 0.  1.
</event>
<event>
12    1  0.8493057E-002  0.2631105E+03  0.7818608E-02  0.1105478E+00
         21   -1    0    0  503  502  0.00000000000E+00  0.00000000000E+00  0.13051723019E+03  0.13051723019E+03  0.00000000000E+00 0. -1.
         21   -1    0    0  501  503 -0.00000000000E+00 -0.00000000000E+00 -0.57507168599E+03  0.57507168599E+03  0.00000000000E+00 0. -1.
          6    2    1    2  501    0  0.88984951588E+02  0.17823050190E+03 -0.32387824100E+03  0.41728198265E+03  0.17187991340E+03 0.  0.
         24    2    3    3    0    0  0.12097274808E+03  0.13479570212E+03 -0.19277440195E+03  0.27543661765E+03  0.76805424340E+02 0.  0.
         -6    2    1    2    0  502 -0.88984951588E+02 -0.17823050190E+03 -0.12067621480E+03  0.28830693353E+03  0.16992264619E+03 0.  0.
        -24    2    5    5    0    0 -0.19185474325E+02 -0.17235958892E+03 -0.97126398749E+02  0.21425885130E+03  0.79983796559E+02 0.  0.
          5    1    3    3  501    0 -0.31987796494E+02  0.43434799783E+02 -0.13110383905E+03  0.14184536500E+03  0.47000000000E+01 0. -1.
        -11    1    4    4    0    0  0.49044165111E+02  0.83676517142E+01 -0.64797033643E+02  0.81694573232E+02  0.00000000000E+00 0.  1.
         12    1    4    4    0    0  0.71928582972E+02  0.12642805040E+03 -0.12797736831E+03  0.19374204442E+03  0.00000000000E+00 0. -1.
         -5    1    5    5    0  502 -0.69799477262E+02 -0.58709129830E+01 -0.23549816049E+02  0.74048082226E+02  0.47000000000E+01 0.  1.
         11    1    6    6    0    0  0.16409523655E+02 -0.50463136113E+02  0.20939644193E+01  0.53105416484E+02  0.00000000000E+00 0. -1.
        -12    1    6    6    0    0 -0.35594997981E+02 -0.12189645280E+03 -0.99220363168E+02  0.16115343482E+03  0.00000000000E+00 0.  1.
</event>
<event>
12    1  0.8493057E-002  0.1909956E+03  0.7818608E-02  0.1157644E+00
         21   -1    0    0  501  502  0.00000000000E+00  0.00000000000E+00  0.75727982045E+03  0.75727982045E+03  0.00000000000E+00 0.  1.
         21   -1    0    0  502  503 -0.00000000000E+00 -0.00000000000E+00 -0.54313098605E+02  0.54313098605E+02  0.00000000000E+00 0.  1.
         -6    2    1    2    0  503  0.51792047574E+02 -0.64294054574E+02  0.48862619456E+03  0.52450201146E+03  0.17184487297E+03 0.  0.
        -24    2    3    3    0    0  0.39508925443E+02 -0.66147828942E+02  0.15445637685E+03  0.19006835789E+03  0.79578375567E+02 0.  0.
          6    2    1    2  501    0 -0.51792047574E+02  0.64294054574E+02  0.21434052728E+03  0.28709090760E+03  0.17223003787E+03 0.  0.
         24    2    5    5    0    0  0.31091448968E+02  0.22853345717E+01  0.87124227236E+02  0.12301521667E+03  0.81056841833E+02 0.  0.
          5    1    5    5  501    0 -0.82883496542E+02  0.62008720002E+02  0.12721630005E+03  0.16407569093E+03  0.47000000000E+01 0. -1.
        -13    1    6    6    0    0  0.31577839918E+02 -0.35726400704E+02  0.38437178965E+02  0.61245019454E+02  0.00000000000E+00 0.  1.
         14    1    6    6    0    0 -0.48639094973E+00  0.38011735275E+02  0.48687048271E+02  0.61770197217E+02  0.00000000000E+00 0. -1.
         -5    1    3    3    0  503  0.12283122131E+02  0.18537743684E+01  0.33416981771E+03  0.33443365357E+03  0.47000000000E+01 0.  1.
         13    1    4    4    0    0  0.16210571019E+02  0.15096122748E+02  0.14190976971E+02  0.26307021158E+02  0.00000000000E+00 0. -1.
        -14    1    4    4    0    0  0.23298354424E+02 -0.81243951691E+02  0.14026539988E+03  0.16376133673E+03  0.00000000000E+00 0.  1.
</event>
<event>
12    1  0.8493057E-002  0.1860800E+03  0.7818608E-02  0.1163217E+00
         21   -1    0    0  501  502  0.00000000000E+00  0.00000000000E+00  0.14813651117E+03  0.14813651117E+03  0.00000000000E+00 0. -1.
         21   -1    0    0  502  503 -0.00000000000E+00 -0.00000000000E+00 -0.25617498355E+03  0.25617498355E+03  0.00000000000E+00 0.  1.
         -6    2    1    2    0  503 -0.58599275215E+02 -0.28701140686E+02 -0.12226935768E+03  0.22265571421E+03  0.17426457101E+03 0.  0.
        -24    2    3    3    0    0 -0.10656650234E+03 -0.23858637293E+02 -0.10684664429E+03  0.17182014787E+03  0.78614908411E+02 0.  0.
          6    2    1    2  501    0  0.58599275215E+02  0.28701140686E+02  0.14230885291E+02  0.18165578051E+03  0.16893393373E+03 0.  0.
         24    2    5    5    0    0  0.31164258472E+02 -0.32207651598E+02 -0.35768849168E+02  0.98081714159E+02  0.79574293926E+02 0.  0.
          5    1    5    5  501    0  0.27435016742E+02  0.60908792284E+02  0.49999734459E+02  0.83574066355E+02  0.47000000000E+01 0. -1.
        -13    1    6    6    0    0  0.46794585473E+02 -0.49213994945E+02 -0.30197458387E+02  0.74321174783E+02  0.00000000000E+00 0.  1.
         14    1    6    6    0    0 -0.15630327001E+02  0.17006343347E+02 -0.55713907815E+01  0.23760539376E+02  0.00000000000E+00 0. -1.
         -5    1    3    3    0  503  0.47967227121E+02 -0.48425033928E+01 -0.15422713391E+02  0.50835566340E+02  0.47000000000E+01 0.  1.
         13    1    4    4    0    0 -0.13232715554E+02 -0.36957900775E+02 -0.41557044629E+02  0.57166241340E+02  0.00000000000E+00 0. -1.
        -14    1    4    4    0    0 -0.93333786781E+02  0.13099263482E+02 -0.65289599657E+02  0.11465390653E+03  0.00000000000E+00 0.  1.
</event>
<event>
12    1  0.8493057E-002  0.2055225E+03  0.7818608E-02  0.1146452E+00
         21   -1    0    0  503  502  0.00000000000E+00  0.00000000000E+00  0.69702758652E+02  0.69702758652E+02  0.00000000000E+00 0.  1.
         21   -1    0    0  501  503 -0.00000000000E+00 -0.00000000000E+00 -0.59459818098E+03  0.59459818098E+03  0.00000000000E+00 0.  1.
          6    2    1    2  501    0 -0.10309147544E+03  0.36408338815E+02 -0.29407687822E+03  0.35524319405E+03  0.16662261903E+03 0.  0.
         24    2    3    3    0    0 -0.52860498082E+02  0.84652559788E+02 -0.18072686013E+03  0.22212305078E+03  0.81952203010E+02 0.  0.
         -6    2    1    2    0  502  0.10309147544E+03 -0.36408338815E+02 -0.23081854411E+03  0.30905774558E+03  0.17402893540E+03 0.  0.
        -24    2    5    5    0    0  0.13458244212E+03 -0.55760555738E+02 -0.20148444080E+03  0.26163655940E+03  0.81461868549E+02 0.  0.
          5    1    3    3  501    0 -0.50230977358E+02 -0.48244220973E+02 -0.11335001809E+03  0.13312014327E+03  0.47000000000E+01 0. -1.
        -13    1    4    4    0    0 -0.30568688515E+02  0.80394053119E+01 -0.11340036968E+03  0.11772306740E+03  0.00000000000E+00 0.  1.
         14    1    4    4    0    0 -0.22291809568E+02  0.76613154477E+02 -0.67326490455E+02  0.10439998338E+03  0.00000000000E+00 0. -1.
         -5    1    5    5    0  502 -0.31490966677E+02  0.19352216922E+02 -0.29334103307E+02  0.47421186182E+02  0.47000000000E+01 0.  1.
         11    1    6    6    0    0  0.44938758151E+02  0.72365563526E+01 -0.10947927952E+03  0.11856463375E+03  0.00000000000E+00 0. -1.
        -12    1    6    6    0    0  0.89643683966E+02 -0.62997112090E+02 -0.92005161277E+02  0.14307192565E+03  0.00000000000E+00 0.  1.
</event>
<event>
12    1  0.8493057E-002  0.2103655E+03  0.7818608E-02  0.1141297E+00
         21   -1    0    0  503  502  0.00000000000E+00  0.00000000000E+00  0.24338248946E+02  0.24338248946E+02  0.00000000000E+00 0.  1.
         21   -1    0    0  501  503 -0.00000000000E+00 -0.00000000000E+00 -0.18218223606E+04  0.18218223606E+04  0.00000000000E+00 0.  1.
          6    2    1    2  501    0 -0.58830862159E+01 -0.12148369039E+03 -0.85335323597E+03  0.87890009402E+03  0.17164128930E+03 0.  0.
         24    2    3    3    0    0 -0.67379925333E+02 -0.66464115164E+02 -0.37676124976E+03  0.39519457803E+03  0.72609794389E+02 0.  0.
         -6    2    1    2    0  502  0.58830862159E+01  0.12148369039E+03 -0.94413087571E+03  0.96726051556E+03  0.17151354683E+03 0.  0.
        -24    2    5    5    0    0  0.19425086754E+02  0.35010759467E+02 -0.73743280023E+03  0.74274517539E+03  0.79121257817E+02 0.  0.
          5    1    3    3  501    0  0.61496839117E+02 -0.55019575223E+02 -0.47659198621E+03  0.48370551599E+03  0.47000000000E+01 0. -1.
        -11    1    4    4    0    0  0.83899195367E+01 -0.23908269810E+02 -0.15421550582E+03  0.15628313521E+03  0.00000000000E+00 0.  1.
         12    1    4    4    0    0 -0.75769844870E+02 -0.42555845354E+02 -0.22254574394E+03  0.23891144282E+03  0.00000000000E+00 0. -1.
         -5    1    5    5    0  502 -0.13542000538E+02  0.86472930921E+02 -0.20669807548E+03  0.22451534016E+03  0.47000000000E+01 0.  1.
         11    1    6    6    0    0 -0.16395404710E+02  0.47741257277E+02 -0.39691707895E+03  0.40011398939E+03  0.00000000000E+00 0. -1.
        -12    1    6    6    0    0  0.35820491464E+02 -0.12730497810E+02 -0.34051572128E+03  0.34263118600E+03  0.00000000000E+00 0.  1.
</event>
<event>
12    1  0.8493057E-002  0.2074609E+03  0.7818608E-02  0.1143978E+00
         21   -1    0    0  501  502  0.00000000000E+00  0.00000000000E+00  0.41861618269E+02  0.41861618269E+02  0.00000000000E+00 0.  1.
         21   -1    0    0  502  503 -0.00000000000E+00 -0.00000000000E+00 -0.20641768567E+04  0.20641768567E+04  0.00000000000E+00 0.  1.
         -6    2    1    2    0  503  0.10931256384E+03  0.16944215721E+02 -0.17628620070E+04  0.17750274620E+04  0.17550980643E+03 0.  0.
        -24    2    3    3    0    0 -0.93595826452E+01  0.32883903199E+02 -0.71765592045E+03  0.72297470416E+03  0.80581944673E+02 0.  0.
          6    2    1    2  501    0 -0.10931256384E+03 -0.16944215721E+02 -0.25945323152E+03  0.33101101303E+03  0.17325117126E+03 0.  0.
         24    2    5    5    0    0 -0.32702202609E+02 -0.35606026620E+02 -0.23016724698E+03  0.24676631275E+03  0.74695571105E+02 0.  0.
          5    1    5    5  501    0 -0.76610361231E+02  0.18661810899E+02 -0.29285984540E+02  0.84244700275E+02  0.47000000000E+01 0. -1.
        -11    1    6    6    0    0 -0.21254288476E+02  0.14272796569E+02 -0.26818256430E+02  0.37076628467E+02  0.00000000000E+00 0.  1.
         12    1    6    6    0    0 -0.11447914134E+02 -0.49878823189E+02 -0.20334899055E+03  0.20968968429E+03  0.00000000000E+00 0. -1.
         -5    1    3    3    0  503  0.11867214649E+03 -0.15939687478E+02 -0.10452060865E+04  0.10520527578E+04  0.47000000000E+01 0.  1.
         13    1    4    4    0    0 -0.33344068951E+02 -0.74156399611E+01 -0.17543907602E+03  0.17873356721E+03  0.00000000000E+00 0. -1.
        -14    1    4    4    0    0  0.23984486306E+02  0.40299543160E+02 -0.54221684443E+03  0.54424113695E+03  0.00000000000E+00 0.  1.
</event>
<event>
12    1  0.8493057E-002  0.1813626E+03  0.7818608E-02  0.1168401E+00
         21   -1    0    0  501  502  0.00000000000E+00  0.00000000000E+00  0.65410937272E+02  0.65410937272E+02  0.00000000000E+00 0.  1.
         21   -1    0    0  502  503 -0.00000000000E+00 -0.00000000000E+00 -0.50938012417E+03  0.50938012417E+03  0.00000000000E+00 0.  1.
         -6    2    1    2    0  503 -0.53952669051E+02  0.66223790645E-01 -0.29381349073E+03  0.34528071658E+03  0.17315169945E+03 0.  0.
        -24    2    3    3    0    0 -0.29377205821E+02 -0.45062068423E+02 -0.78673855426E+02  0.12403951601E+03  0.79389015435E+02 0.  0.
          6    2    1    2  501    0  0.53952669051E+02 -0.66223790645E-01 -0.15015569617E+03  0.22951034486E+03  0.16497687845E+03 0.  0.
         24    2    5    5    0    0  0.24794575118E+02 -0.36460414611E+02 -0.19459304893E+02  0.90663781133E+02  0.76792733208E+02 0.  0.
          5    1    5    5  501    0  0.29158093933E+02  0.36394190820E+02 -0.13069639128E+03  0.13884656373E+03  0.47000000000E+01 0. -1.
        -13    1    6    6    0    0 -0.27360020512E+02 -0.17817381359E+02 -0.11960860260E+02  0.34771999930E+02  0.00000000000E+00 0.  1.
         14    1    6    6    0    0  0.52154595630E+02 -0.18643033252E+02 -0.74984446329E+01  0.55891781204E+02  0.00000000000E+00 0. -1.
         -5    1    3    3    0  503 -0.24575463230E+02  0.45128292214E+02 -0.21513963530E+03  0.22124120057E+03  0.47000000000E+01 0.  1.
         11    1    4    4    0    0  0.25397037663E+02 -0.26317335730E+01 -0.13339763494E+02  0.28807721773E+02  0.00000000000E+00 0. -1.
        -12    1    4    4    0    0 -0.54774243484E+02 -0.42430334850E+02 -0.65334091932E+02  0.95231794236E+02  0.00000000000E+00 0.  1.
</event>
<event>
12    1  0.8493057E-002  0.1853471E+03  0.7818608E-02  0.1163602E+00
         21   -1    0    0  501  502  0.00000000000E+00  0.00000000000E+00  0.93916185137E+02  0.93916185137E+02  0.00000000000E+00 0.  1.
         21   -1    0    0  502  503 -0.00000000000E+00 -0.00000000000E+00 -0.36114265524E+03  0.36114265524E+03  0.00000000000E+00 0.  1.
         -6    2    1    2    0  503 -0.68380147590E+02  0.21302190116E+02 -0.11542915075E+03  0.21835160579E+03  0.17095001322E+03 0.  0.
        -24    2    3    3    0    0 -0.99826307759E+02 -0.78890594095E+01 -0.11932519970E+03  0.17501271753E+03  0.79771041337E+02 0.  0.
          6    2    1    2  501    0  0.68380147590E+02 -0.21302190116E+02 -0.15179731936E+03  0.23670723459E+03  0.16690794126E+03 0.  0.
         24    2    5    5    0    0  0.20464688801E+02 -0.53322349480E+02 -0.14978009342E+03  0.17885102492E+03  0.79319205047E+02 0.  0.
          5    1    5    5  501    0  0.47915458789E+02  0.32020159363E+02 -0.20172259362E+01  0.57856209668E+02  0.47000000000E+01 0. -1.
        -11    1    6    6    0    0  0.18438498527E+02  0.12601529246E+02 -0.79036326135E+02  0.82131100177E+02  0.00000000000E+00 0.  1.
         12    1    6    6    0    0  0.20261902741E+01 -0.65923878726E+02 -0.70743767284E+02  0.96719924745E+02  0.00000000000E+00 0. -1.
         -5    1    3    3    0  503  0.31446160169E+02  0.29191249526E+02  0.38960489459E+01  0.43338888260E+02  0.47000000000E+01 0.  1.
         13    1    4    4    0    0 -0.67497311166E+01  0.95143644945E+01 -0.64603420439E+02  0.65648183023E+02  0.00000000000E+00 0. -1.
        -14    1    4    4    0    0 -0.93076576642E+02 -0.17403423904E+02 -0.54721779258E+02  0.10936453451E+03  0.00000000000E+00 0.  1.
</event>
<event>
12    1  0.8493057E-002  0.2046001E+03  0.7818608E-02  0.1146815E+00
         21   -1    0    0  501  502  0.00000000000E+00  0.00000000000E+00  0.10079123103E+04  0.10079123103E+04  0.00000000000E+00 0. -1.
         21   -1    0    0  502  503 -0.00000000000E+00 -0.00000000000E+00 -0.75553060412E+02  0.75553060412E+02  0.00000000000E+00 0. -1.
         -6    2    1    2    0  503  0.10076499899E+03 -0.34476655505E+02  0.10070485416E+03  0.22804089260E+03  0.17469675512E+03 0.  0.
        -24    2    3    3    0    0  0.98082292081E+02 -0.31599652628E+02  0.34896226130E+01  0.13063265215E+03  0.80212457115E+02 0.  0.
          6    2    1    2  501    0 -0.10076499899E+03  0.34476655505E+02  0.83165439570E+03  0.85542447808E+03  0.16958708389E+03 0.  0.
         24    2    5    5    0    0 -0.14592008554E+02 -0.10295859130E+01  0.60445620161E+03  0.60980773017E+03  0.79272828527E+02 0.  0.
          5    1    5    5  501    0 -0.86172990440E+02  0.35506241418E+02  0.22719819408E+03  0.24561674792E+03  0.47000000000E+01 0. -1.
        -13    1    6    6    0    0 -0.12437069694E+02  0.32052028781E+02  0.13961326339E+03  0.14378413183E+03  0.00000000000E+00 0.  1.
         14    1    6    6    0    0 -0.21549388600E+01 -0.33081614694E+02  0.46484293822E+03  0.46602359833E+03  0.00000000000E+00 0. -1.
         -5    1    3    3    0  503  0.26827069134E+01 -0.28770028772E+01  0.97215231547E+02  0.97408240446E+02  0.47000000000E+01 0.  1.
         13    1    4    4    0    0  0.58896891329E+02  0.12572670808E+02 -0.24833474654E+02  0.65143052760E+02  0.00000000000E+00 0. -1.
        -14    1    4    4    0    0  0.39185400752E+02 -0.44172323436E+02  0.28323097267E+02  0.65489599393E+02  0.00000000000E+00 0.  1.
</event>
<event>
12    1  0.8493057E-002  0.2083982E+03  0.7818608E-02  0.1142925E+00
         21   -1    0    0  503  502  0.00000000000E+00  0.00000000000E+00  0.97303584702E+02  0.97303584702E+02  0.00000000000E+00 0. -1.
         21   -1    0    0  501  503 -0.00000000000E+00 -0.00000000000E+00 -0.68475859944E+03  0.68475859944E+03  0.00000000000E+00 0. -1.
          6    2    1    2  501    0  0.83464530916E+02  0.84089243691E+02 -0.62747479240E+02  0.21763970720E+03  0.17144231441E+03 0.  0.
         24    2    3    3    0    0  0.29703065125E+02  0.11310888228E+03 -0.65334248855E+02  0.15631095371E+03  0.80552211932E+02 0.  0.
         -6    2    1    2    0  502 -0.83464530916E+02 -0.84089243691E+02 -0.52470753550E+03  0.56442247694E+03  0.17093099733E+03 0.  0.
        -24    2    5    5    0    0  0.24664692352E+01  0.63564944501E+01 -0.20502683396E+03  0.22122805789E+03  0.82821268177E+02 0.  0.
          5    1    3    3  501    0  0.53761465791E+02 -0.29019638585E+02  0.25867696150E+01  0.61328753490E+02  0.47000000000E+01 0. -1.
        -13    1    4    4    0    0  0.55704846429E+02  0.82285115306E+02 -0.33264130999E+02  0.10478727274E+03  0.00000000000E+00 0.  1.
         14    1    4    4    0    0 -0.26001781304E+02  0.30823766970E+02 -0.32070117855E+02  0.51523680968E+02  0.00000000000E+00 0. -1.
         -5    1    5    5    0  502 -0.85931000151E+02 -0.90445738141E+02 -0.31968070153E+03  0.34319441905E+03  0.47000000000E+01 0.  1.
         13    1    6    6    0    0 -0.30424498193E+02  0.28833612615E+02 -0.12486523283E+03  0.13171314922E+03  0.00000000000E+00 0. -1.
        -14    1    6    6    0    0  0.32890967429E+02 -0.22477118165E+02 -0.80161601134E+02  0.89514908679E+02  0.00000000000E+00 0.  1.
</event>
<event>
12    1  0.8493057E-002  0.2324648E+03  0.7818608E-02  0.1125593E+00
         21   -1    0    0  503  502  0.00000000000E+00  0.00000000000E+00  0.16678786087E+04  0.16678786087E+04  0.00000000000E+00 0. -1.
         21   -1    0    0  501  503 -0.00000000000E+00 -0.00000000000E+00 -0.33030378912E+02  0.33030378912E+02  0.00000000000E+00 0. -1.
          6    2    1    2  501    0 -0.42330339255E+02 -0.14597448077E+03  0.66426909780E+03  0.70377077412E+03  0.17589616697E+03 0.  0.
         24    2    3    3    0    0 -0.20438296008E+02 -0.23469439770E+02  0.42802569275E+03  0.43671313417E+03  0.80893938915E+02 0.  0.
         -6    2    1    2    0  502  0.42330339255E+02  0.14597448077E+03  0.97057913199E+03  0.99713821350E+03  0.17076404393E+03 0.  0.
        -24    2    5    5    0    0 -0.22354155036E+01  0.13763372729E+03  0.89415458770E+03  0.90815239645E+03  0.79248397446E+02 0.  0.
          5    1    3    3  501    0 -0.21892043248E+02 -0.12250504100E+03  0.23624340505E+03  0.26705763996E+03  0.47000000000E+01 0. -1.
        -13    1    4    4    0    0  0.11024450691E+02 -0.38969125762E+02  0.33240430212E+03  0.33486228713E+03  0.00000000000E+00 0.  1.
         14    1    4    4    0    0 -0.31462746698E+02  0.15499685992E+02  0.95621390628E+02  0.10185084703E+03  0.00000000000E+00 0. -1.
         -5    1    5    5    0  502  0.44565754759E+02  0.83407534813E+01  0.76424544294E+02  0.88985817052E+02  0.47000000000E+01 0.  1.
         11    1    6    6    0    0  0.19165156738E+02  0.57198427527E+02  0.19651967353E+03  0.20556980671E+03  0.00000000000E+00 0. -1.
        -12    1    6    6    0    0 -0.21400572241E+02  0.80435299760E+02  0.69763491417E+03  0.70258258974E+03  0.00000000000E+00 0.  1.
</event>
<event>
12    1  0.8493057E-002  0.1881971E+03  0.7818608E-02  0.1160408E+00
         21   -1    0    0  503  502  0.00000000000E+00  0.00000000000E+00  0.20783581465E+03  0.20783581465E+03  0.00000000000E+00 0.  1.
         21   -1    0    0  501  503 -0.00000000000E+00 -0.00000000000E+00 -0.16927560553E+03  0.16927560553E+03  0.00000000000E+00 0.  1.
          6    2    1    2  501    0  0.45647271221E+02 -0.60838194346E+02  0.14982099666E+02  0.18744312799E+03  0.17066195726E+03 0.  0.
         24    2    3    3    0    0  0.41557831442E+02 -0.10450013176E+03  0.31425057836E+02  0.14037350753E+03  0.77909283546E+02 0.  0.
         -6    2    1    2    0  502 -0.45647271221E+02  0.60838194346E+02  0.23578109460E+02  0.18966829219E+03  0.17214288994E+03 0.  0.
        -24    2    5    5    0    0 -0.67935060430E+02 -0.73872437694E+01 -0.16777460463E+02  0.10719333855E+03  0.80865226423E+02 0.  0.
          5    1    3    3  501    0  0.40894397791E+01  0.43661937417E+02 -0.16442958170E+02  0.47069620459E+02  0.47000000000E+01 0. -1.
        -13    1    4    4    0    0  0.21961877074E+02 -0.64251404222E+01 -0.17716470880E+02  0.28939243502E+02  0.00000000000E+00 0.  1.
         14    1    4    4    0    0  0.19595954368E+02 -0.98074991341E+02  0.49141528716E+02  0.11143426402E+03  0.00000000000E+00 0. -1.
         -5    1    5    5    0  502  0.22287789208E+02  0.68225438116E+02  0.40355569923E+02  0.82474953639E+02  0.47000000000E+01 0.  1.
         11    1    6    6    0    0  0.15399953736E+02  0.74801616553E+00 -0.17678470043E+02  0.23457331612E+02  0.00000000000E+00 0. -1.
        -12    1    6    6    0    0 -0.83335014166E+02 -0.81352599349E+01  0.90100958066E+00  0.83736006941E+02  0.00000000000E+00 0.  1.
</event>
<event>
12    1  0.8493057E-002  0.2069645E+03  0.7818608E-02  0.1145644E+00
         21   -1    0    0  503  502  0.00000000000E+00  0.00000000000E+00  0.12734775660E+03  0.12734775660E+03  0.00000000000E+00 0.  1.
         21   -1    0    0  501  503 -0.00000000000E+00 -0.00000000000E+00 -0.13295085451E+04  0.13295085451E+04  0.00000000000E+00 0. -1.
          6    2    1    2  501    0  0.95038848367E+02  0.40521119920E+02 -0.12375914866E+04  0.12547776664E+04  0.17933198419E+03 0.  0.
         24    2    3    3    0    0  0.90742710604E+02  0.45450218314E+01 -0.43755121632E+03  0.45390360608E+03  0.79514275196E+02 0.  0.
         -6    2    1    2    0  502 -0.95038848367E+02 -0.40521119920E+02  0.35430698039E+02  0.20207863535E+03  0.17001793036E+03 0.  0.
        -24    2    5    5    0    0 -0.98263970467E+02 -0.70220399611E+02  0.63933565708E+02  0.16052202225E+03  0.84220581754E+02 0.  0.
          5    1    3    3  501    0  0.42961377625E+01  0.35976098088E+02 -0.80004027025E+03  0.80087406030E+03  0.47000000000E+01 0. -1.
        -11    1    4    4    0    0  0.85004871922E+02 -0.23778579726E+02 -0.37087197133E+03  0.38123125295E+03  0.00000000000E+00 0.  1.
         12    1    4    4    0    0  0.57378386822E+01  0.28323601557E+02 -0.66679244985E+02  0.72672353132E+02  0.00000000000E+00 0. -1.
         -5    1    5    5    0  502  0.32251221003E+01  0.29699279691E+02 -0.28502867669E+02  0.41556613097E+02  0.47000000000E+01 0.  1.
         11    1    6    6    0    0 -0.70221330839E+02 -0.36391090105E+01  0.51632579872E+02  0.87236470145E+02  0.00000000000E+00 0. -1.
        -12    1    6    6    0    0 -0.28042639628E+02 -0.66581290601E+02  0.12300985836E+02  0.73285552109E+02  0.00000000000E+00 0.  1.
</event>
<event>
12    1  0.8493057E-002  0.1855007E+03  0.7818608E-02  0.1162998E+00
         21   -1    0    0  501  502  0.00000000000E+00  0.00000000000E+00  0.14197055646E+03  0.14197055646E+03  0.00000000000E+00 0. -1.
         21   -1    0    0  502  503 -0.00000000000E+00 -0.00000000000E+00 -0.27145994485E+03  0.27145994485E+03  0.00000000000E+00 0. -1.
         -6    2    1    2    0  503 -0.59013872104E+02 -0.35510498633E+02 -0.13531717787E+03  0.22961110650E+03  0.17224078782E+03 0.  0.
        -24    2    3    3    0    0 -0.56577005368E+02  0.34736709836E+02 -0.42024681634E+02  0.11270863231E+03  0.80805726188E+02 0.  0.
          6    2    1    2  501    0  0.59013872104E+02  0.35510498633E+02  0.58277894840E+01  0.18381939480E+03  0.17032901737E+03 0.  0.
         24    2    5    5    0    0  0.39811933232E+02  0.87308748189E+02  0.21361391121E+02  0.12624200433E+03  0.79201812402E+02 0.  0.
          5    1    5    5  501    0  0.19201938873E+02 -0.51798249556E+02 -0.15533601638E+02  0.57577390471E+02  0.47000000000E+01 0. -1.
        -13    1    6    6    0    0 -0.12348931059E+02  0.13785308197E+02  0.30455081594E+02  0.35637660070E+02  0.00000000000E+00 0.  1.
         14    1    6    6    0    0  0.52160864291E+02  0.73523439993E+02 -0.90936904721E+01  0.90604344257E+02  0.00000000000E+00 0. -1.
         -5    1    3    3    0  503 -0.24368667368E+01 -0.70247208469E+02 -0.93292496240E+02  0.11690247419E+03  0.47000000000E+01 0.  1.
         13    1    4    4    0    0 -0.17191860815E+02  0.11752606816E+01  0.23547099744E+02  0.29178883158E+02  0.00000000000E+00 0. -1.
        -14    1    4    4    0    0 -0.39385144552E+02  0.33561449154E+02 -0.65571781378E+02  0.83529749155E+02  0.00000000000E+00 0.  1.
</event>
<event>
12    1  0.8493057E-002  0.1816806E+03  0.7818608E-02  0.1166260E+00
         21   -1    0    0  503  502  0.00000000000E+00  0.00000000000E+00  0.45214210719E+02  0.45214210719E+02  0.00000000000E+00 0.  1.
         21   -1    0    0  501  503 -0.00000000000E+00 -0.00000000000E+00 -0.10869384060E+04  0.10869384060E+04  0.00000000000E+00 0.  1.
          6    2    1    2  501    0  0.33956820946E+02 -0.50290010995E+02 -0.84609987820E+03  0.86538595665E+03  0.17124747934E+03 0.  0.
         24    2    3    3    0    0 -0.23029220483E+02 -0.52674727655E+02 -0.72351260615E+03  0.73009802275E+03  0.79168552016E+02 0.  0.
         -6    2    1    2    0  502 -0.33956820946E+02  0.50290010995E+02 -0.19562431705E+03  0.26676666004E+03  0.17091935698E+03 0.  0.
        -24    2    5    5    0    0  0.45453776900E+02  0.11278342809E+02 -0.12091621418E+03  0.15087298489E+03  0.77127685478E+02 0.  0.
          5    1    3    3  501    0  0.56986041428E+02  0.23847166604E+01 -0.12258727205E+03  0.13528793391E+03  0.47000000000E+01 0. -1.
        -13    1    4    4    0    0 -0.31815685005E+02 -0.21707208865E+02 -0.12686457696E+03  0.13258228243E+03  0.00000000000E+00 0.  1.
         14    1    4    4    0    0  0.87864645219E+01 -0.30967518791E+02 -0.59664802920E+03  0.59751574031E+03  0.00000000000E+00 0. -1.
         -5    1    5    5    0  502 -0.79410597845E+02  0.39011668186E+02 -0.74708102869E+02  0.11589367515E+03  0.47000000000E+01 0.  1.
         11    1    6    6    0    0  0.19736553585E+02 -0.29776013142E+02 -0.79426660165E+02  0.87090394711E+02  0.00000000000E+00 0. -1.
        -12    1    6    6    0    0  0.25717223315E+02  0.41054355951E+02 -0.41489554013E+02  0.63782590178E+02  0.00000000000E+00 0.  1.
</event>
<event>
12    1  0.8493057E-002  0.1937644E+03  0.7818608E-02  0.1155799E+00
         21   -1    0    0  501  502  0.00000000000E+00  0.00000000000E+00  0.55278963917E+02  0.55278963917E+02  0.00000000000E+00 0. -1.
         21   -1    0    0  502  503 -0.00000000000E+00 -0.00000000000E+00 -0.13212919719E+04  0.13212919719E+04  0.00000000000E+00 0.  1.
         -6    2    1    2    0  503  0.84211571558E+02 -0.16835028622E+02 -0.11194412756E+04  0.11360868815E+04  0.17369405790E+03 0.  0.
        -24    2    3    3    0    0  0.70225235498E+02 -0.61119147061E+02 -0.56611270981E+03  0.58079300210E+03  0.90386820061E+02 0.  0.
          6    2    1    2  501    0 -0.84211571558E+02  0.16835028622E+02 -0.14657173236E+03  0.24048405433E+03  0.17021839115E+03 0.  0.
         24    2    5    5    0    0 -0.74118600274E+02 -0.44210293945E+02 -0.13246406723E+03  0.17684824922E+03  0.79249335318E+02 0.  0.
          5    1    5    5  501    0 -0.10092971284E+02  0.61045322567E+02 -0.14107665134E+02  0.63635805111E+02  0.47000000000E+01 0. -1.
        -13    1    6    6    0    0 -0.34685648072E+02 -0.34462955587E+02 -0.12894420208E+02  0.50567336913E+02  0.00000000000E+00 0.  1.
         14    1    6    6    0    0 -0.39432952202E+02 -0.97473383577E+01 -0.11956964702E+03  0.12628091231E+03  0.00000000000E+00 0. -1.
         -5    1    3    3    0  503  0.13986336060E+02  0.44284118439E+02 -0.55332856580E+03  0.55529387938E+03  0.47000000000E+01 0.  1.
         11    1    4    4    0    0  0.49245679607E+01 -0.53412238927E+02 -0.14550880868E+03  0.15508040508E+03  0.00000000000E+00 0. -1.
        -12    1    4    4    0    0  0.65300667538E+02 -0.77069081341E+01 -0.42060390113E+03  0.42571259702E+03  0.00000000000E+00 0.  1.
</event>
<event>
12    1  0.8493057E-002  0.2260824E+03  0.7818608E-02  0.1129704E+00
         21   -1    0    0  501  502  0.00000000000E+00  0.00000000000E+00  0.32036452581E+03  0.32036452581E+03  0.00000000000E+00 0. -1.
         21   -1    0    0  502  503 -0.00000000000E+00 -0.00000000000E+00 -0.15972158852E+03  0.15972158852E+03  0.00000000000E+00 0.  1.
         -6    2    1    2    0  503  0.12926208307E+03 -0.68524989202E+02  0.10131456207E+03  0.24634882945E+03  0.17034889205E+03 0.  0.
        -24    2    3    3    0    0  0.15427142985E+03 -0.59655209537E+02  0.11754985539E+03  0.21488750133E+03  0.70712457423E+02 0.  0.
          6    2    1    2  501    0 -0.12926208307E+03  0.68524989202E+02  0.59328375217E+02  0.23373728488E+03  0.17236270471E+03 0.  0.
         24    2    5    5    0    0 -0.15390980123E+03  0.36404593206E+02  0.69703250171E+02  0.19167830391E+03  0.82876460980E+02 0.  0.
          5    1    5    5  501    0  0.24647718167E+02  0.32120395996E+02 -0.10374874953E+02  0.42058980968E+02  0.47000000000E+01 0. -1.
        -13    1    6    6    0    0 -0.14613588542E+03  0.52960193772E+02  0.46720661120E+02  0.16230618998E+03  0.00000000000E+00 0.  1.
         14    1    6    6    0    0 -0.77739158132E+01 -0.16555600566E+02  0.22982589051E+02  0.29372113929E+02  0.00000000000E+00 0. -1.
         -5    1    3    3    0  503 -0.25009346787E+02 -0.88697796649E+01 -0.16235293316E+02  0.31461328120E+02  0.47000000000E+01 0.  1.
         13    1    4    4    0    0  0.16482007248E+02  0.16092588542E+01  0.44196847041E+02  0.47197537705E+02  0.00000000000E+00 0. -1.
        -14    1    4    4    0    0  0.13778942260E+03 -0.61264468391E+02  0.73353008344E+02  0.16768996363E+03  0.00000000000E+00 0.  1.
</event>
<event>
12    1  0.8493057E-002  0.2532338E+03  0.7818608E-02  0.1111373E+00
         21   -1    0    0  501  502  0.00000000000E+00  0.00000000000E+00  0.65370035000E+02  0.65370035000E+02  0.00000000000E+00 0.  1.
         21   -1    0    0  502  503 -0.00000000000E+00 -0.00000000000E+00 -0.10578812028E+04  0.10578812028E+04  0.00000000000E+00 0.  1.
         -6    2    1    2    0  503  0.74435815002E+02  0.16977215808E+03 -0.64943120022E+03  0.69683454328E+03  0.17162231989E+03 0.  0.
        -24    2    3    3    0    0  0.47191536235E+02  0.18363716182E+03 -0.46172778819E+03  0.50660008284E+03  0.86610884147E+02 0.  0.
          6    2    1    2  501    0 -0.74435815002E+02 -0.16977215808E+03 -0.34307996762E+03  0.42641669455E+03  0.17252262749E+03 0.  0.
         24    2    5    5    0    0 -0.84430943697E+02 -0.89005557940E+02 -0.12116614491E+03  0.19000396011E+03  0.79810378950E+02 0.  0.
          5    1    5    5  501    0  0.99951286949E+01 -0.80766600144E+02 -0.22191382270E+03  0.23641273444E+03  0.47000000000E+01 0. -1.
        -11    1    6    6    0    0 -0.89418667701E+01 -0.66996091752E+02 -0.51959161987E+02  0.85253667403E+02  0.00000000000E+00 0.  1.
         12    1    6    6    0    0 -0.75489076927E+02 -0.22009466188E+02 -0.69206982926E+02  0.10475029271E+03  0.00000000000E+00 0. -1.
         -5    1    3    3    0  503  0.27244278767E+02 -0.13865003737E+02 -0.18770341203E+03  0.19023446044E+03  0.47000000000E+01 0.  1.
         13    1    4    4    0    0  0.14312205742E+02 -0.26995604962E+01 -0.12662789543E+02  0.19299562147E+02  0.00000000000E+00 0. -1.
        -14    1    4    4    0    0  0.32879330493E+02  0.18633672232E+03 -0.44906499865E+03  0.48730052069E+03  0.00000000000E+00 0.  1.
</event>
<event>
12    1  0.8493057E-002  0.2051083E+03  0.7818608E-02  0.1145812E+00
         21   -1    0    0  501  502  0.00000000000E+00  0.00000000000E+00  0.15710339061E+03  0.15710339061E+03  0.00000000000E+00 0. -1.
         21   -1    0    0  502  503 -0.00000000000E+00 -0.00000000000E+00 -0.40766143388E+03  0.40766143388E+03  0.00000000000E+00 0. -1.
         -6    2    1    2    0  503  0.61089725084E+02  0.94339199971E+02 -0.29216415855E+03  0.35697240830E+03  0.17157379049E+03 0.  0.
        -24    2    3    3    0    0 -0.32140218121E+02  0.60269332496E+02 -0.14756724334E+03  0.18152174268E+03  0.80676301953E+02 0.  0.
          6    2    1    2  501    0 -0.61089725084E+02 -0.94339199971E+02  0.41606115286E+02  0.20779241619E+03  0.16974916858E+03 0.  0.
         24    2    5    5    0    0 -0.66224065645E+02  0.12083082383E+01 -0.10740282136E+00  0.10330416148E+03  0.79275793061E+02 0.  0.
          5    1    5    5  501    0  0.51343405604E+01 -0.95547508210E+02  0.41713518108E+02  0.10448825470E+03  0.47000000000E+01 0. -1.
        -13    1    6    6    0    0 -0.48733421472E+02 -0.16614628031E+02 -0.33633854020E+02  0.61499824140E+02  0.00000000000E+00 0.  1.
         14    1    6    6    0    0 -0.17490644172E+02  0.17822936270E+02  0.33526451199E+02  0.41804337345E+02  0.00000000000E+00 0. -1.
         -5    1    3    3    0  503  0.93229943205E+02  0.34069867475E+02 -0.14459691521E+03  0.17545066563E+03  0.47000000000E+01 0.  1.
         13    1    4    4    0    0  0.92950133534E+01  0.62205984859E+02 -0.10260013355E+03  0.12034437764E+03  0.00000000000E+00 0. -1.
        -14    1    4    4    0    0 -0.41435231474E+02 -0.19366523632E+01 -0.44967109791E+02  0.61177365035E+02  0.00000000000E+00 0.  1.
</event>
<event>
12    1  0.8493057E-002  0.1814519E+03  0.7818608E-02  0.1166490E+00
         21   -1    0    0  503  502  0.00000000000E+00  0.00000000000E+00  0.11393671403E+04  0.11393671403E+04  0.00000000000E+00 0. -1.
         21   -1    0    0  501  503 -0.00000000000E+00 -0.00000000000E+00 -0.36962383155E+02  0.36962383155E+02  0.00000000000E+00 0. -1.
          6    2    1    2  501    0  0.56290797893E+02  0.75101681959E+01  0.27509456736E+03  0.32935434146E+03  0.17196570791E+03 0.  0.
         24    2    3    3    0    0 -0.12540235039E+02  0.35258704141E+02  0.22106601507E+03  0.23743662389E+03  0.78137914193E+02 0.  0.
         -6    2    1    2    0  502 -0.56290797893E+02 -0.75101681959E+01  0.82731018980E+03  0.84697518200E+03  0.17233616053E+03 0.  0.
        -24    2    5    5    0    0 -0.20170741433E+01  0.54189279600E+02  0.50825939121E+03  0.51747865542E+03  0.80721765666E+02 0.  0.
          5    1    3    3  501    0  0.68831032931E+02 -0.27748535945E+02  0.54028552290E+02  0.91917717574E+02  0.47000000000E+01 0. -1.
        -11    1    4    4    0    0  0.32649768048E+01 -0.70987955665E+01 -0.33575964153E+01  0.85044944423E+01  0.00000000000E+00 0.  1.
         12    1    4    4    0    0 -0.15805211843E+02  0.42357499708E+02  0.22442361148E+03  0.22893212945E+03  0.00000000000E+00 0. -1.
         -5    1    5    5    0  502 -0.54273723749E+02 -0.61699447796E+02  0.31905079859E+03  0.32949652658E+03  0.47000000000E+01 0.  1.
         11    1    6    6    0    0 -0.13002267252E+02 -0.17633510436E+02  0.17659801698E+03  0.17795184530E+03  0.00000000000E+00 0. -1.
        -12    1    6    6    0    0  0.10985193109E+02  0.71822790036E+02  0.33166137423E+03  0.33952681013E+03  0.00000000000E+00 0.  1.
</event>
<event>
12    1  0.8493057E-002  0.2160251E+03  0.7818608E-02  0.1136921E+00
         21   -1    0    0  503  502  0.00000000000E+00  0.00000000000E+00  0.23996970611E+03  0.23996970611E+03  0.00000000000E+00 0.  1.
         21   -1    0    0  501  503 -0.00000000000E+00 -0.00000000000E+00 -0.21028734982E+03  0.21028734982E+03  0.00000000000E+00 0.  1.
          6    2    1    2  501    0  0.12973105082E+03 -0.98133551315E+01  0.76943094881E+02  0.22912268415E+03  0.17219325497E+03 0.  0.
         24    2    3    3    0    0  0.14908523321E+03  0.22439125911E+02  0.84731060424E+02  0.19042450181E+03  0.79700797720E+02 0.  0.
         -6    2    1    2    0  502 -0.12973105082E+03  0.98133551315E+01 -0.47260738591E+02  0.22113437177E+03  0.17245400975E+03 0.  0.
        -24    2    5    5    0    0 -0.10227048713E+03 -0.55512304621E+02 -0.11505814556E+02  0.14162318405E+03  0.79899148860E+02 0.  0.
          5    1    3    3  501    0 -0.19354182389E+02 -0.32252481042E+02 -0.77879655424E+01  0.38698182343E+02  0.47000000000E+01 0. -1.
        -11    1    4    4    0    0  0.82205160428E+02  0.47490442620E+02  0.68816246489E+02  0.11725487760E+03  0.00000000000E+00 0.  1.
         12    1    4    4    0    0  0.66880072781E+02 -0.25051316709E+02  0.15914813935E+02  0.73169624208E+02  0.00000000000E+00 0. -1.
         -5    1    5    5    0  502 -0.27460563685E+02  0.65325659752E+02 -0.35754924034E+02  0.79511187720E+02  0.47000000000E+01 0.  1.
         13    1    6    6    0    0  0.50562497485E+01 -0.21699564039E+02  0.13903579919E+02  0.26263021067E+02  0.00000000000E+00 0. -1.
        -14    1    6    6    0    0 -0.10732673688E+03 -0.33812740581E+02 -0.25409394475E+02  0.11536016298E+03  0.00000000000E+00 0.  1.
</event>
<event>
12    1  0.8493057E-002  0.2025022E+03  0.7818608E-02  0.1148765E+00
         21   -1    0    0  503  502  0.00000000000E+00  0.00000000000E+00  0.12868543510E+03  0.12868543510E+03  0.00000000000E+00 0.  1.
         21   -1    0    0  501  503 -0.00000000000E+00 -0.00000000000E+00 -0.37009879666E+03  0.37009879666E+03  0.00000000000E+00 0.  1.
          6    2    1    2  501    0 -0.36029090203E+02  0.88910519957E+02 -0.21955999930E+03  0.29510625400E+03  0.17227284161E+03 0.  0.
         24    2    3    3    0    0 -0.41206768082E+02 -0.10250253863E+02 -0.76301070322E+02  0.12073630778E+03  0.83380676683E+02 0.  0.
         -6    2    1    2    0  502  0.36029090203E+02 -0.88910519957E+02 -0.21853362253E+02  0.20367797776E+03  0.17833668518E+03 0.  0.
        -24    2    5    5    0    0  0.41159233931E+02 -0.13310959508E+03 -0.16674852098E+02  0.15863595756E+03  0.73993712566E+02 0.  0.
          5    1    3    3  501    0  0.51776778791E+01  0.99160773820E+02 -0.14325892898E+03  0.17436994622E+03  0.47000000000E+01 0. -1.
        -11    1    4    4    0    0 -0.48047602640E+02 -0.26438387591E+02 -0.84977328423E+02  0.10113706939E+03  0.00000000000E+00 0.  1.
         12    1    4    4    0    0  0.68408345579E+01  0.16188133727E+02  0.86762581014E+01  0.19599238395E+02  0.00000000000E+00 0. -1.
         -5    1    5    5    0  502 -0.51301437286E+01  0.44199075119E+02 -0.51785101551E+01  0.45042020197E+02  0.47000000000E+01 0.  1.
         13    1    6    6    0    0  0.12671130504E+01 -0.38539459586E+02 -0.37630407105E+02  0.53878966764E+02  0.00000000000E+00 0. -1.
        -14    1    6    6    0    0  0.39892120881E+02 -0.94570135490E+02  0.20955555007E+02  0.10475699080E+03  0.00000000000E+00 0.  1.
</event>
<event>
12    1  0.8493057E-002  0.2069410E+03  0.7818608E-02  0.1144101E+00
         21   -1    0    0  501  502  0.00000000000E+00  0.00000000000E+00  0.11407993301E+04  0.11407993301E+04  0.00000000000E+00 0.  1.
         21   -1    0    0  502  503 -0.00000000000E+00 -0.00000000000E+00 -0.13109244250E+03  0.13109244250E+03  0.00000000000E+00 0.  1.
         -6    2    1    2    0  503 -0.10659300506E+03 -0.42755548844E+02 -0.32762773583E+02  0.20908060487E+03  0.17161350271E+03 0.  0.
        -24    2    3    3    0    0 -0.12562844931E+03  0.70643659678E+01 -0.42677518751E+02  0.15463095637E+03  0.79100881915E+02 0.  0.
          6    2    1    2  501    0  0.10659300506E+03  0.42755548844E+02  0.10424696612E+04  0.10628111678E+04  0.17214667614E+03 0.  0.
         24    2    5    5    0    0  0.10375014653E+03 -0.25503433636E+02  0.77518931191E+03  0.78689769283E+03  0.82915569356E+02 0.  0.
          5    1    5    5  501    0  0.28428585346E+01  0.68258982480E+02  0.26728034930E+03  0.27591347494E+03  0.47000000000E+01 0. -1.
        -11    1    6    6    0    0  0.77207533610E+02 -0.15999063923E+02  0.72546266402E+03  0.72973491775E+03  0.00000000000E+00 0.  1.
         12    1    6    6    0    0  0.26542612920E+02 -0.95043697136E+01  0.49726647893E+02  0.57162775080E+02  0.00000000000E+00 0. -1.
         -5    1    3    3    0  503  0.19035444243E+02 -0.49819914811E+02  0.99147451682E+01  0.54449648494E+02  0.47000000000E+01 0.  1.
         11    1    4    4    0    0  0.68090828605E+01 -0.12942620634E+02 -0.55272579243E+01  0.15634117130E+02  0.00000000000E+00 0. -1.
        -12    1    4    4    0    0 -0.13243753217E+03  0.20006986602E+02 -0.37150260827E+02  0.13899683924E+03  0.00000000000E+00 0.  1.
</event>
<event>
12    1  0.8493057E-002  0.1968844E+03  0.7818608E-02  0.1152888E+00
         21   -1    0    0  503  502  0.00000000000E+00  0.00000000000E+00  0.18585575612E+03  0.18585575612E+03  0.00000000000E+00 0. -1.
         21   -1    0    0  501  503 -0.00000000000E+00 -0.00000000000E+00 -0.20643648423E+03  0.20643648423E+03  0.00000000000E+00 0. -1.
          6    2    1    2  501    0 -0.92731899465E+02  0.26929968331E+02 -0.31010829868E+01  0.19463346753E+03  0.16896195309E+03 0.  0.
         24    2    3    3    0    0 -0.46008619170E+02  0.36749533351E+02 -0.62671219211E+02  0.11814699873E+03  0.81016728846E+02 0.  0.
         -6    2    1    2    0  502  0.92731899465E+02 -0.26929968331E+02 -0.17479645123E+02  0.19765877283E+03  0.17157804088E+03 0.  0.
        -24    2    5    5    0    0  0.90124142709E+02  0.30272501086E+02 -0.47878558041E+02  0.13265795123E+03  0.79164324558E+02 0.  0.
          5    1    3    3  501    0 -0.46723280295E+02 -0.98195650200E+01  0.59570136224E+02  0.76486468793E+02  0.47000000000E+01 0. -1.
        -11    1    4    4    0    0 -0.11010324333E+02  0.56150929803E+02 -0.50508052357E+02  0.76323112571E+02  0.00000000000E+00 0.  1.
         12    1    4    4    0    0 -0.34998294837E+02 -0.19401396452E+02 -0.12163166854E+02  0.41823886162E+02  0.00000000000E+00 0. -1.
         -5    1    5    5    0  502  0.26077567560E+01 -0.57202469416E+02  0.30398912917E+02  0.65000821604E+02  0.47000000000E+01 0.  1.
         13    1    6    6    0    0  0.83447517054E+02  0.25290605998E+02 -0.32476323572E+01  0.87256231698E+02  0.00000000000E+00 0. -1.
        -14    1    6    6    0    0  0.66766256548E+01  0.49818950873E+01 -0.44630925683E+02  0.45401719529E+02  0.00000000000E+00 0.  1.
</event>
<event>
12    1  0.8493057E-002  0.3733099E+03  0.7818608E-02  0.1053452E+00
         21   -1    0    0  503  502  0.00000000000E+00  0.00000000000E+00  0.57248171572E+03  0.57248171572E+03  0.00000000000E+00 0. -1.
         21   -1    0    0  501  503 -0.00000000000E+00 -0.00000000000E+00 -0.37696376695E+03  0.37696376695E+03  0.00000000000E+00 0.  1.
          6    2    1    2  501    0 -0.15763311804E+03 -0.29088906980E+03 -0.18489222224E+03  0.41658781154E+03  0.17290349922E+03 0.  0.
         24    2    3    3    0    0 -0.13045453844E+03 -0.24638471421E+03 -0.21034383910E+03  0.35837108150E+03  0.80383377705E+02 0.  0.
         -6    2    1    2    0  502  0.15763311804E+03  0.29088906980E+03  0.38041017101E+03  0.53285767113E+03  0.17251303903E+03 0.  0.
        -24    2    5    5    0    0  0.11397625767E+02  0.69815174220E+02  0.85882464989E+02  0.13659116217E+03  0.79229308751E+02 0.  0.
          5    1    3    3  501    0 -0.27178579603E+02 -0.44504355595E+02  0.25451616858E+02  0.58216730043E+02  0.47000000000E+01 0. -1.
        -11    1    4    4    0    0 -0.25125600784E+02 -0.11549964433E+03 -0.58362191563E+02  0.13182415962E+03  0.00000000000E+00 0.  1.
         12    1    4    4    0    0 -0.10532893766E+03 -0.13088506988E+03 -0.15198164754E+03  0.22654692188E+03  0.00000000000E+00 0. -1.
         -5    1    5    5    0  502  0.14623549228E+03  0.22107389558E+03  0.29452770602E+03  0.39626650896E+03  0.47000000000E+01 0.  1.
         11    1    6    6    0    0  0.21502301946E+02  0.12389098241E+02 -0.80012898047E+01  0.26074113269E+02  0.00000000000E+00 0. -1.
        -12    1    6    6    0    0 -0.10104676179E+02  0.57426075979E+02  0.93883754794E+02  0.11051704890E+03  0.00000000000E+00 0.  1.
</event>
<event>
12    1  0.8493057E-002  0.2150527E+03  0.7818608E-02  0.1137815E+00
         21   -1    0    0  501  502  0.00000000000E+00  0.00000000000E+00  0.89473412377E+02  0.89473412377E+02  0.00000000000E+00 0.  1.
         21   -1    0    0  502  503 -0.00000000000E+00 -0.00000000000E+00 -0.89189045864E+03  0.89189045864E+03  0.00000000000E+00 0.  1.
         -6    2    1    2    0  503 -0.12613137439E+03  0.23926560330E+02 -0.71984798147E+03  0.75100473369E+03  0.17130496112E+03 0.  0.
        -24    2    3    3    0    0 -0.62958670007E+02  0.65635517153E+02 -0.28534142060E+03  0.30992824475E+03  0.79774528150E+02 0.  0.
          6    2    1    2  501    0  0.12613137439E+03 -0.23926560330E+02 -0.82569064796E+02  0.23035913733E+03  0.17252848401E+03 0.  0.
         24    2    5    5    0    0  0.39240921209E+02 -0.55824819724E+02  0.87818000985E+01  0.10022643459E+03  0.72883179009E+02 0.  0.
          5    1    5    5  501    0  0.86890453182E+02  0.31898259394E+02 -0.91350864894E+02  0.13013270274E+03  0.47000000000E+01 0. -1.
        -11    1    6    6    0    0  0.16229447538E+02  0.11488710703E+02  0.20007612396E+02  0.28207977502E+02  0.00000000000E+00 0.  1.
         12    1    6    6    0    0  0.23011473672E+02 -0.67313530427E+02 -0.11225812297E+02  0.72018457084E+02  0.00000000000E+00 0. -1.
         -5    1    3    3    0  503 -0.63172704384E+02 -0.41708956822E+02 -0.43450656086E+03  0.44107648894E+03  0.47000000000E+01 0.  1.
         13    1    4    4    0    0 -0.69930040794E+02  0.62344414572E+02 -0.16818237784E+03  0.19251584051E+03  0.00000000000E+00 0. -1.
        -14    1    4    4    0    0  0.69713707861E+01  0.32911025803E+01 -0.11715904277E+03  0.11741240424E+03  0.00000000000E+00 0.  1.
</event>
<event>
12    1  0.8493057E-002  0.2288189E+03  0.7818608E-02  0.1129424E+00
         21   -1    0    0  503  502  0.00000000000E+00  0.00000000000E+00  0.13792691070E+03  0.13792691070E+03  0.00000000000E+00 0.  1.
         21   -1    0    0  501  503 -0.00000000000E+00 -0.00000000000E+00 -0.73261748590E+03  0.73261748590E+03  0.00000000000E+00 0. -1.
          6    2    1    2  501    0 -0.44970422950E+02 -0.12745301637E+03 -0.61041146138E+03  0.65188975260E+03  0.18463880154E+03 0.  0.
         24    2    3    3    0    0  0.56057203225E+01 -0.13292509928E+03 -0.30999663418E+03  0.34716192590E+03  0.81993801445E+02 0.  0.
         -6    2    1    2    0  502  0.44970422950E+02  0.12745301637E+03  0.15720886185E+02  0.21865464400E+03  0.17116102581E+03 0.  0.
        -24    2    5    5    0    0 -0.41306462685E+02  0.51497162474E+02  0.23964485689E+02  0.10331584017E+03  0.75773904828E+02 0.  0.
          5    1    3    3  501    0 -0.50576143272E+02  0.54720829100E+01 -0.30041482720E+03  0.30472782670E+03  0.47000000000E+01 0. -1.
        -13    1    4    4    0    0 -0.94640564776E+01 -0.49318594691E+02 -0.40262615147E+02  0.64365909656E+02  0.00000000000E+00 0.  1.
         14    1    4    4    0    0  0.15069776800E+02 -0.83606504590E+02 -0.26973401903E+03  0.28279601625E+03  0.00000000000E+00 0. -1.
         -5    1    5    5    0  502  0.86276885635E+02  0.75955853897E+02 -0.82435995041E+01  0.11533880383E+03  0.47000000000E+01 0.  1.
         11    1    6    6    0    0 -0.29306772188E+02  0.18699029979E+02 -0.25251718637E+02  0.42967312138E+02  0.00000000000E+00 0. -1.
        -12    1    6    6    0    0 -0.11999690497E+02  0.32798132495E+02  0.49216204326E+02  0.60348528030E+02  0.00000000000E+00 0.  1.
</event>
<event>
12    1  0.8493057E-002  0.2058397E+03  0.7818608E-02  0.1145037E+00
         21   -1    0    0  503  502  0.00000000000E+00  0.00000000000E+00  0.52456654458E+02  0.52456654458E+02  0.00000000000E+00 0. -1.
         21   -1    0    0  501  503 -0.00000000000E+00 -0.00000000000E+00 -0.80882981785E+03  0.80882981785E+03  0.00000000000E+00 0. -1.
          6    2    1    2  501    0  0.93197539225E+02  0.62957239147E+02 -0.34969523728E+03  0.40577917879E+03  0.17239659999E+03 0.  0.
         24    2    3    3    0    0  0.43373463604E+01  0.21062399662E+02 -0.25361386783E+03  0.26828361157E+03  0.84815476336E+02 0.  0.
         -6    2    1    2    0  502 -0.93197539225E+02 -0.62957239147E+02 -0.40667792611E+03  0.45550729352E+03  0.17161166504E+03 0.  0.
        -24    2    5    5    0    0 -0.13608128219E+02  0.22932890669E+02 -0.15061856950E+03  0.17390460735E+03  0.82739110174E+02 0.  0.
          5    1    3    3  501    0  0.88860192864E+02  0.41894839485E+02 -0.96081369441E+02  0.13749556722E+03  0.47000000000E+01 0. -1.
        -11    1    4    4    0    0 -0.15882098114E+02  0.48746866088E+02 -0.17849075470E+03  0.18570796296E+03  0.00000000000E+00 0.  1.
         12    1    4    4    0    0  0.20219444474E+02 -0.27684466426E+02 -0.75123113135E+02  0.82575648609E+02  0.00000000000E+00 0. -1.
         -5    1    5    5    0  502 -0.79589411006E+02 -0.85890129816E+02 -0.25605935661E+03  0.28160268616E+03  0.47000000000E+01 0.  1.
         11    1    6    6    0    0 -0.44901624208E+02  0.61692655942E+01 -0.11502912630E+03  0.12363622281E+03  0.00000000000E+00 0. -1.
        -12    1    6    6    0    0  0.31293495989E+02  0.16763625075E+02 -0.35589443201E+02  0.50268384540E+02  0.00000000000E+00 0.  1.
</event>
<event>
12    1  0.8493057E-002  0.2245235E+03  0.7818608E-02  0.1130680E+00
         21   -1    0    0  503  502  0.00000000000E+00  0.00000000000E+00  0.10934786790E+04  0.10934786790E+04  0.00000000000E+00 0. -1.
         21   -1    0    0  501  503 -0.00000000000E+00 -0.00000000000E+00 -0.72042605949E+02  0.72042605949E+02  0.00000000000E+00 0. -1.
          6    2    1    2  501    0 -0.12786692797E+03 -0.66331397925E+02  0.16057200260E+03  0.27603290367E+03  0.17222366350E+03 0.  0.
         24    2    3    3    0    0 -0.11581766329E+03 -0.49454268528E+02  0.41432048358E+02  0.15501042240E+03  0.80325342308E+02 0.  0.
         -6    2    1    2    0  502  0.12786692797E+03  0.66331397925E+02  0.86086407041E+03  0.88948838124E+03  0.17132666754E+03 0.  0.
        -24    2    5    5    0    0  0.84202533516E+02  0.52875262751E+02  0.28980126690E+03  0.31658135347E+03  0.79706455214E+02 0.  0.
          5    1    3    3  501    0 -0.12049264686E+02 -0.16877129397E+02  0.11913995424E+03  0.12102248127E+03  0.47000000000E+01 0. -1.
        -13    1    4    4    0    0 -0.20358662016E+02 -0.49762685532E+02  0.18218616859E+02  0.56768987931E+02  0.00000000000E+00 0.  1.
         14    1    4    4    0    0 -0.95459001272E+02  0.30841700407E+00  0.23213431499E+02  0.98241434471E+02  0.00000000000E+00 0. -1.
         -5    1    5    5    0  502  0.43664394459E+02  0.13456135174E+02  0.57106280351E+03  0.57290702777E+03  0.47000000000E+01 0.  1.
         11    1    6    6    0    0  0.20608086178E+02  0.57133205087E+02  0.17547244703E+03  0.18568649926E+03  0.00000000000E+00 0. -1.
        -12    1    6    6    0    0  0.63594447338E+02 -0.42579423359E+01  0.11432881987E+03  0.13089485421E+03  0.00000000000E+00 0.  1.
</event>
<event>
12    1  0.8493057E-002  0.2054886E+03  0.7818608E-02  0.1145306E+00
         21   -1    0    0  501  502  0.00000000000E+00  0.00000000000E+00  0.24680013191E+03  0.24680013191E+03  0.00000000000E+00 0. -1.
         21   -1    0    0  502  503 -0.00000000000E+00 -0.00000000000E+00 -0.49391990840E+03  0.49391990840E+03  0.00000000000E+00 0. -1.
         -6    2    1    2    0  503  0.11182515581E+03 -0.15572981945E+01 -0.42326159948E+03  0.47050603949E+03  0.17238985164E+03 0.  0.
        -24    2    3    3    0    0  0.68989805058E+02  0.58177081319E+02 -0.18309956895E+03  0.21930302541E+03  0.80151099886E+02 0.  0.
          6    2    1    2  501    0 -0.11182515581E+03  0.15572981945E+01  0.17614182299E+03  0.27021400083E+03  0.17170432081E+03 0.  0.
         24    2    5    5    0    0  0.61088933187E+00 -0.34901539077E+02  0.99635439947E+02  0.12933665095E+03  0.74714508425E+02 0.  0.
          5    1    5    5  501    0 -0.11243604514E+03  0.36458837272E+02  0.76506383048E+02  0.14087734988E+03  0.47000000000E+01 0. -1.
        -13    1    6    6    0    0 -0.65740558597E+01 -0.56598170654E+02  0.84530025757E+02  0.10194065129E+03  0.00000000000E+00 0.  1.
         14    1    6    6    0    0  0.71849451916E+01  0.21696631576E+02  0.15105414189E+02  0.27395999653E+02  0.00000000000E+00 0. -1.
         -5    1    3    3    0  503  0.42835350751E+02 -0.59734379513E+02 -0.24016203053E+03  0.25120301407E+03  0.47000000000E+01 0.  1.
         13    1    4    4    0    0  0.19434049809E+02 -0.16518143014E+02 -0.17287366921E+02  0.30812081976E+02  0.00000000000E+00 0. -1.
        -14    1    4    4    0    0  0.49555755248E+02  0.74695224332E+02 -0.16581220203E+03  0.18849094344E+03  0.00000000000E+00 0.  1.
</event>
<event>
12    1  0.8493057E-002  0.1802682E+03  0.7818608E-02  0.1168982E+00
         21   -1    0    0  501  502  0.00000000000E+00  0.00000000000E+00  0.64598868363E+03  0.64598868363E+03  0.00000000000E+00 0.  1.
         21   -1    0    0  502  503 -0.00000000000E+00 -0.00000000000E+00 -0.64745860836E+02  0.64745860836E+02  0.00000000000E+00 0.  1.
         -6    2    1    2    0  503  0.26965002820E+02  0.45434030936E+02  0.11004259456E+03  0.20622857052E+03  0.16622120243E+03 0.  0.
        -24    2    3    3    0    0  0.28252411514E+02  0.91001808908E+02  0.58843585976E+02  0.13751533824E+03  0.79802084303E+02 0.  0.
          6    2    1    2  501    0 -0.26965002820E+02 -0.45434030936E+02  0.47120022824E+03  0.50450597396E+03  0.17235213987E+03 0.  0.
         24    2    5    5    0    0 -0.49659214181E+02 -0.59325123002E+02  0.46230846897E+03  0.47606053406E+03  0.83180549615E+02 0.  0.
          5    1    5    5  501    0  0.22694211361E+02  0.13891092066E+02  0.88917592748E+01  0.28445439900E+02  0.47000000000E+01 0. -1.
        -11    1    6    6    0    0 -0.34147872450E+02  0.14968907691E+02  0.17204648702E+03  0.17604016328E+03  0.00000000000E+00 0.  1.
         12    1    6    6    0    0 -0.15511341732E+02 -0.74294030693E+02  0.29026198195E+03  0.30002037078E+03  0.00000000000E+00 0. -1.
         -5    1    3    3    0  503 -0.12874086938E+01 -0.45567777972E+02  0.51199008581E+02  0.68713232278E+02  0.47000000000E+01 0.  1.
         11    1    4    4    0    0 -0.10284077612E+02 -0.10511172191E+02  0.13091194302E+02  0.19688229006E+02  0.00000000000E+00 0. -1.
        -12    1    4    4    0    0  0.38536489126E+02  0.10151298110E+03  0.45752391674E+02  0.11782710923E+03  0.00000000000E+00 0.  1.
</event>
<event>
12    1  0.8493057E-002  0.1992462E+03  0.7818608E-02  0.1150474E+00
         21   -1    0    0  503  502  0.00000000000E+00  0.00000000000E+00  0.27401636863E+03  0.27401636863E+03  0.00000000000E+00 0.  1.
         21   -1    0    0  501  503 -0.00000000000E+00 -0.00000000000E+00 -0.14672410486E+03  0.14672410486E+03  0.00000000000E+00 0.  1.
          6    2    1    2  501    0  0.32391591464E+02 -0.94191936035E+02  0.38076102898E+02  0.20285180784E+03  0.17256225056E+03 0.  0.
         24    2    3    3    0    0 -0.22520518862E+02 -0.96057320030E+02 -0.16552627537E+02  0.12522959641E+03  0.75327815830E+02 0.  0.
         -6    2    1    2    0  502 -0.32391591464E+02  0.94191936035E+02  0.89216160870E+02  0.21788866565E+03  0.17203084388E+03 0.  0.
        -24    2    5    5    0    0  0.40645249131E+02  0.66738355207E+02  0.85761483153E+02  0.13964479060E+03  0.77714806936E+02 0.  0.
          5    1    3    3  501    0  0.54912110326E+02  0.18653839952E+01  0.54628730435E+02  0.77622211427E+02  0.47000000000E+01 0. -1.
        -13    1    4    4    0    0 -0.40003732619E+01 -0.82123676053E+02  0.17476329720E+02  0.84057856594E+02  0.00000000000E+00 0.  1.
         14    1    4    4    0    0 -0.18520145600E+02 -0.13933643977E+02 -0.34028957257E+02  0.41171739817E+02  0.00000000000E+00 0. -1.
         -5    1    5    5    0  502 -0.73036840595E+02  0.27453580828E+02  0.34546777175E+01  0.78243875048E+02  0.47000000000E+01 0.  1.
         13    1    6    6    0    0  0.40762397947E+02  0.26010425843E+02  0.86288597116E+02  0.98913281874E+02  0.00000000000E+00 0. -1.
        -14    1    6    6    0    0 -0.11714881606E+00  0.40727929363E+02 -0.52711396312E+00  0.40731508727E+02  0.00000000000E+00 0.  1.
</event>
<event>
12    1  0.8493057E-002  0.1885831E+03  0.7818608E-02  0.1159811E+00
         21   -1    0    0  503  502  0.00000000000E+00  0.00000000000E+00  0.36574437901E+03  0.36574437901E+03  0.00000000000E+00 0.  1.
         21   -1    0    0  501  503 -0.00000000000E+00 -0.00000000000E+00 -0.15249734989E+03  0.15249734989E+03  0.00000000000E+00 0. -1.
          6    2    1    2  501    0 -0.38228733833E+02  0.67201193758E+02 -0.49518208378E+02  0.19497602061E+03  0.17200627639E+03 0.  0.
         24    2    3    3    0    0 -0.78414544636E+02  0.84857026274E+02 -0.48903834035E+02  0.15082746154E+03  0.83712498788E+02 0.  0.
         -6    2    1    2    0  502  0.38228733833E+02 -0.67201193758E+02  0.26276523750E+03  0.32326570828E+03  0.17169074402E+03 0.  0.
        -24    2    5    5    0    0 -0.25490211005E+02 -0.86954023679E+02  0.17722443728E+03  0.21468579889E+03  0.80440897475E+02 0.  0.
          5    1    3    3  501    0  0.40185810803E+02 -0.17655832516E+02 -0.61437434256E+00  0.44148559065E+02  0.47000000000E+01 0. -1.
        -13    1    4    4    0    0 -0.10535110854E+02 -0.99522891235E+01 -0.29161535343E+02  0.32564271266E+02  0.00000000000E+00 0.  1.
         14    1    4    4    0    0 -0.67879433782E+02  0.94809315397E+02 -0.19742298692E+02  0.11826319028E+03  0.00000000000E+00 0. -1.
         -5    1    5    5    0  502  0.63718944838E+02  0.19752829921E+02  0.85540800222E+02  0.10857990939E+03  0.47000000000E+01 0.  1.
         13    1    6    6    0    0 -0.27661761020E+02  0.58497067381E+01  0.44391105671E+02  0.52630431827E+02  0.00000000000E+00 0. -1.
        -14    1    6    6    0    0  0.21715500147E+01 -0.92803730418E+02  0.13283333160E+03  0.16205536706E+03  0.00000000000E+00 0.  1.
</event>
<event>
12    1  0.8493057E-002  0.2088195E+03  0.7818608E-02  0.1142532E+00
         21   -1    0    0  501  502  0.00000000000E+00  0.00000000000E+00  0.26642994505E+03  0.26642994505E+03  0.00000000000E+00 0.  1.
         21   -1    0    0  502  503 -0.00000000000E+00 -0.00000000000E+00 -0.68150254438E+03  0.68150254438E+03  0.00000000000E+00 0. -1.
         -6    2    1    2    0  503  0.84478218341E+02 -0.82250447730E+02 -0.62074898412E+03  0.65493119038E+03  0.17234807026E+03 0.  0.
        -24    2    3    3    0    0  0.32950821471E+02 -0.63832659378E+02 -0.17096107421E+03  0.20180257568E+03  0.79600412180E+02 0.  0.
          6    2    1    2  501    0 -0.84478218341E+02  0.82250447730E+02  0.20567638478E+03  0.29300129905E+03  0.17217804872E+03 0.  0.
         24    2    5    5    0    0 -0.80274287515E+02 -0.21680684503E+01  0.15993307203E+03  0.19677916246E+03  0.81821693280E+02 0.  0.
          5    1    5    5  501    0 -0.42039308258E+01  0.84418516181E+02  0.45743312748E+02  0.96222136589E+02  0.47000000000E+01 0. -1.
        -11    1    6    6    0    0 -0.20469352792E+02  0.33521028477E+02  0.89445746397E+02  0.97689279363E+02  0.00000000000E+00 0.  1.
         12    1    6    6    0    0 -0.59804934723E+02 -0.35689096928E+02  0.70487325637E+02  0.99089883097E+02  0.00000000000E+00 0. -1.
         -5    1    3    3    0  503  0.51527396870E+02 -0.18417788352E+02 -0.44978790991E+03  0.45312861470E+03  0.47000000000E+01 0.  1.
         13    1    4    4    0    0  0.57741587958E+02 -0.29445206126E+02 -0.10496143123E+03  0.12336131156E+03  0.00000000000E+00 0. -1.
        -14    1    4    4    0    0 -0.24790766487E+02 -0.34387453252E+02 -0.65999642980E+02  0.78441264125E+02  0.00000000000E+00 0.  1.
</event>
<event>
12    1  0.8493057E-002  0.1904480E+03  0.7818608E-02  0.1161957E+00
         21   -1    0    0  501  502  0.00000000000E+00  0.00000000000E+00  0.18705656472E+03  0.18705656472E+03  0.00000000000E+00 0.  1.
         21   -1    0    0  502  503 -0.00000000000E+00 -0.00000000000E+00 -0.56977320017E+03  0.56977320017E+03  0.00000000000E+00 0.  1.
         -6    2    1    2    0  503 -0.47984700253E+02 -0.26026769511E+02 -0.50256503356E+03  0.53180958054E+03  0.16513598277E+03 0.  0.
        -24    2    3    3    0    0  0.32786673993E+02 -0.16724575591E+02 -0.21125201940E+03  0.22932667536E+03  0.81293486257E+02 0.  0.
          6    2    1    2  501    0  0.47984700253E+02  0.26026769511E+02  0.11984839811E+03  0.22502018435E+03  0.18245690079E+03 0.  0.
         24    2    5    5    0    0  0.24906658103E+02  0.86598025182E+02  0.49468925332E+02  0.12922439513E+03  0.78308429559E+02 0.  0.
          5    1    5    5  501    0  0.23078042150E+02 -0.60571255671E+02  0.70379472778E+02  0.95795789216E+02  0.47000000000E+01 0. -1.
        -13    1    6    6    0    0 -0.11845012805E+01  0.65962629290E+02  0.64908864274E+02  0.92550700524E+02  0.00000000000E+00 0.  1.
         14    1    6    6    0    0  0.26091159383E+02  0.20635395892E+02 -0.15439938942E+02  0.36673694607E+02  0.00000000000E+00 0. -1.
         -5    1    3    3    0  503 -0.80771374246E+02 -0.93021939207E+01 -0.29131301416E+03  0.30248290518E+03  0.47000000000E+01 0.  1.
         13    1    4    4    0    0  0.16425481056E+01 -0.11185729813E+02  0.38255115194E+01  0.11935369878E+02  0.00000000000E+00 0. -1.
        -14    1    4    4    0    0  0.31144125887E+02 -0.55388457771E+01 -0.21507753092E+03  0.21739130548E+03  0.00000000000E+00 0.  1.
</event>
<event>
12    1  0.8493057E-002  0.1916917E+03  0.7818608E-02  0.1157863E+00
         21   -1    0    0  501  502  0.00000000000E+00  0.00000000000E+00  0.45470690192E+03  0.45470690192E+03  0.00000000000E+00 0.  1.
         21   -1    0    0  502  503 -0.00000000000E+00 -0.00000000000E+00 -0.79111581530E+02  0.79111581530E+02  0.00000000000E+00 0.  1.
         -6    2    1    2    0  503 -0.78969349639E+02  0.18662386630E+00  0.19237122140E+03  0.27157389019E+03  0.17466968253E+03 0.  0.
        -24    2    3    3    0    0 -0.19874406227E+02  0.20104532029E+02  0.19044375793E+03  0.20900600291E+03  0.81335724549E+02 0.  0.
          6    2    1    2  501    0  0.78969349639E+02 -0.18662386630E+00  0.18322409899E+03  0.26224459327E+03  0.17019096109E+03 0.  0.
         24    2    5    5    0    0  0.37352764629E+02 -0.35209069842E+02  0.18469726755E+03  0.20762983248E+03  0.79763143575E+02 0.  0.
          5    1    5    5  501    0  0.41616585010E+02  0.35022445976E+02 -0.14731685535E+01  0.54614760785E+02  0.47000000000E+01 0. -1.
        -13    1    6    6    0    0  0.59598886690E+02 -0.36420071975E+02  0.11594219753E+03  0.13535524410E+03  0.00000000000E+00 0.  1.
         14    1    6    6    0    0 -0.22246122061E+02  0.12110021327E+01  0.68755070013E+02  0.72274588380E+02  0.00000000000E+00 0. -1.
         -5    1    3    3    0  503 -0.59094943412E+02 -0.19917908163E+02  0.19274634719E+01  0.62567887274E+02  0.47000000000E+01 0.  1.
         11    1    4    4    0    0 -0.34390607477E+02 -0.14649403934E+02  0.14619485042E+03  0.15089815508E+03  0.00000000000E+00 0. -1.
        -12    1    4    4    0    0  0.14516201250E+02  0.34753935963E+02  0.44248907514E+02  0.58107847833E+02  0.00000000000E+00 0.  1.
</event>
<event>
12    1  0.8493057E-002  0.2190411E+03  0.7818608E-02  0.1134828E+00
         21   -1    0    0  503  502  0.00000000000E+00  0.00000000000E+00  0.78787216308E+03  0.78787216308E+03  0.00000000000E+00 0. -1.
         21   -1    0    0  501  503 -0.00000000000E+00 -0.00000000000E+00 -0.10549553496E+03  0.10549553496E+03  0.00000000000E+00 0. -1.
          6    2    1    2  501    0  0.13563469668E+03 -0.40457391024E+01  0.63217083088E+03  0.66864648269E+03  0.17039665620E+03 0.  0.
         24    2    3    3    0    0  0.14997890495E+03  0.82669206084E+01  0.62524527604E+03  0.64797255684E+03  0.79842127377E+02 0.  0.
         -6    2    1    2    0  502 -0.13563469668E+03  0.40457391024E+01  0.50205797243E+02  0.22472121535E+03  0.17194726984E+03 0.  0.
        -24    2    5    5    0    0 -0.57681767366E+02 -0.47816647297E+02  0.68578331233E+02  0.12919108232E+03  0.79835644866E+02 0.  0.
          5    1    3    3  501    0 -0.14344208274E+02 -0.12312659711E+02  0.69255548485E+01  0.20673925851E+02  0.47000000000E+01 0. -1.
        -11    1    4    4    0    0 -0.18346517715E+01  0.14914138944E+02  0.28927349455E+02  0.32597377718E+02  0.00000000000E+00 0.  1.
         12    1    4    4    0    0  0.15181355673E+03 -0.66472183358E+01  0.59631792658E+03  0.61537517912E+03  0.00000000000E+00 0. -1.
         -5    1    5    5    0  502 -0.77952929315E+02  0.51862386400E+02 -0.18372533990E+02  0.95530133031E+02  0.47000000000E+01 0.  1.
         11    1    6    6    0    0 -0.34031478339E+02 -0.69296069917E+02  0.43808421945E+02  0.88765222116E+02  0.00000000000E+00 0. -1.
        -12    1    6    6    0    0 -0.23650289027E+02  0.21479422620E+02  0.24769909288E+02  0.40425860205E+02  0.00000000000E+00 0.  1.
</event>
<event>
12    1  0.8493057E-002  0.1839399E+03  0.7818608E-02  0.1165082E+00
         21   -1    0    0  501  502  0.00000000000E+00  0.00000000000E+00  0.35150714756E+03  0.35150714756E+03  0.00000000000E+00 0. -1.
         21   -1    0    0  502  503 -0.00000000000E+00 -0.00000000000E+00 -0.94245661661E+02  0.94245661661E+02  0.00000000000E+00 0.  1.
         -6    2    1    2    0  503 -0.35842592517E+01  0.57958017639E+02  0.11846761667E+03  0.21878864028E+03  0.17453341855E+03 0.  0.
        -24    2    3    3    0    0 -0.38708525148E+02  0.68802563788E+02  0.13689140858E+03  0.17740211657E+03  0.80623262874E+02 0.  0.
          6    2    1    2  501    0  0.35842592517E+01 -0.57958017639E+02  0.13879386922E+03  0.22696416894E+03  0.16993238987E+03 0.  0.
         24    2    5    5    0    0  0.59072543286E+02 -0.18756905619E+02  0.45862569646E+02  0.11175135156E+03  0.80892536130E+02 0.  0.
          5    1    5    5  501    0 -0.55488284034E+02 -0.39201112020E+02  0.92931299576E+02  0.11521281738E+03  0.47000000000E+01 0. -1.
        -11    1    6    6    0    0  0.20553506424E+02  0.66349568762E+01 -0.21257723784E+02  0.30304456761E+02  0.00000000000E+00 0.  1.
         12    1    6    6    0    0  0.38519036861E+02 -0.25391862496E+02  0.67120293431E+02  0.81446894796E+02  0.00000000000E+00 0. -1.
         -5    1    3    3    0  503  0.35124265896E+02 -0.10844546149E+02 -0.18423791913E+02  0.41386523705E+02  0.47000000000E+01 0.  1.
         13    1    4    4    0    0 -0.16654497317E+02 -0.96835379710E+01  0.67969217070E+02  0.70646710168E+02  0.00000000000E+00 0. -1.
        -14    1    4    4    0    0 -0.22054027831E+02  0.78486101759E+02  0.68922191515E+02  0.10675540640E+03  0.00000000000E+00 0.  1.
</event>
<event>
12    1  0.8493057E-002  0.2655032E+03  0.7818608E-02  0.1103925E+00
         21   -1    0    0  501  502  0.00000000000E+00  0.00000000000E+00  0.12738819574E+03  0.12738819574E+03  0.00000000000E+00 0.  1.
         21   -1    0    0  502  503 -0.00000000000E+00 -0.00000000000E+00 -0.84234534624E+03  0.84234534624E+03  0.00000000000E+00 0.  1.
         -6    2    1    2    0  503 -0.17784564159E+03 -0.95355822094E+02 -0.73309192510E+02  0.27543814153E+03  0.17254021869E+03 0.  0.
        -24    2    3    3    0    0 -0.36086111007E+02 -0.85557740555E+02 -0.40116423121E+02  0.12943945369E+03  0.80764536721E+02 0.  0.
          6    2    1    2  501    0  0.17784564159E+03  0.95355822094E+02 -0.64164795799E+03  0.69429540045E+03  0.17208194577E+03 0.  0.
         24    2    5    5    0    0  0.79238997183E+02 -0.11235484396E+02 -0.35743465306E+03  0.37510224633E+03  0.80852391487E+02 0.  0.
          5    1    5    5  501    0  0.98606644403E+02  0.10659130649E+03 -0.28421330492E+03  0.31919315412E+03  0.47000000000E+01 0. -1.
        -13    1    6    6    0    0  0.61153411416E+02  0.29233952376E+02 -0.24621887484E+03  0.25537834291E+03  0.00000000000E+00 0.  1.
         14    1    6    6    0    0  0.18085585766E+02 -0.40469436773E+02 -0.11121577822E+03  0.11972390342E+03  0.00000000000E+00 0. -1.
         -5    1    3    3    0  503 -0.14175953058E+03 -0.97980815396E+01 -0.33192769389E+02  0.14599868784E+03  0.47000000000E+01 0.  1.
         11    1    4    4    0    0 -0.94574318702E+01 -0.83592182665E+02 -0.36002092101E+01  0.84202479338E+02  0.00000000000E+00 0. -1.
        -12    1    4    4    0    0 -0.26628679137E+02 -0.19655578898E+01 -0.36516213911E+02  0.45236974355E+02  0.00000000000E+00 0.  1.
</event>
<event>
12    1  0.8493057E-002  0.2171096E+03  0.7818608E-02  0.1136272E+00
         21   -1    0    0  501  502  0.00000000000E+00  0.00000000000E+00  0.88978965119E+03  0.88978965119E+03  0.00000000000E+00 0. -1.
         21   -1    0    0  502  503 -0.00000000000E+00 -0.00000000000E+00 -0.67360185954E+02  0.67360185954E+02  0.00000000000E+00 0.  1.
         -6    2    1    2    0  503  0.18912258995E+02 -0.12959374258E+03  0.18878222039E+03  0.28770697390E+03  0.17315993890E+03 0.  0.
        -24    2    3    3    0    0  0.51395541683E+02 -0.14590071359E+03  0.17944996609E+03  0.24988817001E+03  0.79456197047E+02 0.  0.
          6    2    1    2  501    0 -0.18912258995E+02  0.12959374258E+03  0.63364724485E+03  0.66944286324E+03  0.17173440129E+03 0.  0.
         24    2    5    5    0    0  0.49252537352E+02  0.10483441996E+03  0.33276510194E+03  0.35990834588E+03  0.73384850766E+02 0.  0.
          5    1    5    5  501    0 -0.68164796347E+02  0.24759322626E+02  0.30088214290E+03  0.30953451736E+03  0.47000000000E+01 0. -1.
        -11    1    6    6    0    0  0.46861182999E+01  0.52314154137E+02  0.65757880485E+02  0.84159546539E+02  0.00000000000E+00 0.  1.
         12    1    6    6    0    0  0.44566419052E+02  0.52520265819E+02  0.26700722146E+03  0.27574879935E+03  0.00000000000E+00 0. -1.
         -5    1    3    3    0  503 -0.32483282689E+02  0.16306971009E+02  0.93322543001E+01  0.37818803895E+02  0.47000000000E+01 0.  1.
         13    1    4    4    0    0  0.52140834043E+02 -0.11876622123E+03  0.18102544429E+03  0.22269776236E+03  0.00000000000E+00 0. -1.
        -14    1    4    4    0    0 -0.74529236001E+00 -0.27134492365E+02 -0.15754782003E+01  0.27190407650E+02  0.00000000000E+00 0.  1.
</event>
<event>
12    1  0.8493057E-002  0.2635469E+03  0.7818608E-02  0.1105097E+00
         21   -1    0    0  503  502  0.00000000000E+00  0.00000000000E+00  0.38239483431E+03  0.38239483431E+03  0.00000000000E+00 0.  1.
         21   -1    0    0  501  503 -0.00000000000E+00 -0.00000000000E+00 -0.18172570226E+03  0.18172570226E+03  0.00000000000E+00 0.  1.
          6    2    1    2  501    0 -0.17647520106E+03  0.94225931712E+02  0.11345040710E+03  0.28651633425E+03  0.17087595538E+03 0.  0.
         24    2    3    3    0    0 -0.11758610700E+03  0.14323396956E+02  0.12063886111E+03  0.18688649770E+03  0.79631501006E+02 0.  0.
         -6    2    1    2    0  502  0.17647520106E+03 -0.94225931712E+02  0.87218724952E+02  0.27760420233E+03  0.17156620988E+03 0.  0.
        -24    2    5    5    0    0  0.18430493770E+03 -0.11483271795E+03  0.53956883141E+02  0.23742479796E+03  0.79399787626E+02 0.  0.
          5    1    3    3  501    0 -0.58889094057E+02  0.79902534757E+02 -0.71884540160E+01  0.99629836548E+02  0.47000000000E+01 0. -1.
        -11    1    4    4    0    0 -0.54440366836E+02  0.41101133335E+02  0.33510273133E+02  0.75999967816E+02  0.00000000000E+00 0.  1.
         12    1    4    4    0    0 -0.63145740164E+02 -0.26777736379E+02  0.87128587980E+02  0.11088652988E+03  0.00000000000E+00 0. -1.
         -5    1    5    5    0  502 -0.78297366424E+01  0.20606786235E+02  0.33261841811E+02  0.40179404370E+02  0.47000000000E+01 0.  1.
         11    1    6    6    0    0  0.20321912683E+02 -0.36985577417E+02 -0.12667949349E+02  0.44061207572E+02  0.00000000000E+00 0. -1.
        -12    1    6    6    0    0  0.16398302502E+03 -0.77847140530E+02  0.66624832490E+02  0.19336359039E+03  0.00000000000E+00 0.  1.
</event>
<event>
12    1  0.8493057E-002  0.2093452E+03  0.7818608E-02  0.1142443E+00
         21   -1    0    0  503  502  0.00000000000E+00  0.00000000000E+00  0.23266013745E+03  0.23266013745E+03  0.00000000000E+00 0.  1.
         21   -1    0    0  501  503 -0.00000000000E+00 -0.00000000000E+00 -0.23617586804E+03  0.23617586804E+03  0.00000000000E+00 0.  1.
          6    2    1    2  501    0  0.54965186533E+02  0.10676610029E+03 -0.10897994618E+03  0.23442590959E+03  0.16928882572E+03 0.  0.
         24    2    3    3    0    0  0.68016988180E+02  0.13531103211E+03 -0.10780214805E+03  0.20266681850E+03  0.80728867851E+02 0.  0.
         -6    2    1    2    0  502 -0.54965186533E+02 -0.10676610029E+03  0.10546421559E+03  0.23441009591E+03  0.17147950429E+03 0.  0.
        -24    2    5    5    0    0  0.32548119375E+02 -0.44586613365E+02  0.26183286490E+01  0.85667923788E+02  0.65458317691E+02 0.  0.
          5    1    3    3  501    0 -0.13051801647E+02 -0.28544931812E+02 -0.11777981331E+01  0.31759091089E+02  0.47000000000E+01 0. -1.
        -13    1    4    4    0    0  0.14118601755E+02  0.61303210926E+02 -0.89345804385E+02  0.10927072502E+03  0.00000000000E+00 0.  1.
         14    1    4    4    0    0  0.53898386425E+02  0.74007821180E+02 -0.18456343666E+02  0.93396093476E+02  0.00000000000E+00 0. -1.
         -5    1    5    5    0  502 -0.87513305909E+02 -0.62179486929E+02  0.10284588694E+03  0.14874217212E+03  0.47000000000E+01 0.  1.
         11    1    6    6    0    0 -0.17094235252E+02 -0.28846565698E+02  0.14903784623E+00  0.33531469453E+02  0.00000000000E+00 0. -1.
        -12    1    6    6    0    0  0.49642354627E+02 -0.15740047667E+02  0.24692908028E+01  0.52136454334E+02  0.00000000000E+00 0.  1.
</event>
<event>
12    1  0.8493057E-002  0.2238139E+03  0.7818608E-02  0.1133487E+00
         21   -1    0    0  503  502  0.00000000000E+00  0.00000000000E+00  0.27066468085E+02  0.27066468085E+02  0.00000000000E+00 0.  1.
         21   -1    0    0  501  503 -0.00000000000E+00 -0.00000000000E+00 -0.17642888098E+04  0.17642888098E+04  0.00000000000E+00 0.  1.
          6    2    1    2  501    0 -0.12462264847E+03 -0.18926842451E+02 -0.93421833959E+03  0.95774379697E+03  0.16917518950E+03 0.  0.
         24    2    3    3    0    0 -0.10709061614E+03 -0.32671069835E+02 -0.92158968518E+03  0.93170826633E+03  0.78847617885E+02 0.  0.
         -6    2    1    2    0  502  0.12462264847E+03  0.18926842451E+02 -0.80300400208E+03  0.83361148087E+03  0.18494227153E+03 0.  0.
        -24    2    5    5    0    0  0.44014637781E+02 -0.59010741629E+02 -0.45959457263E+03  0.47233036507E+03  0.80307201456E+02 0.  0.
          5    1    3    3  501    0 -0.17532032323E+02  0.13744227384E+02 -0.12628654409E+02  0.26035530644E+02  0.47000000000E+01 0. -1.
        -11    1    4    4    0    0 -0.10699019225E+03 -0.32324910522E+02 -0.61222401395E+03  0.62234238514E+03  0.00000000000E+00 0.  1.
         12    1    4    4    0    0 -0.10042388708E+00 -0.34615931291E+00 -0.30936567123E+03  0.30936588119E+03  0.00000000000E+00 0. -1.
         -5    1    5    5    0  502  0.80608010684E+02  0.77937584080E+02 -0.34340942945E+03  0.36128111580E+03  0.47000000000E+01 0.  1.
         13    1    6    6    0    0  0.23881278931E+02 -0.35107123409E+02 -0.41876763345E+03  0.42091466644E+03  0.00000000000E+00 0. -1.
        -14    1    6    6    0    0  0.20133358851E+02 -0.23903618219E+02 -0.40826939181E+02  0.51415698629E+02  0.00000000000E+00 0.  1.
</event>
<event>
12    1  0.8493057E-002  0.2075264E+03  0.7818608E-02  0.1143648E+00
         21   -1    0    0  501  502  0.00000000000E+00  0.00000000000E+00  0.33893479532E+03  0.33893479532E+03  0.00000000000E+00 0.  1.
         21   -1    0    0  502  503 -0.00000000000E+00 -0.00000000000E+00 -0.13347358603E+03  0.13347358603E+03  0.00000000000E+00 0.  1.
         -6    2    1    2    0  503  0.11470240629E+03  0.18983972030E+01  0.49794264028E+02  0.21341670406E+03  0.17293633199E+03 0.  0.
        -24    2    3    3    0    0  0.53150886571E+02 -0.45761716132E+02 -0.21496322101E+02  0.10775444186E+03  0.78928933038E+02 0.  0.
          6    2    1    2  501    0 -0.11470240629E+03 -0.18983972030E+01  0.15566694526E+03  0.25899167729E+03  0.17229116384E+03 0.  0.
         24    2    5    5    0    0 -0.76265332797E+02  0.34675915865E+02  0.27113540993E+02  0.11984011696E+03  0.81287695250E+02 0.  0.
          5    1    5    5  501    0 -0.38437073496E+02 -0.36574313068E+02  0.12855340426E+03  0.13915156033E+03  0.47000000000E+01 0. -1.
        -13    1    6    6    0    0 -0.30622618946E+02 -0.22346787563E+02  0.27441853726E+02  0.46799348729E+02  0.00000000000E+00 0.  1.
         14    1    6    6    0    0 -0.45642713851E+02  0.57022703428E+02 -0.32831273298E+00  0.73040768227E+02  0.00000000000E+00 0. -1.
         -5    1    3    3    0  503  0.61551519722E+02  0.47660113335E+02  0.71290586129E+02  0.10566226220E+03  0.47000000000E+01 0.  1.
         13    1    4    4    0    0  0.20472641770E+01 -0.37073398382E+02  0.19247060684E+02  0.41821973928E+02  0.00000000000E+00 0. -1.
        -14    1    4    4    0    0  0.51103622394E+02 -0.86883177491E+01 -0.40743382786E+02  0.65932467934E+02  0.00000000000E+00 0.  1.
</event>
<event>
12    1  0.8493057E-002  0.1957490E+03  0.7818608E-02  0.1153708E+00
         21   -1    0    0  501  502  0.00000000000E+00  0.00000000000E+00  0.42802812756E+03  0.42802812756E+03  0.00000000000E+00 0.  1.
         21   -1    0    0  502  503 -0.00000000000E+00 -0.00000000000E+00 -0.13005444177E+03  0.13005444177E+03  0.00000000000E+00 0.  1.
         -6    2    1    2    0  503 -0.82331589533E+02  0.41477624873E+02 -0.77245698613E+01  0.19590139311E+03  0.17268121740E+03 0.  0.
        -24    2    3    3    0    0 -0.73401093125E+02 -0.31855748170E+02  0.24509355893E+02  0.11516321542E+03  0.79116044487E+02 0.  0.
          6    2    1    2  501    0  0.82331589533E+02 -0.41477624873E+02  0.30569825565E+03  0.36218117622E+03  0.17095290843E+03 0.  0.
         24    2    5    5    0    0  0.34498397667E+02 -0.69580651226E+02  0.27760581439E+03  0.29981877096E+03  0.82429974932E+02 0.  0.
          5    1    5    5  501    0  0.47833191866E+02  0.28103026353E+02  0.28092441258E+02  0.62362405263E+02  0.47000000000E+01 0. -1.
        -13    1    6    6    0    0  0.48759130286E+02 -0.16973905413E+02  0.18779270314E+03  0.19476053400E+03  0.00000000000E+00 0.  1.
         14    1    6    6    0    0 -0.14260732619E+02 -0.52606745813E+02  0.89813111255E+02  0.10505823696E+03  0.00000000000E+00 0. -1.
         -5    1    3    3    0  503 -0.89304964083E+01  0.73333373043E+02 -0.32233925755E+02  0.80738177695E+02  0.47000000000E+01 0.  1.
         11    1    4    4    0    0  0.11718894753E+02 -0.11289035535E+02  0.22249378597E+02  0.27564645209E+02  0.00000000000E+00 0. -1.
        -12    1    4    4    0    0 -0.85119987878E+02 -0.20566712635E+02  0.22599772960E+01  0.87598570207E+02  0.00000000000E+00 0.  1.
</event>
<event>
12    1  0.8493057E-002  0.2883010E+03  0.7818608E-02  0.1091291E+00
         21   -1    0    0  503  502  0.00000000000E+00  0.00000000000E+00  0.22324617838E+03  0.22324617838E+03  0.00000000000E+00 0. -1.
         21   -1    0    0  501  503 -0.00000000000E+00 -0.00000000000E+00 -0.50629360224E+03  0.50629360224E+03  0.00000000000E+00 0.  1.
          6    2    1    2  501    0 -0.58816529107E+02 -0.22300526228E+03 -0.32944971277E+03  0.43752844203E+03  0.17234643380E+03 0.  0.
         24    2    3    3    0    0 -0.74470262748E+02 -0.23976287568E+03 -0.29663161922E+03  0.39721747270E+03  0.82215245008E+02 0.  0.
         -6    2    1    2    0  502  0.58816529107E+02  0.22300526228E+03  0.46402288912E+02  0.29201133859E+03  0.17299340551E+03 0.  0.
        -24    2    5    5    0    0  0.46881574468E+01  0.49232465503E+02  0.50718214926E+02  0.10989164516E+03  0.84012034083E+02 0.  0.
          5    1    3    3  501    0  0.15653733641E+02  0.16757613405E+02 -0.32818093552E+02  0.40310969330E+02  0.47000000000E+01 0. -1.
        -13    1    4    4    0    0 -0.59804141262E+02 -0.86334629782E+02 -0.15916634609E+03  0.19069381044E+03  0.00000000000E+00 0.  1.
         14    1    4    4    0    0 -0.14666121486E+02 -0.15342824590E+03 -0.13746527313E+03  0.20652366227E+03  0.00000000000E+00 0. -1.
         -5    1    5    5    0  502  0.54128371660E+02  0.17377279678E+03 -0.43159260137E+01  0.18211969343E+03  0.47000000000E+01 0.  1.
         13    1    6    6    0    0  0.20072373001E+02  0.67855166158E+02  0.26153687541E+02  0.75440301592E+02  0.00000000000E+00 0. -1.
        -14    1    6    6    0    0 -0.15384215555E+02 -0.18622700656E+02  0.24564527385E+02  0.34451343567E+02  0.00000000000E+00 0.  1.
</event>
<event>
12    1  0.8493057E-002  0.2936808E+03  0.7818608E-02  0.1088480E+00
         21   -1    0    0  503  502  0.00000000000E+00  0.00000000000E+00  0.63140299189E+02  0.63140299189E+02  0.00000000000E+00 0. -1.
         21   -1    0    0  501  503 -0.00000000000E+00 -0.00000000000E+00 -0.17180171983E+04  0.17180171983E+04  0.00000000000E+00 0.  1.
          6    2    1    2  501    0  0.22976267556E+03  0.61537207370E+02 -0.42385778966E+03  0.51565864861E+03  0.17225185357E+03 0.  0.
         24    2    3    3    0    0  0.68215673943E+02 -0.19763106408E+02 -0.20942436786E+03  0.23510391752E+03  0.79820596546E+02 0.  0.
         -6    2    1    2    0  502 -0.22976267556E+03 -0.61537207370E+02 -0.12310191095E+04  0.12654988489E+04  0.17176022156E+03 0.  0.
        -24    2    5    5    0    0 -0.16625728809E+03 -0.65080066522E+02 -0.57059065073E+03  0.60199803865E+03  0.70363676244E+02 0.  0.
          5    1    3    3  501    0  0.16154700162E+03  0.81300313778E+02 -0.21443342180E+03  0.28055473109E+03  0.47000000000E+01 0. -1.
        -13    1    4    4    0    0  0.11409883662E+02 -0.11556636617E+02 -0.15551574651E+03  0.15636140415E+03  0.00000000000E+00 0.  1.
         14    1    4    4    0    0  0.56805790280E+02 -0.82064697905E+01 -0.53908621349E+02  0.78742513368E+02  0.00000000000E+00 0. -1.
         -5    1    5    5    0  502 -0.63505387472E+02  0.35428591525E+01 -0.66042845873E+03  0.66350081024E+03  0.47000000000E+01 0.  1.
         11    1    6    6    0    0 -0.41043296938E+02 -0.50615173591E+02 -0.21937790359E+03  0.22885172624E+03  0.00000000000E+00 0. -1.
        -12    1    6    6    0    0 -0.12521399115E+03 -0.14464892932E+02 -0.35121274714E+03  0.37314631240E+03  0.00000000000E+00 0.  1.
</event>
<event>
12    1  0.8493057E-002  0.2363553E+03  0.7818608E-02  0.1122381E+00
         21   -1    0    0  501  502  0.00000000000E+00  0.00000000000E+00  0.61407252064E+03  0.61407252064E+03  0.00000000000E+00 0. -1.
         21   -1    0    0  502  503 -0.00000000000E+00 -0.00000000000E+00 -0.94109254538E+02  0.94109254538E+02  0.00000000000E+00 0. -1.
         -6    2    1    2    0  503  0.13599441965E+03  0.88054526373E+02  0.19181855338E+03  0.30377756496E+03  0.17099230907E+03 0.  0.
        -24    2    3    3    0    0  0.12480629930E+03  0.12617091335E+03  0.16962725931E+03  0.25803287646E+03  0.79447130315E+02 0.  0.
          6    2    1    2  501    0 -0.13599441965E+03 -0.88054526373E+02  0.32814471272E+03  0.40440421022E+03  0.17209221646E+03 0.  0.
         24    2    5    5    0    0 -0.60022092560E+02 -0.76298495957E+02  0.28224539976E+03  0.31474465599E+03  0.99888040863E+02 0.  0.
          5    1    5    5  501    0 -0.75972327086E+02 -0.11756030416E+02  0.45899312959E+02  0.89659554226E+02  0.47000000000E+01 0. -1.
        -13    1    6    6    0    0  0.26050864752E+02 -0.21718558019E+02  0.10433072158E+03  0.10970525413E+03  0.00000000000E+00 0.  1.
         14    1    6    6    0    0 -0.86072957312E+02 -0.54579937938E+02  0.17791467818E+03  0.20503940187E+03  0.00000000000E+00 0. -1.
         -5    1    3    3    0  503  0.11188120350E+02 -0.38116386975E+02  0.22191294068E+02  0.45744688494E+02  0.47000000000E+01 0.  1.
         11    1    4    4    0    0  0.63165094492E+02  0.35549066693E+02  0.25218180494E+02  0.76743220758E+02  0.00000000000E+00 0. -1.
        -12    1    4    4    0    0  0.61641204805E+02  0.90621846655E+02  0.14440907882E+03  0.18128965570E+03  0.00000000000E+00 0.  1.
</event>
<event>
12    1  0.8493057E-002  0.1969681E+03  0.7818608E-02  0.1153035E+00
         21   -1    0    0  503  502  0.00000000000E+00  0.00000000000E+00  0.40074299892E+03  0.40074299892E+03  0.00000000000E+00 0.  1.
         21   -1    0    0  501  503 -0.00000000000E+00 -0.00000000000E+00 -0.11053886420E+03  0.11053886420E+03  0.00000000000E+00 0.  1.
          6    2    1    2  501    0  0.86567314317E+02  0.29211292469E+02  0.50942025912E+02  0.20344904548E+03  0.17449706183E+03 0.  0.
         24    2    3    3    0    0  0.12282421425E+03  0.32777224997E+02  0.12155013447E+02  0.15002806642E+03  0.78743522131E+02 0.  0.
         -6    2    1    2    0  502 -0.86567314317E+02 -0.29211292469E+02  0.23926210881E+03  0.30783281764E+03  0.17078491557E+03 0.  0.
        -24    2    5    5    0    0 -0.33118639817E+02  0.27350758843E+02  0.20113300789E+03  0.22104603990E+03  0.81005904580E+02 0.  0.
          5    1    3    3  501    0 -0.36256899932E+02 -0.35659325277E+01  0.38787012465E+02  0.53420979057E+02  0.47000000000E+01 0. -1.
        -13    1    4    4    0    0  0.81912951453E+02  0.59444805332E+01 -0.27962043383E+02  0.86757964100E+02  0.00000000000E+00 0.  1.
         14    1    4    4    0    0  0.40911262796E+02  0.26832744464E+02  0.40117056830E+02  0.63270102321E+02  0.00000000000E+00 0. -1.
         -5    1    5    5    0  502 -0.53448674500E+02 -0.56562051312E+02  0.38129100917E+02  0.86786777744E+02  0.47000000000E+01 0.  1.
         11    1    6    6    0    0  0.26479676338E+02  0.14925853600E+02  0.57404374540E+02  0.64955496926E+02  0.00000000000E+00 0. -1.
        -12    1    6    6    0    0 -0.59598316155E+02  0.12424905243E+02  0.14372863335E+03  0.15609054297E+03  0.00000000000E+00 0.  1.
</event>
<event>
12    1  0.8493057E-002  0.1732059E+03  0.7818608E-02  0.1175255E+00
         21   -1    0    0  501  502  0.00000000000E+00  0.00000000000E+00  0.13610664334E+04  0.13610664334E+04  0.00000000000E+00 0.  1.
         21   -1    0    0  502  503 -0.00000000000E+00 -0.00000000000E+00 -0.35373859510E+02  0.35373859510E+02  0.00000000000E+00 0.  1.
         -6    2    1    2    0  503 -0.87507016093E+01  0.99414925988E+01  0.22534195076E+03  0.28254092835E+03  0.16992637631E+03 0.  0.
        -24    2    3    3    0    0  0.87486694021E+01  0.12111460736E+02  0.24349930493E+03  0.25679765237E+03  0.80186632693E+02 0.  0.
          6    2    1    2  501    0  0.87507016093E+01 -0.99414925988E+01  0.11003506231E+04  0.11138993645E+04  0.17269884912E+03 0.  0.
         24    2    5    5    0    0  0.66466575538E+02 -0.15956360994E+02  0.87357192730E+03  0.87976699253E+03  0.78674251662E+02 0.  0.
          5    1    5    5  501    0 -0.57715873929E+02  0.60148683955E+01  0.22677869581E+03  0.23413237200E+03  0.47000000000E+01 0. -1.
        -11    1    6    6    0    0 -0.15584895428E+02  0.14614739584E+01  0.26232404702E+03  0.26279065912E+03  0.00000000000E+00 0.  1.
         12    1    6    6    0    0  0.82051470966E+02 -0.17417834953E+02  0.61124788027E+03  0.61697633342E+03  0.00000000000E+00 0. -1.
         -5    1    3    3    0  503 -0.17499371011E+02 -0.21699681377E+01 -0.18157354174E+02  0.25743275979E+02  0.47000000000E+01 0.  1.
         13    1    4    4    0    0 -0.14632041842E+02 -0.78711667163E+01  0.65479826224E+01  0.17858555103E+02  0.00000000000E+00 0. -1.
        -14    1    4    4    0    0  0.23380711245E+02  0.19982627453E+02  0.23695132231E+03  0.23893909726E+03  0.00000000000E+00 0.  1.
</event>
<event>
12    1  0.8493057E-002  0.2409944E+03  0.7818608E-02  0.1119251E+00
         21   -1    0    0  503  502  0.00000000000E+00  0.00000000000E+00  0.28146598145E+03  0.28146598145E+03  0.00000000000E+00 0. -1.
         21   -1    0    0  501  503 -0.00000000000E+00 -0.00000000000E+00 -0.27293143793E+03  0.27293143793E+03  0.00000000000E+00 0.  1.
          6    2    1    2  501    0 -0.11286121603E+03 -0.12404960700E+03 -0.13328406515E+03  0.27477121143E+03  0.17207154771E+03 0.  0.
         24    2    3    3    0    0 -0.45043396501E+02 -0.35925859483E+02 -0.13122748291E+03  0.16345467604E+03  0.78595190065E+02 0.  0.
         -6    2    1    2    0  502  0.11286121603E+03  0.12404960700E+03  0.14181860867E+03  0.27962620795E+03  0.17306744156E+03 0.  0.
        -24    2    5    5    0    0  0.11524355484E+03  0.12280008379E+03  0.16922979543E+03  0.25168519855E+03  0.79660391641E+02 0.  0.
          5    1    3    3  501    0 -0.67817819530E+02 -0.88123747513E+02 -0.20565822424E+01  0.11131653539E+03  0.47000000000E+01 0. -1.
        -11    1    4    4    0    0 -0.66927140971E+02 -0.23724698632E+02 -0.10823481005E+03  0.12944835893E+03  0.00000000000E+00 0.  1.
         12    1    4    4    0    0  0.21883744470E+02 -0.12201160852E+02 -0.22992672858E+02  0.34006317109E+02  0.00000000000E+00 0. -1.
         -5    1    5    5    0  502 -0.23823388075E+01  0.12495232016E+01 -0.27411186764E+02  0.27941009399E+02  0.47000000000E+01 0.  1.
         13    1    6    6    0    0  0.23985019379E+02 -0.29504378979E+01  0.33405356343E+01  0.24395602405E+02  0.00000000000E+00 0. -1.
        -14    1    6    6    0    0  0.91258535460E+02  0.12575052169E+03  0.16588925980E+03  0.22728959615E+03  0.00000000000E+00 0.  1.
</event>
<event>
12    1  0.8493057E-002  0.1737172E+03  0.7818608E-02  0.1174150E+00
         21   -1    0    0  503  502  0.00000000000E+00  0.00000000000E+00  0.65214402668E+03  0.65214402668E+03  0.00000000000E+00 0. -1.
         21   -1    0    0  501  503 -0.00000000000E+00 -0.00000000000E+00 -0.67666365703E+02  0.67666365703E+02  0.00000000000E+00 0. -1.
          6    2    1    2  501    0  0.15536336477E+02  0.17888598349E+02  0.89545485981E+02  0.19543814630E+03  0.17209385599E+03 0.  0.
         24    2    3    3    0    0 -0.56582236145E+02  0.30026144534E+02  0.19969898952E+02  0.94387362758E+02  0.66385680546E+02 0.  0.
         -6    2    1    2    0  502 -0.15536336477E+02 -0.17888598349E+02  0.49493217499E+03  0.52437224608E+03  0.17160132550E+03 0.  0.
        -24    2    5    5    0    0 -0.48367072649E+02 -0.16788218659E+02  0.14032747994E+03  0.16821827962E+03  0.77358709714E+02 0.  0.
          5    1    3    3  501    0  0.72118572622E+02 -0.12137546185E+02  0.69575587029E+02  0.10105078354E+03  0.47000000000E+01 0. -1.
        -11    1    4    4    0    0 -0.60160364953E+02 -0.28775116089E+00  0.49404913785E+01  0.60363571524E+02  0.00000000000E+00 0.  1.
         12    1    4    4    0    0  0.35781288084E+01  0.30313895695E+02  0.15029407574E+02  0.34023791235E+02  0.00000000000E+00 0. -1.
         -5    1    5    5    0  502  0.32830736171E+02 -0.11003796895E+01  0.35460469505E+03  0.35615396646E+03  0.47000000000E+01 0.  1.
         13    1    6    6    0    0 -0.20315430079E+02 -0.45401574310E+02  0.98194832347E+02  0.11007381500E+03  0.00000000000E+00 0. -1.
        -14    1    6    6    0    0 -0.28051642569E+02  0.28613355650E+02  0.42132647596E+02  0.58144464619E+02  0.00000000000E+00 0.  1.
</event>
<event>
12    1  0.8493057E-002  0.2997259E+03  0.7818608E-02  0.1085388E+00
         21   -1    0    0  503  502  0.00000000000E+00  0.00000000000E+00  0.20485753393E+03  0.20485753393E+03  0.00000000000E+00 0.  1.
         21   -1    0    0  501  503 -0.00000000000E+00 -0.00000000000E+00 -0.54809170704E+03  0.54809170704E+03  0.00000000000E+00 0.  1.
          6    2    1    2  501    0  0.22134258239E+03 -0.10628145797E+03 -0.34001156320E+03  0.45320598609E+03  0.17175423032E+03 0.  0.
         24    2    3    3    0    0  0.59110885892E+02  0.90200140736E+01 -0.99965134043E+02  0.14134394775E+03  0.80060140256E+02 0.  0.
         -6    2    1    2    0  502 -0.22134258239E+03  0.10628145797E+03 -0.32226099071E+01  0.29974325488E+03  0.17189341623E+03 0.  0.
        -24    2    5    5    0    0 -0.94466093709E+02  0.94889990782E+02  0.46141498552E+02  0.16304536130E+03  0.80788605274E+02 0.  0.
          5    1    3    3  501    0  0.16223169650E+03 -0.11530147205E+03 -0.24004642916E+03  0.31186203834E+03  0.47000000000E+01 0. -1.
        -13    1    4    4    0    0  0.65221650400E+02  0.23333232554E+01 -0.10995120969E+03  0.12786155243E+03  0.00000000000E+00 0.  1.
         14    1    4    4    0    0 -0.61107645078E+01  0.66866908182E+01  0.99860756425E+01  0.13482395325E+02  0.00000000000E+00 0. -1.
         -5    1    5    5    0  502 -0.12687648868E+03  0.11391467189E+02 -0.49364108459E+02  0.13669789358E+03  0.47000000000E+01 0.  1.
         11    1    6    6    0    0 -0.88555912323E+02  0.96646426521E+02  0.62750933173E+02  0.14532845895E+03  0.00000000000E+00 0. -1.
        -12    1    6    6    0    0 -0.59101813863E+01 -0.17564357394E+01 -0.16609434621E+02  0.17716902352E+02  0.00000000000E+00 0.  1.
</event>
<event>
12    1  0.8493057E-002  0.1752424E+03  0.7818608E-02  0.1176433E+00
         21   -1    0    0  503  502  0.00000000000E+00  0.00000000000E+00  0.16346121477E+03  0.16346121477E+03  0.00000000000E+00 0. -1.
         21   -1    0    0  501  503 -0.00000000000E+00 -0.00000000000E+00 -0.24750545582E+03  0.24750545582E+03  0.00000000000E+00 0. -1.
          6    2    1    2  501    0  0.41393405965E+00  0.33331582637E+02 -0.15664657000E+03  0.23504902970E+03  0.17204282237E+03 0.  0.
         24    2    3    3    0    0  0.45276816446E+02  0.66109098633E+02 -0.73159646135E+02  0.13465380957E+03  0.79742783864E+02 0.  0.
         -6    2    1    2    0  502 -0.41393405965E+00 -0.33331582637E+02  0.72602328946E+02  0.17591764088E+03  0.15673146609E+03 0.  0.
        -24    2    5    5    0    0 -0.45644518351E+01  0.36175407911E+02  0.54294812720E+02  0.10376707828E+03  0.80561687473E+02 0.  0.
          5    1    3    3  501    0 -0.44862882386E+02 -0.32777515996E+02 -0.83486923861E+02  0.10039522014E+03  0.47000000000E+01 0. -1.
        -13    1    4    4    0    0  0.64544066624E+02  0.62886789796E+02 -0.71526218400E+02  0.11505079220E+03  0.00000000000E+00 0.  1.
         14    1    4    4    0    0 -0.19267250178E+02  0.32223088369E+01 -0.16334277350E+01  0.19603017366E+02  0.00000000000E+00 0. -1.
         -5    1    5    5    0  502  0.41505177754E+01 -0.69506990548E+02  0.18307516226E+02  0.72150562599E+02  0.47000000000E+01 0.  1.
         13    1    6    6    0    0 -0.35544563925E+02  0.24333378717E+02  0.36520506608E+01  0.43230392300E+02  0.00000000000E+00 0. -1.
        -14    1    6    6    0    0  0.30980112090E+02  0.11842029194E+02  0.50642762059E+02  0.60536685981E+02  0.00000000000E+00 0.  1.
</event>
<event>
12    1  0.8493057E-002  0.1730927E+03  0.7818608E-02  0.1174896E+00
         21   -1    0    0  503  502  0.00000000000E+00  0.00000000000E+00  0.35941127555E+03  0.35941127555E+03  0.00000000000E+00 0.  1.
         21   -1    0    0  501  503 -0.00000000000E+00 -0.00000000000E+00 -0.23565101277E+03  0.23565101277E+03  0.00000000000E+00 0.  1.
          6    2    1    2  501    0  0.17659128910E+02  0.30394508204E+01 -0.17759357081E+03  0.24799308139E+03  0.17216273967E+03 0.  0.
         24    2    3    3    0    0 -0.52536676078E+01  0.40878817729E+02 -0.14649627172E+02  0.79085909551E+02  0.65888472065E+02 0.  0.
         -6    2    1    2    0  502 -0.17659128910E+02 -0.30394508204E+01  0.30135383359E+03  0.34706920693E+03  0.17123614772E+03 0.  0.
        -24    2    5    5    0    0 -0.17699856379E+02  0.17759384037E+02  0.51758006407E+02  0.96564196729E+02  0.77569789387E+02 0.  0.
          5    1    3    3  501    0  0.22912796518E+02 -0.37839366909E+02 -0.16294394363E+03  0.16890717184E+03  0.47000000000E+01 0. -1.
        -13    1    4    4    0    0  0.29867958635E+02  0.14301860657E+02 -0.10984528931E+02  0.34889798611E+02  0.00000000000E+00 0.  1.
         14    1    4    4    0    0 -0.35121626243E+02  0.26576957072E+02 -0.36650982408E+01  0.44196110940E+02  0.00000000000E+00 0. -1.
         -5    1    5    5    0  502  0.40727468801E-01 -0.20798834857E+02  0.24959582718E+03  0.25050501020E+03  0.47000000000E+01 0.  1.
         13    1    6    6    0    0 -0.32488382609E+01  0.43832574220E+02  0.96956225674E+01  0.45009494662E+02  0.00000000000E+00 0. -1.
        -14    1    6    6    0    0 -0.14451018118E+02 -0.26073190183E+02  0.42062383839E+02  0.51554702067E+02  0.00000000000E+00 0.  1.
</event>
<event>
12    1  0.8493057E-002  0.2144674E+03  0.7818608E-02  0.1138647E+00
         21   -1    0    0  501  502  0.00000000000E+00  0.00000000000E+00  0.61136433490E+02  0.61136433490E+02  0.00000000000E+00 0.  1.
         21   -1    0    0  502  503 -0.00000000000E+00 -0.00000000000E+00 -0.74769604776E+03  0.74769604776E+03  0.00000000000E+00 0. -1.
         -6    2    1    2    0  503 -0.10662709894E+03  0.63044054481E+02 -0.38070074379E+03  0.43695459319E+03  0.17507818010E+03 0.  0.
        -24    2    3    3    0    0 -0.24049027604E+02  0.60715310756E+02 -0.31486991900E+03  0.33121742656E+03  0.79354981429E+02 0.  0.
          6    2    1    2  501    0  0.10662709894E+03 -0.63044054481E+02 -0.30585887047E+03  0.37187788806E+03  0.17146318539E+03 0.  0.
         24    2    5    5    0    0  0.12478576824E+03 -0.92847244738E+02 -0.26757087291E+03  0.31985839000E+03  0.80765827044E+02 0.  0.
          5    1    5    5  501    0 -0.18158669296E+02  0.29803190257E+02 -0.38287997566E+02  0.52019498054E+02  0.47000000000E+01 0. -1.
        -11    1    6    6    0    0  0.10805586149E+03 -0.60862167246E+02 -0.13884391217E+03  0.18616633571E+03  0.00000000000E+00 0.  1.
         12    1    6    6    0    0  0.16729906749E+02 -0.31985077492E+02 -0.12872696073E+03  0.13369205429E+03  0.00000000000E+00 0. -1.
         -5    1    3    3    0  503 -0.82578071339E+02  0.23287437255E+01 -0.65830824798E+02  0.10573716663E+03  0.47000000000E+01 0.  1.
         13    1    4    4    0    0 -0.69171259725E+01  0.70512671189E+02 -0.15859963768E+03  0.17370586778E+03  0.00000000000E+00 0. -1.
        -14    1    4    4    0    0 -0.17131901631E+02 -0.97973604329E+01 -0.15627028132E+03  0.15751155877E+03  0.00000000000E+00 0.  1.
</event>
<event>
12    1  0.8493057E-002  0.2289847E+03  0.7818608E-02  0.1127549E+00
         21   -1    0    0  501  502  0.00000000000E+00  0.00000000000E+00  0.61722365270E+03  0.61722365270E+03  0.00000000000E+00 0.  1.
         21   -1    0    0  502  503 -0.00000000000E+00 -0.00000000000E+00 -0.10918870208E+03  0.10918870208E+03  0.00000000000E+00 0. -1.
         -6    2    1    2    0  503 -0.76427246216E+02 -0.13053069248E+03  0.81016518694E+02  0.24187266163E+03  0.17046795152E+03 0.  0.
        -24    2    3    3    0    0 -0.69905117068E+02 -0.12762559237E+02  0.18048627655E+02  0.10808582865E+03  0.79417788207E+02 0.  0.
          6    2    1    2  501    0  0.76427246216E+02  0.13053069248E+03  0.42701843193E+03  0.48453969316E+03  0.17191447698E+03 0.  0.
         24    2    5    5    0    0  0.89806799932E+02  0.46297567790E+02  0.33506584403E+03  0.35903431409E+03  0.80173516595E+02 0.  0.
          5    1    5    5  501    0 -0.13379553716E+02  0.84233124691E+02  0.91952587902E+02  0.12550537907E+03  0.47000000000E+01 0. -1.
        -11    1    6    6    0    0 -0.69991939931E+01  0.25261596194E+02  0.11087179759E+03  0.11392845325E+03  0.00000000000E+00 0.  1.
         12    1    6    6    0    0  0.96805993925E+02  0.21035971596E+02  0.22419404644E+03  0.24510586084E+03  0.00000000000E+00 0. -1.
         -5    1    3    3    0  503 -0.65221291479E+01 -0.11776813324E+03  0.62967891039E+02  0.13378683298E+03  0.47000000000E+01 0.  1.
         11    1    4    4    0    0 -0.69661442406E+01  0.27259229214E+01 -0.27737535545E+02  0.28728534586E+02  0.00000000000E+00 0. -1.
        -12    1    4    4    0    0 -0.62938972827E+02 -0.15488482158E+02  0.45786163201E+02  0.79357294061E+02  0.00000000000E+00 0.  1.
</event>
<event>
12    1  0.8493057E-002  0.2018533E+03  0.7818608E-02  0.1150659E+00
         21   -1    0    0  501  502  0.00000000000E+00  0.00000000000E+00  0.18743877164E+03  0.18743877164E+03  0.00000000000E+00 0.  1.
         21   -1    0    0  502  503 -0.00000000000E+00 -0.00000000000E+00 -0.24712671355E+03  0.24712671355E+03  0.00000000000E+00 0. -1.
         -6    2    1    2    0  503  0.46350026952E+02 -0.67689330044E+02 -0.11862176220E+03  0.22428487478E+03  0.17176266237E+03 0.  0.
        -24    2    3    3    0    0  0.64254602807E+02 -0.10583503916E+03 -0.86521646084E+02  0.17110427291E+03  0.80380143512E+02 0.  0.
          6    2    1    2  501    0 -0.46350026952E+02  0.67689330044E+02  0.58933820287E+02  0.21028061041E+03  0.18443039213E+03 0.  0.
         24    2    5    5    0    0 -0.42960594032E+02 -0.14910464863E+02 -0.20941808493E+02  0.95230967006E+02  0.81008907732E+02 0.  0.
          5    1    5    5  501    0 -0.33894329195E+01  0.82599794907E+02  0.79875628780E+02  0.11504964340E+03  0.47000000000E+01 0. -1.
        -11    1    6    6    0    0  0.16042733637E+02 -0.21608090064E+02  0.94499390669E+01  0.28523327420E+02  0.00000000000E+00 0.  1.
         12    1    6    6    0    0 -0.59003327669E+02  0.66976252010E+01 -0.30391747560E+02  0.66707639586E+02  0.00000000000E+00 0. -1.
         -5    1    3    3    0  503 -0.17904575855E+02  0.38145709113E+02 -0.32100116116E+02  0.53180601867E+02  0.47000000000E+01 0.  1.
         11    1    4    4    0    0  0.12243474937E+01 -0.22218975188E+02 -0.58675721391E+02  0.62753662570E+02  0.00000000000E+00 0. -1.
        -12    1    4    4    0    0  0.63030255313E+02 -0.83616063969E+02 -0.27845924693E+02  0.10835061034E+03  0.00000000000E+00 0.  1.
</event>
<event>
12    1  0.8493057E-002  0.2363094E+03  0.7818608E-02  0.1122473E+00
         21   -1    0    0  501  502  0.00000000000E+00  0.00000000000E+00  0.17631064109E+03  0.17631064109E+03  0.00000000000E+00 0. -1.
         21   -1    0    0  502  503 -0.00000000000E+00 -0.00000000000E+00 -0.73778881678E+03  0.73778881678E+03  0.00000000000E+00 0. -1.
         -6    2    1    2    0  503  0.37027838745E+02  0.15750861839E+03 -0.62635857970E+03  0.66904521892E+03  0.17063530959E+03 0.  0.
        -24    2    3    3    0    0  0.79068139361E+02  0.12842075994E+03 -0.55937801979E+03  0.58465341961E+03  0.78563285225E+02 0.  0.
          6    2    1    2  501    0 -0.37027838745E+02 -0.15750861839E+03  0.64880404013E+02  0.24505423895E+03  0.17222684893E+03 0.  0.
         24    2    5    5    0    0 -0.19752325688E+01 -0.58211973407E+02  0.93087042332E+02  0.13593864268E+03  0.80134772301E+02 0.  0.
          5    1    5    5  501    0 -0.35052606177E+02 -0.99296644978E+02 -0.28206638319E+02  0.10911559627E+03  0.47000000000E+01 0. -1.
        -13    1    6    6    0    0 -0.34996603816E+02 -0.97769891988E+01  0.17632176483E+02  0.40388679652E+02  0.00000000000E+00 0.  1.
         14    1    6    6    0    0  0.33021371247E+02 -0.48434984209E+02  0.75454865849E+02  0.95549963028E+02  0.00000000000E+00 0. -1.
         -5    1    3    3    0  503 -0.42040300616E+02  0.29087858450E+02 -0.66980559910E+02  0.84391799311E+02  0.47000000000E+01 0.  1.
         13    1    4    4    0    0  0.48574711625E+02  0.12075342180E+03 -0.35990029793E+03  0.38271283743E+03  0.00000000000E+00 0. -1.
        -14    1    4    4    0    0  0.30493427736E+02  0.76673381383E+01 -0.19947772186E+03  0.20194058217E+03  0.00000000000E+00 0.  1.
</event>
<event>
12    1  0.8493057E-002  0.2288096E+03  0.7818608E-02  0.1127542E+00
         21   -1    0    0  503  502  0.00000000000E+00  0.00000000000E+00  0.15571720327E+04  0.15571720327E+04  0.00000000000E+00 0. -1.
         21   -1    0    0  501  503 -0.00000000000E+00 -0.00000000000E+00 -0.43635097350E+02  0.43635097350E+02  0.00000000000E+00 0. -1.
          6    2    1    2  501    0  0.14456479289E+03  0.44930256395E+02  0.37279408432E+03  0.43741198769E+03  0.17156954971E+03 0.  0.
         24    2    3    3    0    0  0.13442655779E+03 -0.24076596645E+02  0.26393922953E+03  0.30804352558E+03  0.81096947060E+02 0.  0.
         -6    2    1    2    0  502 -0.14456479289E+03 -0.44930256395E+02  0.11407428510E+04  0.11633951423E+04  0.17110317883E+03 0.  0.
        -24    2    5    5    0    0 -0.51356442200E+02 -0.83497077222E+01  0.85909690934E+03  0.86444287251E+03  0.80664604452E+02 0.  0.
          5    1    3    3  501    0  0.10138235102E+02  0.69006853040E+02  0.10885485479E+03  0.12936846211E+03  0.47000000000E+01 0. -1.
        -11    1    4    4    0    0  0.61523643406E+01 -0.10537125157E+01 -0.57686938142E+01  0.84993955883E+01  0.00000000000E+00 0.  1.
         12    1    4    4    0    0  0.12827419345E+03 -0.23022884130E+02  0.26970792334E+03  0.29954412999E+03  0.00000000000E+00 0. -1.
         -5    1    5    5    0  502 -0.93208350691E+02 -0.36580548673E+02  0.28164594165E+03  0.29895226982E+03  0.47000000000E+01 0.  1.
         11    1    6    6    0    0 -0.20585206339E+02  0.28799532088E+02  0.16930446966E+03  0.17296579782E+03  0.00000000000E+00 0. -1.
        -12    1    6    6    0    0 -0.30771235862E+02 -0.37149239810E+02  0.68979243969E+03  0.69147707469E+03  0.00000000000E+00 0.  1.
</event>
<event>
12    1  0.8493057E-002  0.2237208E+03  0.7818608E-02  0.1131268E+00
         21   -1    0    0  501  502  0.00000000000E+00  0.00000000000E+00  0.28336869867E+03  0.28336869867E+03  0.00000000000E+00 0.  1.
         21   -1    0    0  502  503 -0.00000000000E+00 -0.00000000000E+00 -0.78904721981E+03  0.78904721981E+03  0.00000000000E+00 0. -1.
         -6    2    1    2    0  503  0.13145291655E+03  0.55225396893E+02 -0.72553927675E+03  0.75924847543E+03  0.17239864154E+03 0.  0.
        -24    2    3    3    0    0  0.30192881055E+02  0.51739996982E+02 -0.19517566666E+03  0.21927311330E+03  0.79990749501E+02 0.  0.
          6    2    1    2  501    0 -0.13145291655E+03 -0.55225396893E+02  0.21986075561E+03  0.31316744305E+03  0.17147997493E+03 0.  0.
         24    2    5    5    0    0 -0.11428061696E+03 -0.26522286127E+02  0.23608758356E+03  0.27569536830E+03  0.80666584889E+02 0.  0.
          5    1    5    5  501    0 -0.17172299585E+02 -0.28703110766E+02 -0.16226827952E+02  0.37472074750E+02  0.47000000000E+01 0. -1.
        -11    1    6    6    0    0 -0.66850211439E+02 -0.42881588382E+02  0.19598280036E+03  0.21146403814E+03  0.00000000000E+00 0.  1.
         12    1    6    6    0    0 -0.47430405526E+02  0.16359302255E+02  0.40104783204E+02  0.64231330163E+02  0.00000000000E+00 0. -1.
         -5    1    3    3    0  503  0.10126003549E+03  0.34853999114E+01 -0.53036361009E+03  0.53997536213E+03  0.47000000000E+01 0.  1.
         11    1    4    4    0    0  0.57396346146E+02  0.30965304232E+02 -0.13801222484E+03  0.15264522535E+03  0.00000000000E+00 0. -1.
        -12    1    4    4    0    0 -0.27203465091E+02  0.20774692750E+02 -0.57163441819E+02  0.66627887948E+02  0.00000000000E+00 0.  1.
</event>
<event>
12    1  0.8493057E-002  0.2073993E+03  0.7818608E-02  0.1144491E+00
         21   -1    0    0  501  502  0.00000000000E+00  0.00000000000E+00  0.22719488300E+03  0.22719488300E+03  0.00000000000E+00 0. -1.
         21   -1    0    0  502  503 -0.00000000000E+00 -0.00000000000E+00 -0.20449797955E+03  0.20449797955E+03  0.00000000000E+00 0. -1.
         -6    2    1    2    0  503 -0.33093000202E+01  0.10838070337E+03 -0.54477317169E+02  0.21040043260E+03  0.17188145805E+03 0.  0.
        -24    2    3    3    0    0 -0.32872729573E+02  0.11864501196E+03 -0.82542805672E+02  0.16810251252E+03  0.79296183608E+02 0.  0.
          6    2    1    2  501    0  0.33093000202E+01 -0.10838070337E+03  0.77174220615E+02  0.22129242995E+03  0.17679691992E+03 0.  0.
         24    2    5    5    0    0  0.19398269427E+01  0.95726478872E+01  0.71226648541E+00  0.80638994302E+02  0.80042123675E+02 0.  0.
          5    1    5    5  501    0  0.13694730775E+01 -0.11795335126E+03  0.76461954129E+02  0.14065343565E+03  0.47000000000E+01 0. -1.
        -11    1    6    6    0    0  0.13750446826E+02  0.21924736070E+02  0.34291316938E+02  0.42961183142E+02  0.00000000000E+00 0.  1.
         12    1    6    6    0    0 -0.11810619883E+02 -0.12352088183E+02 -0.33579050453E+02  0.37677811160E+02  0.00000000000E+00 0. -1.
         -5    1    3    3    0  503  0.29563429553E+02 -0.10264308593E+02  0.28065488503E+02  0.42297920076E+02  0.47000000000E+01 0.  1.
         13    1    4    4    0    0 -0.53207498629E+02  0.72130196835E+02 -0.74814996409E+02  0.11675224578E+03  0.00000000000E+00 0. -1.
        -14    1    4    4    0    0  0.20334769056E+02  0.46514815129E+02 -0.77278092628E+01  0.51350266747E+02  0.00000000000E+00 0.  1.
</event>
<event>
12    1  0.8493057E-002  0.2363616E+03  0.7818608E-02  0.1122319E+00
         21   -1    0    0  503  502  0.00000000000E+00  0.00000000000E+00  0.17699868597E+03  0.17699868597E+03  0.00000000000E+00 0. -1.
         21   -1    0    0  501  503 -0.00000000000E+00 -0.00000000000E+00 -0.70087549864E+03  0.70087549864E+03  0.00000000000E+00 0. -1.
          6    2    1    2  501    0  0.10222174894E+03 -0.12396540404E+03 -0.58750567972E+03  0.63309791211E+03  0.17272329098E+03 0.  0.
         24    2    3    3    0    0  0.54189586155E+01 -0.11310432591E+03 -0.36916840438E+03  0.39397033311E+03  0.78136796221E+02 0.  0.
         -6    2    1    2    0  502 -0.10222174894E+03  0.12396540404E+03  0.63628867057E+02  0.24477627250E+03  0.17334959907E+03 0.  0.
        -24    2    5    5    0    0 -0.13138341772E+03  0.58228601954E+02  0.49664194151E+02  0.17136760704E+03  0.79045253026E+02 0.  0.
          5    1    3    3  501    0  0.96802790329E+02 -0.10861078137E+02 -0.21833727534E+03  0.23912757900E+03  0.47000000000E+01 0. -1.
        -13    1    4    4    0    0 -0.67572162085E+01 -0.49638639023E+02 -0.27645529192E+03  0.28095761759E+03  0.00000000000E+00 0.  1.
         14    1    4    4    0    0  0.12176174824E+02 -0.63465686883E+02 -0.92713112466E+02  0.11301271551E+03  0.00000000000E+00 0. -1.
         -5    1    5    5    0  502  0.29161668775E+02  0.65736802088E+02  0.13964672905E+02  0.73408665455E+02  0.47000000000E+01 0.  1.
         13    1    6    6    0    0 -0.12982944339E+03  0.59660100905E+02  0.23120146170E+02  0.14473960470E+03  0.00000000000E+00 0. -1.
        -14    1    6    6    0    0 -0.15539743317E+01 -0.14314989507E+01  0.26544047981E+02  0.26628002342E+02  0.00000000000E+00 0.  1.
</event>
<event>
12    1  0.8493057E-002  0.1774684E+03  0.7818608E-02  0.1170439E+00
         21   -1    0    0  501  502  0.00000000000E+00  0.00000000000E+00  0.93641850997E+02  0.93641850997E+02  0.00000000000E+00 0.  1.
         21   -1    0    0  502  503 -0.00000000000E+00 -0.00000000000E+00 -0.51646817039E+03  0.51646817039E+03  0.00000000000E+00 0.  1.
         -6    2    1    2    0  503  0.25108918602E+02  0.32325155005E+02 -0.30377910952E+02  0.17940039373E+03  0.17200671602E+03 0.  0.
        -24    2    3    3    0    0  0.28251605116E+02  0.65826477107E+02  0.29063213841E+02  0.11093469153E+03  0.79564798159E+02 0.  0.
          6    2    1    2  501    0 -0.25108918602E+02 -0.32325155005E+02 -0.39244840844E+03  0.43070962765E+03  0.17268368953E+03 0.  0.
         24    2    5    5    0    0  0.47738633293E+02  0.70130575530E+01 -0.23084122314E+03  0.24906923257E+03  0.80122732291E+02 0.  0.
          5    1    5    5  501    0 -0.72847551894E+02 -0.39338212558E+02 -0.16160718530E+03  0.18164039508E+03  0.47000000000E+01 0. -1.
        -13    1    6    6    0    0 -0.15981150858E+02  0.11028536625E+00 -0.11977713129E+03  0.12083861355E+03  0.00000000000E+00 0.  1.
         14    1    6    6    0    0  0.63719784150E+02  0.69027721867E+01 -0.11106409185E+03  0.12823061902E+03  0.00000000000E+00 0. -1.
         -5    1    3    3    0  503 -0.31426865141E+01 -0.33501322102E+02 -0.59441124793E+02  0.68465702200E+02  0.47000000000E+01 0.  1.
         13    1    4    4    0    0  0.51658337006E+02  0.46199866221E+02  0.78449958032E+00  0.69308201972E+02  0.00000000000E+00 0. -1.
        -14    1    4    4    0    0 -0.23406731890E+02  0.19626610886E+02  0.28278714261E+02  0.41626489558E+02  0.00000000000E+00 0.  1.
</event>
<event>
12    1  0.8493057E-002  0.2042543E+03  0.7818608E-02  0.1146453E+00
         21   -1    0    0  503  502  0.00000000000E+00  0.00000000000E+00  0.43488627818E+02  0.43488627818E+02  0.00000000000E+00 0. -1.
         21   -1    0    0  501  503 -0.00000000000E+00 -0.00000000000E+00 -0.12471032683E+04  0.12471032683E+04  0.00000000000E+00 0. -1.
          6    2    1    2  501    0  0.10446415364E+03 -0.36462779935E+02 -0.29011774029E+03  0.35480718838E+03  0.17169025593E+03 0.  0.
         24    2    3    3    0    0  0.13866012176E+03 -0.17615894082E+02 -0.26058849588E+03  0.30562756234E+03  0.77232723562E+02 0.  0.
         -6    2    1    2    0  502 -0.10446415364E+03  0.36462779935E+02 -0.91349690016E+03  0.93578470770E+03  0.17021791577E+03 0.  0.
        -24    2    5    5    0    0 -0.70890217073E+02  0.73775381361E+02 -0.41176809533E+03  0.43152949153E+03  0.78717901113E+02 0.  0.
          5    1    3    3  501    0 -0.34195968120E+02 -0.18846885853E+02 -0.29529244412E+02  0.49179626042E+02  0.47000000000E+01 0. -1.
        -13    1    4    4    0    0  0.74319698971E+02  0.25766011041E+02 -0.16266011337E+03  0.18068098257E+03  0.00000000000E+00 0.  1.
         14    1    4    4    0    0  0.64340422790E+02 -0.43381905123E+02 -0.97928382506E+02  0.12494657977E+03  0.00000000000E+00 0. -1.
         -5    1    5    5    0  502 -0.33573936568E+02 -0.37312601426E+02 -0.50172880483E+03  0.50425521617E+03  0.47000000000E+01 0.  1.
         11    1    6    6    0    0 -0.77693560537E+02  0.28588001252E+02 -0.28480970360E+03  0.29659759006E+03  0.00000000000E+00 0. -1.
        -12    1    6    6    0    0  0.68033434636E+01  0.45187380109E+02 -0.12695839174E+03  0.13493190148E+03  0.00000000000E+00 0.  1.
</event>
<event>
12    1  0.8493057E-002  0.2102937E+03  0.7818608E-02  0.1142059E+00
         21   -1    0    0  503  502  0.00000000000E+00  0.00000000000E+00  0.39920145798E+03  0.39920145798E+03  0.00000000000E+00 0. -1.
         21   -1    0    0  501  503 -0.00000000000E+00 -0.00000000000E+00 -0.23141831888E+03  0.23141831888E+03  0.00000000000E+00 0. -1.
          6    2    1    2  501    0 -0.82175963041E+02  0.96179369185E+02 -0.14589945908E+03  0.25296886654E+03  0.16341124601E+03 0.  0.
         24    2    3    3    0    0 -0.20120394401E+02  0.14578250362E+02 -0.11946252150E+03  0.14699416267E+03  0.81967274943E+02 0.  0.
         -6    2    1    2    0  502  0.82175963041E+02 -0.96179369185E+02  0.31368259818E+03  0.37765091032E+03  0.16798832609E+03 0.  0.
        -24    2    5    5    0    0  0.11625728718E+03 -0.74734469837E+02  0.28903846951E+03  0.33020785560E+03  0.79956195761E+02 0.  0.
          5    1    3    3  501    0 -0.62055568641E+02  0.81601118823E+02 -0.26436937583E+02  0.10597470387E+03  0.47000000000E+01 0. -1.
        -13    1    4    4    0    0  0.17206303781E+02  0.15933859762E+01  0.36781124262E+01  0.17667039359E+02  0.00000000000E+00 0.  1.
         14    1    4    4    0    0 -0.37326698182E+02  0.12984864386E+02 -0.12314063393E+03  0.12932712331E+03  0.00000000000E+00 0. -1.
         -5    1    5    5    0  502 -0.34081324136E+02 -0.21444899348E+02  0.24644128669E+02  0.47443054716E+02  0.47000000000E+01 0.  1.
         13    1    6    6    0    0  0.57586877208E+02 -0.18735161041E+01  0.61929412452E+02  0.84587295830E+02  0.00000000000E+00 0. -1.
        -14    1    6    6    0    0  0.58670409969E+02 -0.72860953733E+02  0.22710905706E+03  0.24562055977E+03  0.00000000000E+00 0.  1.
</event>
<event>
12    1  0.8493057E-002  0.1859536E+03  0.7818608E-02  0.1162198E+00
         21   -1    0    0  503  502  0.00000000000E+00  0.00000000000E+00  0.12161739703E+04  0.12161739703E+04  0.00000000000E+00 0.  1.
         21   -1    0    0  501  503 -0.00000000000E+00 -0.00000000000E+00 -0.44590217184E+02  0.44590217184E+02  0.00000000000E+00 0. -1.
          6    2    1    2  501    0  0.50991739754E+02  0.48907928539E+02  0.20620061135E+03  0.27766425691E+03  0.17200757091E+03 0.  0.
         24    2    3    3    0    0 -0.19857072408E+02 -0.12913058123E+02  0.46453403070E+02  0.92238667714E+02  0.76085496451E+02 0.  0.
         -6    2    1    2    0  502 -0.50991739754E+02 -0.48907928539E+02  0.96538314180E+03  0.98309993061E+03  0.17183922744E+03 0.  0.
        -24    2    5    5    0    0  0.62048051474E+01  0.33048271033E+02  0.48975846649E+03  0.49706579069E+03  0.77976643635E+02 0.  0.
          5    1    3    3  501    0  0.70848812162E+02  0.61820986662E+02  0.15974720828E+03  0.18542558920E+03  0.47000000000E+01 0. -1.
        -13    1    4    4    0    0 -0.42499851060E+02  0.16910160726E+01  0.49337880995E+02  0.65140796560E+02  0.00000000000E+00 0.  1.
         14    1    4    4    0    0  0.22642778652E+02 -0.14604074195E+02 -0.28844779246E+01  0.27097871154E+02  0.00000000000E+00 0. -1.
         -5    1    5    5    0  502 -0.57196544901E+02 -0.81956199572E+02  0.47562467531E+03  0.48603413991E+03  0.47000000000E+01 0.  1.
         11    1    6    6    0    0  0.29552517930E+02  0.46542979731E+02  0.26350236008E+03  0.26920827261E+03  0.00000000000E+00 0. -1.
        -12    1    6    6    0    0 -0.23347712782E+02 -0.13494708699E+02  0.22625610641E+03  0.22785751808E+03  0.00000000000E+00 0.  1.
</event>
<event>
12    1  0.8493057E-002  0.3489950E+03  0.7818608E-02  0.1063037E+00
         21   -1    0    0  501  502  0.00000000000E+00  0.00000000000E+00  0.73929036785E+03  0.73929036785E+03  0.00000000000E+00 0.  1.
         21   -1    0    0  502  503 -0.00000000000E+00 -0.00000000000E+00 -0.26449690294E+03  0.26449690294E+03  0.00000000000E+00 0.  1.
         -6    2    1    2    0  503 -0.89316900288E+02  0.29011300529E+03 -0.70899963600E+02  0.35603822606E+03  0.17202717537E+03 0.  0.
        -24    2    3    3    0    0 -0.24172989637E+02  0.19881794898E+03 -0.10400584615E+03  0.23900572690E+03  0.78699499323E+02 0.  0.
          6    2    1    2  501    0  0.89316900288E+02 -0.29011300529E+03  0.54569342850E+03  0.64774904473E+03  0.17220465301E+03 0.  0.
         24    2    5    5    0    0  0.12865330905E+03 -0.20894362842E+03  0.38192571628E+03  0.46072558533E+03  0.78687346137E+02 0.  0.
          5    1    5    5  501    0 -0.39336408758E+02 -0.81169376870E+02  0.16376771222E+03  0.18702345939E+03  0.47000000000E+01 0. -1.
        -13    1    6    6    0    0  0.97959580617E+02 -0.11033676871E+03  0.27492384151E+03  0.31201506469E+03  0.00000000000E+00 0.  1.
         14    1    6    6    0    0  0.30693728429E+02 -0.98606859705E+02  0.10700187477E+03  0.14871052065E+03  0.00000000000E+00 0. -1.
         -5    1    3    3    0  503 -0.65143910651E+02  0.91295056305E+02  0.33105882550E+02  0.11703249916E+03  0.47000000000E+01 0.  1.
         11    1    4    4    0    0  0.27777582091E+01  0.39336715416E+02  0.10529892466E+02  0.40816317273E+02  0.00000000000E+00 0. -1.
        -12    1    4    4    0    0 -0.26950747847E+02  0.15948123356E+03 -0.11453573862E+03  0.19818940963E+03  0.00000000000E+00 0.  1.
</event>
<event>
12    1  0.8493057E-002  0.2312163E+03  0.7818608E-02  0.1125792E+00
         21   -1    0    0  503  502  0.00000000000E+00  0.00000000000E+00  0.18927254694E+03  0.18927254694E+03  0.00000000000E+00 0. -1.
         21   -1    0    0  501  503 -0.00000000000E+00 -0.00000000000E+00 -0.31314972594E+03  0.31314972594E+03  0.00000000000E+00 0. -1.
          6    2    1    2  501    0 -0.25406240515E+02  0.15334393741E+03  0.16766490918E+02  0.23179035060E+03  0.17113097678E+03 0.  0.
         24    2    3    3    0    0  0.33356018757E+02  0.40656813935E+02 -0.23344578998E+02  0.98439764391E+02  0.79873758757E+02 0.  0.
         -6    2    1    2    0  502  0.25406240515E+02 -0.15334393741E+03 -0.14064366992E+03  0.27063192228E+03  0.17117580224E+03 0.  0.
        -24    2    5    5    0    0 -0.26463262857E+02 -0.10388811716E+03 -0.14855343557E+03  0.19837558740E+03  0.76103254134E+02 0.  0.
          5    1    3    3  501    0 -0.58762259273E+02  0.11268712348E+03  0.40111069917E+02  0.13335058621E+03  0.47000000000E+01 0. -1.
        -11    1    4    4    0    0 -0.22082825609E+01 -0.13466923291E+02 -0.30371934877E+02  0.33296981289E+02  0.00000000000E+00 0.  1.
         12    1    4    4    0    0  0.35564301318E+02  0.54123737226E+02  0.70273558790E+01  0.65142783101E+02  0.00000000000E+00 0. -1.
         -5    1    5    5    0  502  0.51869503372E+02 -0.49455820260E+02  0.79097656553E+01  0.72256334880E+02  0.47000000000E+01 0.  1.
         11    1    6    6    0    0 -0.33936645089E+02 -0.83497819350E+01 -0.49073602378E+02  0.60246437145E+02  0.00000000000E+00 0. -1.
        -12    1    6    6    0    0  0.74733822319E+01 -0.95538335220E+02 -0.99479833194E+02  0.13812915026E+03  0.00000000000E+00 0.  1.
</event>
<event>
12    1  0.8493057E-002  0.1738343E+03  0.7818608E-02  0.1178991E+00
         21   -1    0    0  501  502  0.00000000000E+00  0.00000000000E+00  0.27665233495E+04  0.27665233495E+04  0.00000000000E+00 0. -1.
         21   -1    0    0  502  503 -0.00000000000E+00 -0.00000000000E+00 -0.14533407840E+02  0.14533407840E+02  0.00000000000E+00 0. -1.
         -6    2    1    2    0  503 -0.32398102121E+01 -0.24728138344E+02  0.52758211466E+03  0.54986682056E+03  0.15293350006E+03 0.  0.
        -24    2    3    3    0    0 -0.11239948426E+02  0.21343339111E+02  0.46083861728E+03  0.46823736699E+03  0.79322922951E+02 0.  0.
          6    2    1    2  501    0  0.32398102121E+01  0.24728138344E+02  0.22244078270E+04  0.22311899367E+04  0.17203597301E+03 0.  0.
         24    2    5    5    0    0 -0.22240776593E+02  0.77919422445E+02  0.14850822168E+04  0.14895006347E+04  0.81097850955E+02 0.  0.
          5    1    5    5  501    0  0.25480586805E+02 -0.53191284100E+02  0.73932561014E+03  0.74168930208E+03  0.47000000000E+01 0. -1.
        -13    1    6    6    0    0  0.14667911302E+02 -0.93951910861E+01  0.36451175861E+03  0.36492771805E+03  0.00000000000E+00 0.  1.
         14    1    6    6    0    0 -0.36908687895E+02  0.87314613531E+02  0.11205704582E+04  0.11245729166E+04  0.00000000000E+00 0. -1.
         -5    1    3    3    0  503  0.80001382136E+01 -0.46071477455E+02  0.66743497385E+02  0.81629453567E+02  0.47000000000E+01 0.  1.
         11    1    4    4    0    0 -0.29948080156E+02 -0.18685262648E+02  0.14052507451E+03  0.14489072817E+03  0.00000000000E+00 0. -1.
        -12    1    4    4    0    0  0.18708131730E+02  0.40028601759E+02  0.32031354277E+03  0.32334663882E+03  0.00000000000E+00 0.  1.
</event>
<event>
12    1  0.8493057E-002  0.2721564E+03  0.7818608E-02  0.1100058E+00
         21   -1    0    0  501  502  0.00000000000E+00  0.00000000000E+00  0.89393725294E+03  0.89393725294E+03  0.00000000000E+00 0. -1.
         21   -1    0    0  502  503 -0.00000000000E+00 -0.00000000000E+00 -0.25448693974E+03  0.25448693974E+03  0.00000000000E+00 0.  1.
         -6    2    1    2    0  503 -0.20714763527E+03 -0.38565893068E+02 -0.15185886055E+03  0.31162117411E+03  0.17218934844E+03 0.  0.
        -24    2    3    3    0    0 -0.34504342549E+02 -0.48593795252E+02 -0.59302343251E+02  0.11541958329E+03  0.79075948934E+02 0.  0.
          6    2    1    2  501    0  0.20714763527E+03  0.38565893068E+02  0.79130917374E+03  0.83680301857E+03  0.17225449931E+03 0.  0.
         24    2    5    5    0    0  0.21130943038E+03  0.37122229561E+02  0.55503244076E+03  0.60043849235E+03  0.80222425255E+02 0.  0.
          5    1    5    5  501    0 -0.41617951054E+01  0.14436635078E+01  0.23627673299E+03  0.23636452622E+03  0.47000000000E+01 0. -1.
        -11    1    6    6    0    0  0.10911150807E+03 -0.13371679002E+02  0.20950626458E+03  0.23659458550E+03  0.00000000000E+00 0.  1.
         12    1    6    6    0    0  0.10219792230E+03  0.50493908563E+02  0.34552617618E+03  0.36384390685E+03  0.00000000000E+00 0. -1.
         -5    1    3    3    0  503 -0.17264329272E+03  0.10027902184E+02 -0.92556517299E+02  0.19620159082E+03  0.47000000000E+01 0.  1.
         11    1    4    4    0    0 -0.37135016143E+02 -0.66510298401E+02 -0.31923222216E+02  0.82593712436E+02  0.00000000000E+00 0. -1.
        -12    1    4    4    0    0  0.26306735936E+01  0.17916503148E+02 -0.27379121035E+02  0.32825870853E+02  0.00000000000E+00 0.  1.
</event>
<event>
12    1  0.8493057E-002  0.3830104E+03  0.7818608E-02  0.1050186E+00
         21   -1    0    0  501  502  0.00000000000E+00  0.00000000000E+00  0.47572155343E+03  0.47572155343E+03  0.00000000000E+00 0.  1.
         21   -1    0    0  502  503 -0.00000000000E+00 -0.00000000000E+00 -0.32043095274E+03  0.32043095274E+03  0.00000000000E+00 0. -1.
         -6    2    1    2    0  503 -0.28740400440E+03 -0.17665440369E+03  0.16396968150E+03  0.41304380893E+03  0.17294881196E+03 0.  0.
        -24    2    3    3    0    0 -0.21945253607E+03 -0.11233871237E+03  0.18349868265E+03  0.31734959760E+03  0.79117625565E+02 0.  0.
          6    2    1    2  501    0  0.28740400440E+03  0.17665440369E+03 -0.86790808124E+01  0.38310869724E+03  0.18135354247E+03 0.  0.
         24    2    5    5    0    0  0.30469900562E+03  0.17783941804E+03  0.19275746715E+01  0.36224934761E+03  0.82173789368E+02 0.  0.
          5    1    5    5  501    0 -0.17295001226E+02 -0.11850143530E+01 -0.10606655484E+02  0.20859349630E+02  0.47000000000E+01 0. -1.
        -11    1    6    6    0    0  0.13449696415E+03  0.65752476448E+02  0.39928156716E+02  0.15494218026E+03  0.00000000000E+00 0.  1.
         12    1    6    6    0    0  0.17020204148E+03  0.11208694160E+03 -0.38000582045E+02  0.20730716735E+03  0.00000000000E+00 0. -1.
         -5    1    3    3    0  503 -0.67951468326E+02 -0.64315691317E+02 -0.19529001147E+02  0.95694211335E+02  0.47000000000E+01 0.  1.
         13    1    4    4    0    0 -0.12247326168E+03 -0.49945801543E+02  0.51153865450E+02  0.14181326055E+03  0.00000000000E+00 0. -1.
        -14    1    4    4    0    0 -0.96979274395E+02 -0.62392910831E+02  0.13234481720E+03  0.17553633705E+03  0.00000000000E+00 0.  1.
</event>
<event>
12    1  0.8493057E-002  0.1927948E+03  0.7818608E-02  0.1155997E+00
         21   -1    0    0  503  502  0.00000000000E+00  0.00000000000E+00  0.50281845604E+02  0.50281845604E+02  0.00000000000E+00 0. -1.
         21   -1    0    0  501  503 -0.00000000000E+00 -0.00000000000E+00 -0.12462331013E+04  0.12462331013E+04  0.00000000000E+00 0. -1.
          6    2    1    2  501    0 -0.72925074206E+02  0.48208830476E+02 -0.10118161034E+04  0.10300202285E+04  0.17183621972E+03 0.  0.
         24    2    3    3    0    0 -0.35263599331E+02 -0.29272386019E+02 -0.33807697477E+03  0.35077930737E+03  0.81545616624E+02 0.  0.
         -6    2    1    2    0  502  0.72925074206E+02 -0.48208830476E+02 -0.18413515230E+03  0.26649471833E+03  0.17167272002E+03 0.  0.
        -24    2    5    5    0    0  0.11670662111E+03 -0.32051866105E+02 -0.13258378966E+03  0.19679891976E+03  0.80644875898E+02 0.  0.
          5    1    3    3  501    0 -0.37661474876E+02  0.77481216495E+02 -0.67373912860E+03  0.67924092118E+03  0.47000000000E+01 0. -1.
        -11    1    4    4    0    0 -0.45789037350E+02 -0.12895466863E+02 -0.88763647752E+02  0.10070707110E+03  0.00000000000E+00 0.  1.
         12    1    4    4    0    0  0.10525438019E+02 -0.16376919156E+02 -0.24931332702E+03  0.25007223627E+03  0.00000000000E+00 0. -1.
         -5    1    5    5    0  502 -0.43781546902E+02 -0.16156964371E+02 -0.51551362645E+02  0.69695798564E+02  0.47000000000E+01 0.  1.
         13    1    6    6    0    0  0.16563493168E+02 -0.33762422178E+02 -0.10814710806E+02  0.39130658404E+02  0.00000000000E+00 0. -1.
        -14    1    6    6    0    0  0.10014312794E+03  0.17105560732E+01 -0.12176907885E+03  0.15766826136E+03  0.00000000000E+00 0.  1.
</event>
<event>
12    1  0.8493057E-002  0.1828078E+03  0.7818608E-02  0.1165689E+00
         21   -1    0    0  503  502  0.00000000000E+00  0.00000000000E+00  0.75600455129E+03  0.75600455129E+03  0.00000000000E+00 0. -1.
         21   -1    0    0  501  503 -0.00000000000E+00 -0.00000000000E+00 -0.86485922553E+02  0.86485922553E+02  0.00000000000E+00 0. -1.
          6    2    1    2  501    0  0.55682664081E+02  0.72671714566E+01  0.37087849894E+02  0.18416882767E+03  0.17143301203E+03 0.  0.
         24    2    3    3    0    0  0.59902810860E+00  0.46153747134E+02  0.63284571112E+02  0.11167930482E+03  0.79604038685E+02 0.  0.
         -6    2    1    2    0  502 -0.55682664081E+02 -0.72671714566E+01  0.63243077884E+03  0.65832164618E+03  0.17396933333E+03 0.  0.
        -24    2    5    5    0    0 -0.67106810743E+02  0.25954671466E+02  0.22090076048E+03  0.24526808066E+03  0.78627707522E+02 0.  0.
          5    1    3    3  501    0  0.55083635973E+02 -0.38886575678E+02 -0.26196721218E+02  0.72489522846E+02  0.47000000000E+01 0. -1.
        -11    1    4    4    0    0  0.14900652733E+02  0.40855146318E+02  0.78749320875E+02  0.89959034960E+02  0.00000000000E+00 0.  1.
         12    1    4    4    0    0 -0.14301624625E+02  0.52986008158E+01 -0.15464749764E+02  0.21720269859E+02  0.00000000000E+00 0. -1.
         -5    1    5    5    0  502  0.11424146662E+02 -0.33221842923E+02  0.41153001837E+03  0.41305356552E+03  0.47000000000E+01 0.  1.
         13    1    6    6    0    0  0.10311121348E+02 -0.46653610953E+01  0.86030184051E+02  0.86771408802E+02  0.00000000000E+00 0. -1.
        -14    1    6    6    0    0 -0.77417932091E+02  0.30620032562E+02  0.13487057643E+03  0.15849667185E+03  0.00000000000E+00 0.  1.
</event>
<event>
12    1  0.8493057E-002  0.2005967E+03  0.7818608E-02  0.1149274E+00
         21   -1    0    0  501  502  0.00000000000E+00  0.00000000000E+00  0.13933833338E+04  0.13933833338E+04  0.00000000000E+00 0.  1.
         21   -1    0    0  502  503 -0.00000000000E+00 -0.00000000000E+00 -0.33220727371E+02  0.33220727371E+02  0.00000000000E+00 0.  1.
         -6    2    1    2    0  503  0.82398800171E+02 -0.58237531021E+02  0.42118191302E+03  0.46643543126E+03  0.17316649615E+03 0.  0.
        -24    2    3    3    0    0  0.48938252947E+01  0.21957609061E+02  0.22980469510E+03  0.24488270353E+03  0.81555223491E+02 0.  0.
          6    2    1    2  501    0 -0.82398800171E+02  0.58237531021E+02  0.93898069344E+03  0.96016862994E+03  0.17337209402E+03 0.  0.
         24    2    5    5    0    0 -0.11057108476E+03  0.19899779167E+02  0.82590346782E+03  0.83740051604E+03  0.80629523871E+02 0.  0.
          5    1    5    5  501    0  0.28172284590E+02  0.38337751854E+02  0.11307722562E+03  0.12276811390E+03  0.47000000000E+01 0. -1.
        -13    1    6    6    0    0 -0.43146069788E+02  0.19809267414E+02  0.13291364407E+03  0.14113832645E+03  0.00000000000E+00 0.  1.
         14    1    6    6    0    0 -0.67425014973E+02  0.90511752845E-01  0.69298982375E+03  0.69626218959E+03  0.00000000000E+00 0. -1.
         -5    1    3    3    0  503  0.77504974876E+02 -0.80195140082E+02  0.19137721793E+03  0.22155272773E+03  0.47000000000E+01 0.  1.
         13    1    4    4    0    0 -0.19352344214E+02 -0.76185873196E+00  0.19780909152E+03  0.19875495049E+03  0.00000000000E+00 0. -1.
        -14    1    4    4    0    0  0.24246169509E+02  0.22719467793E+02  0.31995603578E+02  0.46127753045E+02  0.00000000000E+00 0.  1.
</event>
<event>
12    1  0.8493057E-002  0.2609125E+03  0.7818608E-02  0.1106893E+00
         21   -1    0    0  501  502  0.00000000000E+00  0.00000000000E+00  0.28148171650E+03  0.28148171650E+03  0.00000000000E+00 0.  1.
         21   -1    0    0  502  503 -0.00000000000E+00 -0.00000000000E+00 -0.30296154511E+03  0.30296154511E+03  0.00000000000E+00 0.  1.
         -6    2    1    2    0  503  0.33598974467E+02 -0.19420723845E+03 -0.14390693163E+03  0.29623551455E+03  0.16793133286E+03 0.  0.
        -24    2    3    3    0    0  0.47943145780E+02 -0.11350742693E+03 -0.20437110432E+02  0.14796177589E+03  0.79325471602E+02 0.  0.
          6    2    1    2  501    0 -0.33598974467E+02  0.19420723845E+03  0.12242710302E+03  0.28820774706E+03  0.17096773778E+03 0.  0.
         24    2    5    5    0    0 -0.56570996262E+02  0.12683390776E+03  0.13904044701E+03  0.21496177330E+03  0.87116016321E+02 0.  0.
          5    1    5    5  501    0  0.22972021795E+02  0.67373330690E+02 -0.16613343993E+02  0.73245973761E+02  0.47000000000E+01 0. -1.
        -13    1    6    6    0    0 -0.37613645967E+02  0.24177189243E+02  0.48919569347E+01  0.44980596765E+02  0.00000000000E+00 0.  1.
         14    1    6    6    0    0 -0.18957350295E+02  0.10265671852E+03  0.13414849007E+03  0.16998117654E+03  0.00000000000E+00 0. -1.
         -5    1    3    3    0  503 -0.14344171313E+02 -0.80699811523E+02 -0.12346982120E+03  0.14827373866E+03  0.47000000000E+01 0.  1.
         13    1    4    4    0    0 -0.13416843049E+02 -0.12363496379E+02  0.15905336484E+02  0.24204285752E+02  0.00000000000E+00 0. -1.
        -14    1    4    4    0    0  0.61359988828E+02 -0.10114393055E+03 -0.36342446916E+02  0.12375749013E+03  0.00000000000E+00 0.  1.
</event>
<event>
12    1  0.8493057E-002  0.5482962E+03  0.7818608E-02  0.1001950E+00
         21   -1    0    0  503  502  0.00000000000E+00  0.00000000000E+00  0.88397242656E+03  0.88397242656E+03  0.00000000000E+00 0. -1.
         21   -1    0    0  501  503 -0.00000000000E+00 -0.00000000000E+00 -0.56732230310E+03  0.56732230310E+03  0.00000000000E+00 0.  1.
          6    2    1    2  501    0 -0.31815834651E+02 -0.51990236938E+03 -0.30167362041E+03  0.62488507154E+03  0.16782031571E+03 0.  0.
         24    2    3    3    0    0 -0.51241459227E+02 -0.51192324819E+03 -0.30459131081E+03  0.60316816149E+03  0.79654662292E+02 0.  0.
         -6    2    1    2    0  502  0.31815834651E+02  0.51990236938E+03  0.61832374386E+03  0.82640965812E+03  0.17122485155E+03 0.  0.
        -24    2    5    5    0    0 -0.36507079513E+02  0.25898455469E+03  0.36136185754E+03  0.45385412180E+03  0.83638539947E+02 0.  0.
          5    1    3    3  501    0  0.19425624576E+02 -0.79791211848E+01  0.29176904002E+01  0.21716910055E+02  0.47000000000E+01 0. -1.
        -13    1    4    4    0    0  0.70992684851E+01 -0.30602185977E+03 -0.19221572722E+03  0.36145077682E+03  0.00000000000E+00 0.  1.
         14    1    4    4    0    0 -0.58340727712E+02 -0.20590138842E+03 -0.11237558359E+03  0.24171738467E+03  0.00000000000E+00 0. -1.
         -5    1    5    5    0  502  0.68322914164E+02  0.26091781469E+03  0.25696188632E+03  0.37255553632E+03  0.47000000000E+01 0.  1.
         13    1    6    6    0    0 -0.16127858264E+02  0.24435904105E+03  0.34771906628E+03  0.42529989161E+03  0.00000000000E+00 0. -1.
        -14    1    6    6    0    0 -0.20379221249E+02  0.14625513647E+02  0.13642791268E+02  0.28554230190E+02  0.00000000000E+00 0.  1.
</event>
<event>
12    1  0.8493057E-002  0.2241674E+03  0.7818608E-02  0.1131454E+00
         21   -1    0    0  503  502  0.00000000000E+00  0.00000000000E+00  0.20166064954E+03  0.20166064954E+03  0.00000000000E+00 0. -1.
         21   -1    0    0  501  503 -0.00000000000E+00 -0.00000000000E+00 -0.24624186051E+03  0.24624186051E+03  0.00000000000E+00 0. -1.
          6    2    1    2  501    0 -0.11819209309E+02  0.13813410306E+03 -0.36171008026E+02  0.22706689382E+03  0.17615421742E+03 0.  0.
         24    2    3    3    0    0  0.24595717804E+02  0.15445538429E+03 -0.53137485412E+02  0.18345058389E+03  0.79806699603E+02 0.  0.
         -6    2    1    2    0  502  0.11819209309E+02 -0.13813410306E+03 -0.84102029374E+01  0.22083561622E+03  0.17168842053E+03 0.  0.
        -24    2    5    5    0    0  0.57704250086E+02 -0.69725771561E+02 -0.46201791848E+02  0.13008634087E+03  0.81218143372E+02 0.  0.
          5    1    3    3  501    0 -0.36414927113E+02 -0.16321281233E+02  0.16966477386E+02  0.43616309938E+02  0.47000000000E+01 0. -1.
        -11    1    4    4    0    0  0.16564948725E+02  0.48536914142E+02 -0.57614191334E+02  0.77133809732E+02  0.00000000000E+00 0.  1.
         12    1    4    4    0    0  0.80307690784E+01  0.10591847015E+03  0.44767059219E+01  0.10631677415E+03  0.00000000000E+00 0. -1.
         -5    1    5    5    0  502 -0.45885040777E+02 -0.68408331496E+02  0.37791588911E+02  0.90749275356E+02  0.47000000000E+01 0.  1.
         11    1    6    6    0    0  0.22376798370E+02 -0.32052797917E+02  0.21751041899E+02  0.44734894471E+02  0.00000000000E+00 0. -1.
        -12    1    6    6    0    0  0.35327451716E+02 -0.37672973644E+02 -0.67952833747E+02  0.85351446398E+02  0.00000000000E+00 0.  1.
</event>
<event>
12    1  0.8493057E-002  0.1749684E+03  0.7818608E-02  0.1172931E+00
         21   -1    0    0  501  502  0.00000000000E+00  0.00000000000E+00  0.13038888889E+03  0.13038888889E+03  0.00000000000E+00 0.  1.
         21   -1    0    0  502  503 -0.00000000000E+00 -0.00000000000E+00 -0.31769669523E+03  0.31769669523E+03  0.00000000000E+00 0.  1.
         -6    2    1    2    0  503 -0.21022726595E+02 -0.14389179439E+02 -0.20885114183E+03  0.27245684627E+03  0.17310381312E+03 0.  0.
        -24    2    3    3    0    0  0.56829105287E+01 -0.35896392440E+02 -0.36169616364E+02  0.96341115848E+02  0.81563000144E+02 0.  0.
          6    2    1    2  501    0  0.21022726595E+02  0.14389179439E+02  0.21543335490E+02  0.17562873784E+03  0.17243066645E+03 0.  0.
         24    2    5    5    0    0  0.75116392622E+02  0.15290196897E+02  0.38999926755E+02  0.11858700649E+03  0.81643256062E+02 0.  0.
          5    1    5    5  501    0 -0.54093666026E+02 -0.90101745855E+00 -0.17456591264E+02  0.57041731348E+02  0.47000000000E+01 0. -1.
        -13    1    6    6    0    0  0.59518023373E+02 -0.27554862331E+02  0.15963103112E+02  0.67501749646E+02  0.00000000000E+00 0.  1.
         14    1    6    6    0    0  0.15598369248E+02  0.42845059229E+02  0.23036823643E+02  0.51085256847E+02  0.00000000000E+00 0. -1.
         -5    1    3    3    0  503 -0.26705637124E+02  0.21507213001E+02 -0.17268152547E+03  0.17611573042E+03  0.47000000000E+01 0.  1.
         13    1    4    4    0    0  0.29720419706E+01 -0.58580817131E+02 -0.42732374262E+02  0.72571350953E+02  0.00000000000E+00 0. -1.
        -14    1    4    4    0    0  0.27108685580E+01  0.22684424691E+02  0.65627578975E+01  0.23769764894E+02  0.00000000000E+00 0.  1.
</event>
<event>
12    1  0.8493057E-002  0.2342514E+03  0.7818608E-02  0.1123697E+00
         21   -1    0    0  503  502  0.00000000000E+00  0.00000000000E+00  0.86824321845E+03  0.86824321845E+03  0.00000000000E+00 0.  1.
         21   -1    0    0  501  503 -0.00000000000E+00 -0.00000000000E+00 -0.86621033110E+02  0.86621033110E+02  0.00000000000E+00 0.  1.
          6    2    1    2  501    0  0.15324320108E+03  0.39878949655E+02  0.14239233867E+03  0.27406433557E+03  0.17251629666E+03 0.  0.
         24    2    3    3    0    0  0.90046042582E+02  0.58052045302E+02  0.19814905774E+02  0.13488294563E+03  0.79513827627E+02 0.  0.
         -6    2    1    2    0  502 -0.15324320108E+03 -0.39878949655E+02  0.63922984667E+03  0.68079991600E+03  0.17262653168E+03 0.  0.
        -24    2    5    5    0    0 -0.13861457730E+02 -0.35702981326E+01  0.13057425162E+03  0.15212402953E+03  0.76728079176E+02 0.  0.
          5    1    3    3  501    0  0.63197158501E+02 -0.18173095647E+02  0.12257743290E+03  0.13918138993E+03  0.47000000000E+01 0. -1.
        -13    1    4    4    0    0  0.89267924597E+02  0.46929879737E+02  0.42627932172E+02  0.10949117122E+03  0.00000000000E+00 0.  1.
         14    1    4    4    0    0  0.77811798571E+00  0.11122165566E+02 -0.22813026399E+02  0.25391774415E+02  0.00000000000E+00 0. -1.
         -5    1    5    5    0  502 -0.13938174335E+03 -0.36308651523E+02  0.50865559506E+03  0.52867588647E+03  0.47000000000E+01 0.  1.
         13    1    6    6    0    0  0.18232196962E+02  0.73074893643E+01  0.11154183463E+03  0.11325808262E+03  0.00000000000E+00 0. -1.
        -14    1    6    6    0    0 -0.32093654692E+02 -0.10877787497E+02  0.19032416992E+02  0.38865946906E+02  0.00000000000E+00 0.  1.
</event>
<event>
12    1  0.8493057E-002  0.3076163E+03  0.7818608E-02  0.1082035E+00
         21   -1    0    0  503  502  0.00000000000E+00  0.00000000000E+00  0.96971203996E+03  0.96971203996E+03  0.00000000000E+00 0.  1.
         21   -1    0    0  501  503 -0.00000000000E+00 -0.00000000000E+00 -0.97456674653E+02  0.97456674653E+02  0.00000000000E+00 0. -1.
          6    2    1    2  501    0  0.17381549972E+03 -0.18698990013E+03  0.37199192329E+03  0.47989423180E+03  0.16353419222E+03 0.  0.
         24    2    3    3    0    0  0.15944668406E+03 -0.81166458422E+02  0.23210568404E+03  0.30383937213E+03  0.80212695167E+02 0.  0.
         -6    2    1    2    0  502 -0.17381549972E+03  0.18698990013E+03  0.50026344201E+03  0.58727448281E+03  0.17161222583E+03 0.  0.
        -24    2    5    5    0    0 -0.10407103999E+03  0.97088231262E+02  0.15807781926E+03  0.22663658943E+03  0.78221740649E+02 0.  0.
          5    1    3    3  501    0  0.14368815658E+02 -0.10582344171E+03  0.13988623926E+03  0.17605485967E+03  0.47000000000E+01 0. -1.
        -11    1    4    4    0    0  0.12939998717E+02 -0.41680815285E+02  0.62982036264E+02  0.76625523304E+02  0.00000000000E+00 0.  1.
         12    1    4    4    0    0  0.14650668534E+03 -0.39485643136E+02  0.16912364777E+03  0.22721384883E+03  0.00000000000E+00 0. -1.
         -5    1    5    5    0  502 -0.69744459725E+02  0.89901668869E+02  0.34218562275E+03  0.36063789338E+03  0.47000000000E+01 0.  1.
         13    1    6    6    0    0 -0.10864708684E+03  0.10594388744E+03  0.15282593250E+03  0.21536959490E+03  0.00000000000E+00 0. -1.
        -14    1    6    6    0    0  0.45760468502E+01 -0.88556561745E+01  0.52518867648E+01  0.11266994526E+02  0.00000000000E+00 0.  1.
</event>
<event>
12    1  0.8493057E-002  0.2039786E+03  0.7818608E-02  0.1146532E+00
         21   -1    0    0  501  502  0.00000000000E+00  0.00000000000E+00  0.11300745779E+04  0.11300745779E+04  0.00000000000E+00 0.  1.
         21   -1    0    0  502  503 -0.00000000000E+00 -0.00000000000E+00 -0.51397912956E+02  0.51397912956E+02  0.00000000000E+00 0.  1.
         -6    2    1    2    0  503  0.11131452483E+02  0.10799632252E+03  0.22419466432E+03  0.30310151617E+03  0.17268516636E+03 0.  0.
        -24    2    3    3    0    0  0.10092461519E+01  0.45824582394E+02  0.22158280334E+03  0.23988208759E+03  0.79646508292E+02 0.  0.
          6    2    1    2  501    0 -0.11131452483E+02 -0.10799632252E+03  0.85448200067E+03  0.87837097473E+03  0.17207255699E+03 0.  0.
         24    2    5    5    0    0 -0.16152948408E+02 -0.26348348653E+00  0.20606963732E+03  0.22103372265E+03  0.78295746743E+02 0.  0.
          5    1    5    5  501    0  0.50214959252E+01 -0.10773283903E+03  0.64841236336E+03  0.65733725209E+03  0.47000000000E+01 0. -1.
        -11    1    6    6    0    0  0.10227216968E+02  0.15190259949E+02  0.17978388621E+03  0.18071409935E+03  0.00000000000E+00 0.  1.
         12    1    6    6    0    0 -0.26380165376E+02 -0.15453743435E+02  0.26285751107E+02  0.40319623295E+02  0.00000000000E+00 0. -1.
         -5    1    3    3    0  503  0.10122206331E+02  0.62171740125E+02  0.26118609755E+01  0.63219428572E+02  0.47000000000E+01 0.  1.
         13    1    4    4    0    0  0.40179968125E+01  0.65998819802E+02  0.19775489998E+03  0.20851616000E+03  0.00000000000E+00 0. -1.
        -14    1    4    4    0    0 -0.30087506607E+01 -0.20174237408E+02  0.23827903362E+02  0.31365927599E+02  0.00000000000E+00 0.  1.
</event>
<event>
12    1  0.8493057E-002  0.2648992E+03  0.7818608E-02  0.1104643E+00
         21   -1    0    0  501  502  0.00000000000E+00  0.00000000000E+00  0.54311453847E+03  0.54311453847E+03  0.00000000000E+00 0. -1.
         21   -1    0    0  502  503 -0.00000000000E+00 -0.00000000000E+00 -0.29385876205E+03  0.29385876205E+03  0.00000000000E+00 0.  1.
         -6    2    1    2    0  503  0.15650775496E+03  0.12097265865E+03 -0.18962196010E+03  0.32577304482E+03  0.17618889714E+03 0.  0.
        -24    2    3    3    0    0  0.12902178230E+03  0.97486279570E+02 -0.58526448166E+02  0.18970243100E+03  0.80071669030E+02 0.  0.
          6    2    1    2  501    0 -0.15650775496E+03 -0.12097265865E+03  0.43887773652E+03  0.51120025570E+03  0.17199701251E+03 0.  0.
         24    2    5    5    0    0 -0.89645249137E+02 -0.88999434246E+02  0.14474724693E+03  0.20783955180E+03  0.79299078249E+02 0.  0.
          5    1    5    5  501    0 -0.66862505826E+02 -0.31973224403E+02  0.29413048959E+03  0.30336070390E+03  0.47000000000E+01 0. -1.
        -13    1    6    6    0    0 -0.10409781681E+03 -0.79518717838E+02  0.13448164203E+03  0.18773623517E+03  0.00000000000E+00 0.  1.
         14    1    6    6    0    0  0.14452567671E+02 -0.94807164082E+01  0.10265604900E+02  0.20103316639E+02  0.00000000000E+00 0. -1.
         -5    1    3    3    0  503  0.27485972664E+02  0.23486379078E+02 -0.13109551193E+03  0.13607061382E+03  0.47000000000E+01 0.  1.
         11    1    4    4    0    0  0.44637563803E+02  0.66605636187E+02  0.39224956891E+01  0.80275829778E+02  0.00000000000E+00 0. -1.
        -12    1    4    4    0    0  0.84384218496E+02  0.30880643384E+02 -0.62448943855E+02  0.10942660122E+03  0.00000000000E+00 0.  1.
</event>
<event>
12    1  0.8493057E-002  0.2045017E+03  0.7818608E-02  0.1146311E+00
         21   -1    0    0  501  502  0.00000000000E+00  0.00000000000E+00  0.30217448008E+03  0.30217448008E+03  0.00000000000E+00 0.  1.
         21   -1    0    0  502  503 -0.00000000000E+00 -0.00000000000E+00 -0.49123109587E+03  0.49123109587E+03  0.00000000000E+00 0. -1.
         -6    2    1    2    0  503  0.93030751384E+02 -0.56795664102E+02 -0.43132561406E+03  0.47734970334E+03  0.17303319268E+03 0.  0.
        -24    2    3    3    0    0  0.59841886633E+02 -0.79910540072E+02 -0.41437013994E+03  0.43324328275E+03  0.77655543031E+02 0.  0.
          6    2    1    2  501    0 -0.93030751384E+02  0.56795664102E+02  0.24226899827E+03  0.31605587261E+03  0.17122084840E+03 0.  0.
         24    2    5    5    0    0 -0.96949566490E+02  0.87921887657E+02  0.23929142025E+03  0.28419437743E+03  0.79853513288E+02 0.  0.
          5    1    5    5  501    0  0.39188151059E+01 -0.31126223555E+02  0.29775780174E+01  0.31861495186E+02  0.47000000000E+01 0. -1.
        -13    1    6    6    0    0  0.24385135477E+01  0.42189823981E+02  0.49110444685E+02  0.64790148734E+02  0.00000000000E+00 0.  1.
         14    1    6    6    0    0 -0.99388080038E+02  0.45732063677E+02  0.19018097556E+03  0.21940422869E+03  0.00000000000E+00 0. -1.
         -5    1    3    3    0  503  0.33188864752E+02  0.23114875969E+02 -0.16955474118E+02  0.44106420589E+02  0.47000000000E+01 0.  1.
         13    1    4    4    0    0  0.42005540618E+02 -0.45289185952E+02 -0.10807485533E+03  0.12448192704E+03  0.00000000000E+00 0. -1.
        -14    1    4    4    0    0  0.17836346014E+02 -0.34621354120E+02 -0.30629528462E+03  0.30876135571E+03  0.00000000000E+00 0.  1.
</event>
<event>
12    1  0.8493057E-002  0.2035994E+03  0.7818608E-02  0.1147080E+00
         21   -1    0    0  501  502  0.00000000000E+00  0.00000000000E+00  0.13943502142E+03  0.13943502142E+03  0.00000000000E+00 0.  1.
         21   -1    0    0  502  503 -0.00000000000E+00 -0.00000000000E+00 -0.43410684222E+03  0.43410684222E+03  0.00000000000E+00 0.  1.
         -6    2    1    2    0  503  0.48234471456E+02 -0.95229565082E+02 -0.31015060465E+03  0.37100691374E+03  0.17337098424E+03 0.  0.
        -24    2    3    3    0    0  0.10900900855E+02  0.50013265765E+01 -0.63427956338E+02  0.10205676533E+03  0.79048306740E+02 0.  0.
          6    2    1    2  501    0 -0.48234471456E+02  0.95229565082E+02  0.15478783849E+02  0.20253494990E+03  0.17142222400E+03 0.  0.
         24    2    5    5    0    0 -0.19768691917E+02  0.11516466777E+03 -0.29443875205E+02  0.14554508922E+03  0.81625543355E+02 0.  0.
          5    1    5    5  501    0 -0.28465779539E+02 -0.19935102685E+02  0.44922659053E+02  0.56989860679E+02  0.47000000000E+01 0. -1.
        -13    1    6    6    0    0 -0.11085137837E+02  0.44123230742E+02  0.28305892061E+02  0.53581370805E+02  0.00000000000E+00 0.  1.
         14    1    6    6    0    0 -0.86835540802E+01  0.71041437025E+02 -0.57749767266E+02  0.91963718419E+02  0.00000000000E+00 0. -1.
         -5    1    3    3    0  503  0.37333570601E+02 -0.10023089166E+03 -0.24672264831E+03  0.26895014841E+03  0.47000000000E+01 0.  1.
         11    1    4    4    0    0  0.34876039457E+02  0.42988934054E+01 -0.68999957189E+02  0.77432633332E+02  0.00000000000E+00 0. -1.
        -12    1    4    4    0    0 -0.23975138603E+02  0.70243317107E+00  0.55720008508E+01  0.24624132002E+02  0.00000000000E+00 0.  1.
</event>
<event>
12    1  0.8493057E-002  0.2425339E+03  0.7818608E-02  0.1118836E+00
         21   -1    0    0  501  502  0.00000000000E+00  0.00000000000E+00  0.26593201339E+03  0.26593201339E+03  0.00000000000E+00 0. -1.
         21   -1    0    0  502  503 -0.00000000000E+00 -0.00000000000E+00 -0.21753745701E+03  0.21753745701E+03  0.00000000000E+00 0. -1.
         -6    2    1    2    0  503  0.15707242906E+03 -0.60071777084E+02  0.15677636862E+02  0.24304009232E+03  0.17476364555E+03 0.  0.
        -24    2    3    3    0    0  0.48386270225E+02  0.29161854486E+02 -0.15102796199E+02  0.99009376207E+02  0.79894412949E+02 0.  0.
          6    2    1    2  501    0 -0.15707242906E+03  0.60071777084E+02  0.32716919512E+02  0.24042937808E+03  0.16868764819E+03 0.  0.
         24    2    5    5    0    0 -0.16794103155E+03  0.57304900664E+02 -0.11513510638E+02  0.19455778473E+03  0.78943834163E+02 0.  0.
          5    1    5    5  501    0  0.10868602496E+02  0.27668764201E+01  0.44230430150E+02  0.45871593352E+02  0.47000000000E+01 0. -1.
        -11    1    6    6    0    0 -0.23382032654E+02  0.30529730350E+02  0.21246916135E+02  0.43934215955E+02  0.00000000000E+00 0.  1.
         12    1    6    6    0    0 -0.14455899890E+03  0.26775170314E+02 -0.32760426773E+02  0.15062356878E+03  0.00000000000E+00 0. -1.
         -5    1    3    3    0  503  0.10868615883E+03 -0.89233631570E+02  0.30780433061E+02  0.14403071611E+03  0.47000000000E+01 0.  1.
         11    1    4    4    0    0  0.57988071793E+02  0.24172102269E+02  0.17039761808E+02  0.65094243070E+02  0.00000000000E+00 0. -1.
        -12    1    4    4    0    0 -0.96018015672E+01  0.49897522172E+01 -0.32142558007E+02  0.33915133137E+02  0.00000000000E+00 0.  1.
</event>
<event>
12    1  0.8493057E-002  0.2253786E+03  0.7818608E-02  0.1130000E+00
         21   -1    0    0  503  502  0.00000000000E+00  0.00000000000E+00  0.46075788348E+03  0.46075788348E+03  0.00000000000E+00 0. -1.
         21   -1    0    0  501  503 -0.00000000000E+00 -0.00000000000E+00 -0.25236872877E+03  0.25236872877E+03  0.00000000000E+00 0.  1.
          6    2    1    2  501    0  0.31466838282E+02  0.14098326165E+03 -0.16358773211E+03  0.27819865318E+03  0.17253145382E+03 0.  0.
         24    2    3    3    0    0 -0.10114582820E+02  0.15585906818E+02 -0.21395814828E+02  0.84048859156E+02  0.79127773609E+02 0.  0.
         -6    2    1    2    0  502 -0.31466838282E+02 -0.14098326165E+03  0.37197688681E+03  0.43492795907E+03  0.17300024070E+03 0.  0.
        -24    2    5    5    0    0 -0.87775178765E+01 -0.15835046341E+01  0.10910984353E+03  0.13648488249E+03  0.81508360832E+02 0.  0.
          5    1    3    3  501    0  0.41581421102E+02  0.12539735483E+03 -0.14219191728E+03  0.19414979402E+03  0.47000000000E+01 0. -1.
        -13    1    4    4    0    0  0.33480149043E+02 -0.31263170606E+01 -0.11881594689E+02  0.35663237804E+02  0.00000000000E+00 0.  1.
         14    1    4    4    0    0 -0.43594731864E+02  0.18712223879E+02 -0.95142201392E+01  0.48385621352E+02  0.00000000000E+00 0. -1.
         -5    1    5    5    0  502 -0.22689320406E+02 -0.13939975701E+03  0.26286704329E+03  0.29844307659E+03  0.47000000000E+01 0.  1.
         11    1    6    6    0    0  0.23477596434E+02 -0.14460591546E+02  0.95131251308E+02  0.99046762782E+02  0.00000000000E+00 0. -1.
        -12    1    6    6    0    0 -0.32255114310E+02  0.12877086912E+02  0.13978592219E+02  0.37438119703E+02  0.00000000000E+00 0.  1.
</event>
<event>
12    1  0.8493057E-002  0.1747751E+03  0.7818608E-02  0.1172976E+00
         21   -1    0    0  503  502  0.00000000000E+00  0.00000000000E+00  0.96726287791E+02  0.96726287791E+02  0.00000000000E+00 0.  1.
         21   -1    0    0  501  503 -0.00000000000E+00 -0.00000000000E+00 -0.53861825240E+03  0.53861825240E+03  0.00000000000E+00 0.  1.
          6    2    1    2  501    0 -0.15643572715E+02  0.23237052014E+02 -0.42535490176E+03  0.45986207710E+03  0.17251566753E+03 0.  0.
         24    2    3    3    0    0  0.52321979324E+02  0.15749895870E+02 -0.31488579342E+03  0.32985866302E+03  0.81657981466E+02 0.  0.
         -6    2    1    2    0  502  0.15643572715E+02 -0.23237052014E+02 -0.16537062843E+02  0.17548246309E+03  0.17244111590E+03 0.  0.
        -24    2    5    5    0    0  0.29111381297E+02 -0.34793536779E+02 -0.74472499642E+02  0.11470796972E+03  0.74523166804E+02 0.  0.
          5    1    3    3  501    0 -0.67965552039E+02  0.74871561434E+01 -0.11046910835E+03  0.13000341407E+03  0.47000000000E+01 0. -1.
        -13    1    4    4    0    0  0.19197843102E+02  0.74038351742E+01 -0.28096832985E+03  0.28172074175E+03  0.00000000000E+00 0.  1.
         14    1    4    4    0    0  0.33124136222E+02  0.83460606962E+01 -0.33917463564E+02  0.48137921270E+02  0.00000000000E+00 0. -1.
         -5    1    5    5    0  502 -0.13467808582E+02  0.11556484765E+02  0.57935436799E+02  0.60774493377E+02  0.47000000000E+01 0.  1.
         13    1    6    6    0    0 -0.18000709821E+02 -0.24488130862E+01  0.30272836056E+01  0.18417021627E+02  0.00000000000E+00 0. -1.
        -14    1    6    6    0    0  0.47112091118E+02 -0.32344723693E+02 -0.77499783248E+02  0.96290948088E+02  0.00000000000E+00 0.  1.
</event>
<event>
12    1  0.8493057E-002  0.1907003E+03  0.7818608E-02  0.1159544E+00
         21   -1    0    0  501  502  0.00000000000E+00  0.00000000000E+00  0.44483925546E+03  0.44483925546E+03  0.00000000000E+00 0. -1.
         21   -1    0    0  502  503 -0.00000000000E+00 -0.00000000000E+00 -0.82560721083E+02  0.82560721083E+02  0.00000000000E+00 0. -1.
         -6    2    1    2    0  503  0.44365730607E+02  0.44251437397E+02  0.11981357974E+03  0.21892656090E+03  0.17218315078E+03 0.  0.
        -24    2    3    3    0    0  0.68076446557E+02  0.37165360239E+02  0.14524407597E+03  0.18313255751E+03  0.80162493976E+02 0.  0.
          6    2    1    2  501    0 -0.44365730607E+02 -0.44251437397E+02  0.24246495463E+03  0.30847341564E+03  0.18011131604E+03 0.  0.
         24    2    5    5    0    0 -0.10446692177E+02 -0.44601185482E+02  0.25570864194E+03  0.27175681523E+03  0.79790086743E+02 0.  0.
          5    1    5    5  501    0 -0.33919038431E+02  0.34974808434E+00 -0.13243687303E+02  0.36716600403E+02  0.47000000000E+01 0. -1.
        -11    1    6    6    0    0 -0.26681342004E+02  0.11811017949E+02  0.50567676642E+02  0.58382223982E+02  0.00000000000E+00 0.  1.
         12    1    6    6    0    0  0.16234649827E+02 -0.56412203430E+02  0.20514096529E+03  0.21337459125E+03  0.00000000000E+00 0. -1.
         -5    1    3    3    0  503 -0.23710715949E+02  0.70860771581E+01 -0.25430496225E+02  0.35794003388E+02  0.47000000000E+01 0.  1.
         13    1    4    4    0    0  0.14709358045E+02  0.53624277849E+02  0.68792246977E+02  0.88455082573E+02  0.00000000000E+00 0. -1.
        -14    1    4    4    0    0  0.53367088511E+02 -0.16458917610E+02  0.76451828989E+02  0.94677474939E+02  0.00000000000E+00 0.  1.
</event>
<event>
12    1  0.8493057E-002  0.1843458E+03  0.7818608E-02  0.1163924E+00
         21   -1    0    0  501  502  0.00000000000E+00  0.00000000000E+00  0.25583345318E+03  0.25583345318E+03  0.00000000000E+00 0. -1.
         21   -1    0    0  502  503 -0.00000000000E+00 -0.00000000000E+00 -0.14708999176E+03  0.14708999176E+03  0.00000000000E+00 0. -1.
         -6    2    1    2    0  503  0.53030480287E+02  0.38657144159E+02  0.11867673572E+03  0.21831025921E+03  0.17108066823E+03 0.  0.
        -24    2    3    3    0    0  0.25801196931E+02  0.27320963521E+02 -0.77143339107E+01  0.88438263210E+02  0.79684870842E+02 0.  0.
          6    2    1    2  501    0 -0.53030480287E+02 -0.38657144159E+02 -0.99332743040E+01  0.18461318573E+03  0.17226941624E+03 0.  0.
         24    2    5    5    0    0 -0.73100551191E+01 -0.44490441579E+02  0.52088512273E+02  0.10719757589E+03  0.82129598001E+02 0.  0.
          5    1    5    5  501    0 -0.45720425167E+02  0.58332974199E+01 -0.62021786577E+02  0.77415609837E+02  0.47000000000E+01 0. -1.
        -11    1    6    6    0    0  0.32136074890E+02 -0.42460043599E+02  0.22325169517E+02  0.57740763813E+02  0.00000000000E+00 0.  1.
         12    1    6    6    0    0 -0.39446130010E+02 -0.20303979804E+01  0.29763342755E+02  0.49456812075E+02  0.00000000000E+00 0. -1.
         -5    1    3    3    0  503  0.27229283356E+02  0.11336180638E+02  0.12639106963E+03  0.12987199600E+03  0.47000000000E+01 0.  1.
         11    1    4    4    0    0  0.85279359880E+01  0.54896371928E+02 -0.43031507998E+01  0.55721220822E+02  0.00000000000E+00 0. -1.
        -12    1    4    4    0    0  0.17273260943E+02 -0.27575408407E+02 -0.34111831109E+01  0.32717042388E+02  0.00000000000E+00 0.  1.
</event>
<event>
12    1  0.8493057E-002  0.1911530E+03  0.7818608E-02  0.1157644E+00
         21   -1    0    0  501  502  0.00000000000E+00  0.00000000000E+00  0.82449162300E+02  0.82449162300E+02  0.00000000000E+00 0. -1.
         21   -1    0    0  502  503 -0.00000000000E+00 -0.00000000000E+00 -0.10837442271E+04  0.10837442271E+04  0.00000000000E+00 0. -1.
         -6    2    1    2    0  503 -0.82848003951E+02 -0.11076666759E+02 -0.95024668196E+03  0.96928233132E+03  0.17190985113E+03 0.  0.
        -24    2    3    3    0    0 -0.12397588397E+03 -0.18987527053E+02 -0.74498933336E+03  0.75974294748E+03  0.80434404501E+02 0.  0.
          6    2    1    2  501    0  0.82848003951E+02  0.11076666759E+02 -0.51048382876E+02  0.19691105812E+03  0.17082606099E+03 0.  0.
         24    2    5    5    0    0  0.56842325649E+02 -0.54897027804E+00  0.34995639329E+02  0.10615250757E+03  0.82536711461E+02 0.  0.
          5    1    5    5  501    0  0.26005678301E+02  0.11625637037E+02 -0.86044022205E+02  0.90758550549E+02  0.47000000000E+01 0. -1.
        -11    1    6    6    0    0  0.36473248347E+02 -0.33375023964E+02 -0.60245108001E+01  0.49804465663E+02  0.00000000000E+00 0.  1.
         12    1    6    6    0    0  0.20369077302E+02  0.32826053685E+02  0.41020150129E+02  0.56348041912E+02  0.00000000000E+00 0. -1.
         -5    1    3    3    0  503  0.41127880018E+02  0.79108602944E+01 -0.20525734860E+03  0.20953938384E+03  0.47000000000E+01 0.  1.
         13    1    4    4    0    0 -0.46275325465E+02 -0.49871453260E+01 -0.50412635111E+03  0.50627033811E+03  0.00000000000E+00 0. -1.
        -14    1    4    4    0    0 -0.77700558504E+02 -0.14000381727E+02 -0.24086298225E+03  0.25347260937E+03  0.00000000000E+00 0.  1.
</event>
<event>
12    1  0.8493057E-002  0.2756167E+03  0.7818608E-02  0.1098323E+00
         21   -1    0    0  503  502  0.00000000000E+00  0.00000000000E+00  0.52655681258E+02  0.52655681258E+02  0.00000000000E+00 0. -1.
         21   -1    0    0  501  503 -0.00000000000E+00 -0.00000000000E+00 -0.17681904029E+04  0.17681904029E+04  0.00000000000E+00 0. -1.
          6    2    1    2  501    0  0.15954380323E+03 -0.14172065349E+03 -0.12551750958E+04  0.12850794188E+04  0.17442942063E+03 0.  0.
         24    2    3    3    0    0  0.95925473790E+02 -0.98987667370E+02 -0.11062215496E+04  0.11175006348E+04  0.77982671558E+02 0.  0.
         -6    2    1    2    0  502 -0.15954380323E+03  0.14172065349E+03 -0.46035962583E+03  0.53576666533E+03  0.17197664321E+03 0.  0.
        -24    2    5    5    0    0 -0.18851892150E+03  0.11645545799E+03 -0.39985434758E+03  0.46392749580E+03  0.79018761192E+02 0.  0.
          5    1    3    3  501    0  0.63618329440E+02 -0.42732986116E+02 -0.14895354620E+03  0.16757878407E+03  0.47000000000E+01 0. -1.
        -11    1    4    4    0    0  0.87243890099E+00 -0.18227714970E+02 -0.39498374561E+02  0.43510140607E+02  0.00000000000E+00 0.  1.
         12    1    4    4    0    0  0.95053034889E+02 -0.80759952399E+02 -0.10667231751E+04  0.10739904942E+04  0.00000000000E+00 0. -1.
         -5    1    5    5    0  502  0.28975118272E+02  0.25265195500E+02 -0.60505278248E+02  0.71839169528E+02  0.47000000000E+01 0.  1.
         13    1    6    6    0    0 -0.13590787724E+03  0.11177603575E+03 -0.25567707416E+03  0.31037976660E+03  0.00000000000E+00 0. -1.
        -14    1    6    6    0    0 -0.52611044262E+02  0.46794222348E+01 -0.14417727343E+03  0.15354772920E+03  0.00000000000E+00 0.  1.
</event>
<event>
12    1  0.8493057E-002  0.2198513E+03  0.7818608E-02  0.1134105E+00
         21   -1    0    0  501  502  0.00000000000E+00  0.00000000000E+00  0.29063191263E+03  0.29063191263E+03  0.00000000000E+00 0.  1.
         21   -1    0    0  502  503 -0.00000000000E+00 -0.00000000000E+00 -0.16701448642E+03  0.16701448642E+03  0.00000000000E+00 0.  1.
         -6    2    1    2    0  503  0.13639938815E+03 -0.83262870503E+01  0.80909944858E+02  0.23426693333E+03  0.17222211452E+03 0.  0.
        -24    2    3    3    0    0  0.10468958558E+03 -0.69142559260E+02  0.38044529912E+02  0.15325048844E+03  0.79358195039E+02 0.  0.
          6    2    1    2  501    0 -0.13639938815E+03  0.83262870503E+01  0.42707481348E+02  0.22337946572E+03  0.17146526353E+03 0.  0.
         24    2    5    5    0    0 -0.14818157834E+02  0.27511310441E+02  0.56244484415E+02  0.99462553472E+02  0.75847923586E+02 0.  0.
          5    1    5    5  501    0 -0.12158123032E+03 -0.19185023391E+02 -0.13537003067E+02  0.12391691225E+03  0.47000000000E+01 0. -1.
        -13    1    6    6    0    0 -0.24179422504E+02  0.19359873378E+02  0.72599076558E+02  0.78930824695E+02  0.00000000000E+00 0.  1.
         14    1    6    6    0    0  0.93612646700E+01  0.81514370633E+01 -0.16354592143E+02  0.20531728777E+02  0.00000000000E+00 0. -1.
         -5    1    3    3    0  503  0.31709802575E+02  0.60816272210E+02  0.42865414946E+02  0.81016444894E+02  0.47000000000E+01 0.  1.
         11    1    4    4    0    0  0.57047367377E+02 -0.59916087792E+02  0.57730769416E+02  0.10088201742E+03  0.00000000000E+00 0. -1.
        -12    1    4    4    0    0  0.47642218203E+02 -0.92264714680E+01 -0.19686239503E+02  0.52368471018E+02  0.00000000000E+00 0.  1.
</event>
<event>
12    1  0.8493057E-002  0.1841041E+03  0.7818608E-02  0.1164069E+00
         21   -1    0    0  503  502  0.00000000000E+00  0.00000000000E+00  0.12733199807E+03  0.12733199807E+03  0.00000000000E+00 0. -1.
         21   -1    0    0  501  503 -0.00000000000E+00 -0.00000000000E+00 -0.26515241776E+03  0.26515241776E+03  0.00000000000E+00 0. -1.
          6    2    1    2  501    0  0.26258004621E+02 -0.63055150349E+02 -0.71837037169E+02  0.19691314960E+03  0.17014345060E+03 0.  0.
         24    2    3    3    0    0  0.20010472118E+02 -0.43660343137E+02 -0.11501184612E+03  0.14894082073E+03  0.81541393021E+02 0.  0.
         -6    2    1    2    0  502 -0.26258004621E+02  0.63055150349E+02 -0.65983382521E+02  0.19557126624E+03  0.17096455368E+03 0.  0.
        -24    2    5    5    0    0  0.13819519439E+02 -0.22800674568E+02 -0.63998917130E+01  0.83545764748E+02  0.78918225494E+02 0.  0.
          5    1    3    3  501    0  0.62475325027E+01 -0.19394807212E+02  0.43174808947E+02  0.47972328866E+02  0.47000000000E+01 0. -1.
        -11    1    4    4    0    0  0.41320796644E+01 -0.30025886979E+02  0.17103783595E+01  0.30357097446E+02  0.00000000000E+00 0.  1.
         12    1    4    4    0    0  0.15878392454E+02 -0.13634456158E+02 -0.11672222448E+03  0.11858372329E+03  0.00000000000E+00 0. -1.
         -5    1    5    5    0  502 -0.40077524060E+02  0.85855824917E+02 -0.59583490808E+02  0.11202550149E+03  0.47000000000E+01 0.  1.
         13    1    6    6    0    0 -0.26953609776E+02 -0.27831556688E+02  0.88192752158E+01  0.39735025392E+02  0.00000000000E+00 0. -1.
        -14    1    6    6    0    0  0.40773129215E+02  0.50308821196E+01 -0.15219166929E+02  0.43810739355E+02  0.00000000000E+00 0.  1.
</event>
<event>
12    1  0.8493057E-002  0.1857854E+03  0.7818608E-02  0.1162563E+00
         21   -1    0    0  503  502  0.00000000000E+00  0.00000000000E+00  0.12029960072E+03  0.12029960072E+03  0.00000000000E+00 0.  1.
         21   -1    0    0  501  503 -0.00000000000E+00 -0.00000000000E+00 -0.28764521755E+03  0.28764521755E+03  0.00000000000E+00 0.  1.
          6    2    1    2  501    0  0.61050784255E+02  0.26633685383E+02 -0.65499985420E+02  0.19699358876E+03  0.17343492863E+03 0.  0.
         24    2    3    3    0    0  0.21465700076E+02  0.48458888799E+02  0.31255210847E+02  0.90096552329E+02  0.65813831016E+02 0.  0.
         -6    2    1    2    0  502 -0.61050784255E+02 -0.26633685383E+02 -0.10184563141E+03  0.21095122950E+03  0.17231174405E+03 0.  0.
        -24    2    5    5    0    0 -0.46978765416E+02 -0.53942833763E+02 -0.28346755876E+01  0.10717709654E+03  0.79762528315E+02 0.  0.
          5    1    3    3  501    0  0.39585084179E+02 -0.21825203416E+02 -0.96755196267E+02  0.10689703643E+03  0.47000000000E+01 0. -1.
        -11    1    4    4    0    0  0.16453415089E+02  0.15770095364E+02  0.47920499461E+02  0.53063971247E+02  0.00000000000E+00 0.  1.
         12    1    4    4    0    0  0.50122849867E+01  0.32688793435E+02 -0.16665288614E+02  0.37032581082E+02  0.00000000000E+00 0. -1.
         -5    1    5    5    0  502 -0.14072018839E+02  0.27309148380E+02 -0.99010955820E+02  0.10377413296E+03  0.47000000000E+01 0.  1.
         11    1    6    6    0    0 -0.44631335356E+02  0.59136207586E+01  0.95124591791E+01  0.46015365757E+02  0.00000000000E+00 0. -1.
        -12    1    6    6    0    0 -0.23474300601E+01 -0.59856454521E+02 -0.12347134767E+02  0.61161730786E+02  0.00000000000E+00 0.  1.
</event>
<event>
12    1  0.8493057E-002  0.2071288E+03  0.7818608E-02  0.1146585E+00
         21   -1    0    0  503  502  0.00000000000E+00  0.00000000000E+00  0.43225575151E+03  0.43225575151E+03  0.00000000000E+00 0. -1.
         21   -1    0    0  501  503 -0.00000000000E+00 -0.00000000000E+00 -0.16997161178E+03  0.16997161178E+03  0.00000000000E+00 0.  1.
          6    2    1    2  501    0  0.67697062621E+00 -0.11521433767E+03 -0.68970555053E+02  0.21831009253E+03  0.17212657303E+03 0.  0.
         24    2    3    3    0    0 -0.11376187029E+02 -0.13584824792E+03 -0.93662491908E+02  0.18362841715E+03  0.79765713826E+02 0.  0.
         -6    2    1    2    0  502 -0.67697062621E+00  0.11521433767E+03  0.33125469479E+03  0.38391727076E+03  0.15616656515E+03 0.  0.
        -24    2    5    5    0    0  0.26418656468E+02  0.41174387758E+02  0.89680640549E+02  0.12975944406E+03  0.80010126957E+02 0.  0.
          5    1    3    3  501    0  0.12053157655E+02  0.20633910244E+02  0.24691936855E+02  0.34681675379E+02  0.47000000000E+01 0. -1.
        -11    1    4    4    0    0 -0.34833057024E+02 -0.42276098002E+02 -0.60514120166E+02  0.81624561643E+02  0.00000000000E+00 0.  1.
         12    1    4    4    0    0  0.23456869995E+02 -0.93572149916E+02 -0.33148371742E+02  0.10200385551E+03  0.00000000000E+00 0. -1.
         -5    1    5    5    0  502 -0.27095627095E+02  0.74039949917E+02  0.24157405424E+03  0.25415782670E+03  0.47000000000E+01 0.  1.
         13    1    6    6    0    0  0.33179676646E+02  0.47398992051E+02  0.10025330074E+03  0.11575093822E+03  0.00000000000E+00 0. -1.
        -14    1    6    6    0    0 -0.67610201773E+01 -0.62246042930E+01 -0.10572660186E+02  0.14008505840E+02  0.00000000000E+00 0.  1.
</event>
<event>
12    1  0.8493057E-002  0.1809804E+03  0.7818608E-02  0.1167074E+00
         21   -1    0    0  503  502  0.00000000000E+00  0.00000000000E+00  0.46448536139E+02  0.46448536139E+02  0.00000000000E+00 0.  1.
         21   -1    0    0  501  503 -0.00000000000E+00 -0.00000000000E+00 -0.74326767261E+03  0.74326767261E+03  0.00000000000E+00 0.  1.
          6    2    1    2  501    0 -0.48580737245E+02  0.32972149711E+02 -0.25416811898E+03  0.31149678346E+03  0.17023972131E+03 0.  0.
         24    2    3    3    0    0 -0.40414419949E+02  0.70556479434E+02 -0.84920549138E+02  0.13787045920E+03  0.72008483697E+02 0.  0.
         -6    2    1    2    0  502  0.48580737245E+02 -0.32972149711E+02 -0.44265101749E+03  0.47821942529E+03  0.17119183610E+03 0.  0.
        -24    2    5    5    0    0 -0.19877792042E+02  0.23572364106E+02 -0.27373791394E+03  0.28733312712E+03  0.81713508365E+02 0.  0.
          5    1    3    3  501    0 -0.81663172954E+01 -0.37584329724E+02 -0.16924756984E+03  0.17362632426E+03  0.47000000000E+01 0. -1.
        -11    1    4    4    0    0 -0.24541780290E+02 -0.23367450144E+01 -0.49474314437E+02  0.55276280140E+02  0.00000000000E+00 0.  1.
         12    1    4    4    0    0 -0.15872639660E+02  0.72893224449E+02 -0.35446234701E+02  0.82594179061E+02  0.00000000000E+00 0. -1.
         -5    1    5    5    0  502  0.68458529287E+02 -0.56544513816E+02 -0.16891310356E+03  0.19088629817E+03  0.47000000000E+01 0.  1.
         13    1    6    6    0    0 -0.44414442048E+02  0.21103958247E+02 -0.24300043611E+03  0.24792585921E+03  0.00000000000E+00 0. -1.
        -14    1    6    6    0    0  0.24536650005E+02  0.24684058585E+01 -0.30737477823E+02  0.39407267907E+02  0.00000000000E+00 0.  1.
</event>
<event>
12    1  0.8493057E-002  0.1785581E+03  0.7818608E-02  0.1169328E+00
         21   -1    0    0  501  502  0.00000000000E+00  0.00000000000E+00  0.13681352142E+03  0.13681352142E+03  0.00000000000E+00 0. -1.
         21   -1    0    0  502  503 -0.00000000000E+00 -0.00000000000E+00 -0.28938903421E+03  0.28938903421E+03  0.00000000000E+00 0. -1.
         -6    2    1    2    0  503  0.44686991520E+02 -0.16027123528E+02 -0.17095177067E+03  0.24719929161E+03  0.17213130447E+03 0.  0.
        -24    2    3    3    0    0  0.14455874197E+01  0.37571250975E+02 -0.15170372326E+03  0.17553910666E+03  0.79914139515E+02 0.  0.
          6    2    1    2  501    0 -0.44686991520E+02  0.16027123528E+02  0.18376257889E+02  0.17900326402E+03  0.17161202107E+03 0.  0.
         24    2    5    5    0    0  0.24263690894E+02  0.51028882743E+02 -0.13194480383E+02  0.95348489687E+02  0.75660865731E+02 0.  0.
          5    1    5    5  501    0 -0.68950682414E+02 -0.35001759216E+02  0.31570738273E+02  0.83654774332E+02  0.47000000000E+01 0. -1.
        -13    1    6    6    0    0 -0.18147723980E+02  0.16238820626E+02 -0.29375174205E+02  0.38156782366E+02  0.00000000000E+00 0.  1.
         14    1    6    6    0    0  0.42411414874E+02  0.34790062117E+02  0.16180693822E+02  0.57191707321E+02  0.00000000000E+00 0. -1.
         -5    1    3    3    0  503  0.43241404100E+02 -0.53598374503E+02 -0.19248047416E+02  0.71660184951E+02  0.47000000000E+01 0.  1.
         13    1    4    4    0    0 -0.10922347480E+01  0.36493088387E+02 -0.16090581439E+02  0.39897935884E+02  0.00000000000E+00 0. -1.
        -14    1    4    4    0    0  0.25378221678E+01  0.10781625879E+01 -0.13561314182E+03  0.13564117078E+03  0.00000000000E+00 0.  1.
</event>
<event>
12    1  0.8493057E-002  0.1978783E+03  0.7818608E-02  0.1151652E+00
         21   -1    0    0  503  502  0.00000000000E+00  0.00000000000E+00  0.30631663532E+02  0.30631663532E+02  0.00000000000E+00 0. -1.
         21   -1    0    0  501  503 -0.00000000000E+00 -0.00000000000E+00 -0.14281922260E+04  0.14281922260E+04  0.00000000000E+00 0.  1.
          6    2    1    2  501    0  0.97349230159E+02  0.19521907532E+02 -0.93853680362E+03  0.95917003714E+03  0.17116615003E+03 0.  0.
         24    2    3    3    0    0  0.12352462202E+03 -0.14413249876E+02 -0.60219536071E+03  0.62007653637E+03  0.79934876490E+02 0.  0.
         -6    2    1    2    0  502 -0.97349230159E+02 -0.19521907532E+02 -0.45902375886E+03  0.49965385240E+03  0.17056724051E+03 0.  0.
        -24    2    5    5    0    0 -0.44319296186E+02  0.53788842615E+02 -0.21766360226E+03  0.24184878035E+03  0.79094558604E+02 0.  0.
          5    1    3    3  501    0 -0.26175391859E+02  0.33935157408E+02 -0.33634144291E+03  0.33909350077E+03  0.47000000000E+01 0. -1.
        -11    1    4    4    0    0  0.71929594403E+02  0.16042310643E+02 -0.45859451659E+03  0.46447836648E+03  0.00000000000E+00 0.  1.
         12    1    4    4    0    0  0.51595027615E+02 -0.30455560519E+02 -0.14360084412E+03  0.15559816989E+03  0.00000000000E+00 0. -1.
         -5    1    5    5    0  502 -0.53029933973E+02 -0.73310750147E+02 -0.24136015660E+03  0.25780507205E+03  0.47000000000E+01 0.  1.
         13    1    6    6    0    0  0.19954205186E+02  0.60714064372E+01 -0.79301254824E+02  0.81998300576E+02  0.00000000000E+00 0. -1.
        -14    1    6    6    0    0 -0.64273501372E+02  0.47717436178E+02 -0.13836234744E+03  0.15985047977E+03  0.00000000000E+00 0.  1.
</event>
<event>
12    1  0.8493057E-002  0.1803495E+03  0.7818608E-02  0.1168517E+00
         21   -1    0    0  503  502  0.00000000000E+00  0.00000000000E+00  0.10903767508E+03  0.10903767508E+03  0.00000000000E+00 0.  1.
         21   -1    0    0  501  503 -0.00000000000E+00 -0.00000000000E+00 -0.92190101218E+03  0.92190101218E+03  0.00000000000E+00 0. -1.
          6    2    1    2  501    0 -0.20641295004E+02  0.40771693614E+02 -0.83121877647E+03  0.84965755657E+03  0.17001445531E+03 0.  0.
         24    2    3    3    0    0 -0.25439159686E+02  0.46721113030E+02 -0.23419509249E+03  0.25256645436E+03  0.78182218409E+02 0.  0.
         -6    2    1    2    0  502  0.20641295004E+02 -0.40771693614E+02  0.18355439377E+02  0.18128113069E+03  0.17446355530E+03 0.  0.
        -24    2    5    5    0    0 -0.39836850232E+02  0.69626019810E+01  0.43117826671E+02  0.10021674362E+03  0.80924633217E+02 0.  0.
          5    1    3    3  501    0  0.47978646816E+01 -0.59494194158E+01 -0.59702368398E+03  0.59709110220E+03  0.47000000000E+01 0. -1.
        -11    1    4    4    0    0  0.21699069624E+02  0.29274099160E+02 -0.15127385772E+03  0.15560077935E+03  0.00000000000E+00 0.  1.
         12    1    4    4    0    0 -0.47138229310E+02  0.17447013870E+02 -0.82921234767E+02  0.96965675013E+02  0.00000000000E+00 0. -1.
         -5    1    5    5    0  502  0.60478145235E+02 -0.47734295595E+02 -0.24762387294E+02  0.81064387074E+02  0.47000000000E+01 0.  1.
         11    1    6    6    0    0 -0.19166719459E+02  0.24392537120E+02 -0.16221984736E+02  0.35007310533E+02  0.00000000000E+00 0. -1.
        -12    1    6    6    0    0 -0.20670130773E+02 -0.17429935139E+02  0.59339811407E+02  0.65209433083E+02  0.00000000000E+00 0.  1.
</event>
<event>
12    1  0.8493057E-002  0.1919917E+03  0.7818608E-02  0.1156881E+00
         21   -1    0    0  501  502  0.00000000000E+00  0.00000000000E+00  0.19766978058E+03  0.19766978058E+03  0.00000000000E+00 0.  1.
         21   -1    0    0  502  503 -0.00000000000E+00 -0.00000000000E+00 -0.18696249288E+03  0.18696249288E+03  0.00000000000E+00 0.  1.
         -6    2    1    2    0  503  0.26930374355E+02  0.78844402968E+02 -0.11112280899E+02  0.19231303437E+03  0.17297148742E+03 0.  0.
        -24    2    3    3    0    0 -0.18635043829E+02 -0.13346224765E+02  0.16432024658E+02  0.85748040378E+02  0.80977332756E+02 0.  0.
          6    2    1    2  501    0 -0.26930374355E+02 -0.78844402968E+02  0.21819568601E+02  0.19231923909E+03  0.17195613164E+03 0.  0.
         24    2    5    5    0    0 -0.70805468648E+02 -0.80350104582E+02 -0.14742484463E+02  0.13499415940E+03  0.80848800412E+02 0.  0.
          5    1    5    5  501    0  0.43875094293E+02  0.15057016140E+01  0.36562053064E+02  0.57325079685E+02  0.47000000000E+01 0. -1.
        -11    1    6    6    0    0 -0.13958504220E+02 -0.75553748260E+02 -0.39535870843E+01  0.76933994873E+02  0.00000000000E+00 0.  1.
         12    1    6    6    0    0 -0.56846964428E+02 -0.47963563220E+01 -0.10788897379E+02  0.58060164531E+02  0.00000000000E+00 0. -1.
         -5    1    3    3    0  503  0.45565418185E+02  0.92190627734E+02 -0.27544305557E+02  0.10656499399E+03  0.47000000000E+01 0.  1.
         11    1    4    4    0    0 -0.32101790796E+02 -0.70480281077E+01 -0.25281068918E+02  0.41464829894E+02  0.00000000000E+00 0. -1.
        -12    1    4    4    0    0  0.13466746966E+02 -0.62981966576E+01  0.41713093577E+02  0.44283210484E+02  0.00000000000E+00 0.  1.
</event>
<event>
12    1  0.8493057E-002  0.2008826E+03  0.7818608E-02  0.1150238E+00
         21   -1    0    0  501  502  0.00000000000E+00  0.00000000000E+00  0.68913709820E+03  0.68913709820E+03  0.00000000000E+00 0.  1.
         21   -1    0    0  502  503 -0.00000000000E+00 -0.00000000000E+00 -0.12059432028E+03  0.12059432028E+03  0.00000000000E+00 0.  1.
         -6    2    1    2    0  503  0.24163385840E+02 -0.99543795872E+02 -0.11992488054E+02  0.19542283738E+03  0.16599225611E+03 0.  0.
        -24    2    3    3    0    0  0.32190284096E+02 -0.76783403554E+02 -0.68059472538E+02  0.13420140891E+03  0.80287115409E+02 0.  0.
          6    2    1    2  501    0 -0.24163385840E+02  0.99543795872E+02  0.58053526598E+03  0.61430858109E+03  0.17280336007E+03 0.  0.
         24    2    5    5    0    0  0.42106792933E+02  0.12821517334E+02  0.24680622650E+03  0.26315384031E+03  0.79995355554E+02 0.  0.
          5    1    5    5  501    0 -0.66270178773E+02  0.86722278538E+02  0.33372903947E+03  0.35115474079E+03  0.47000000000E+01 0. -1.
        -11    1    6    6    0    0 -0.79335466549E+01  0.23056568910E+02  0.16442889961E+03  0.16622698205E+03  0.00000000000E+00 0.  1.
         12    1    6    6    0    0  0.50040339588E+02 -0.10235051576E+02  0.82377326891E+02  0.96926858262E+02  0.00000000000E+00 0. -1.
         -5    1    3    3    0  503 -0.80268982554E+01 -0.22760392318E+02  0.56066984484E+02  0.61221428465E+02  0.47000000000E+01 0.  1.
         11    1    4    4    0    0 -0.48784224810E+01 -0.26148429705E+02  0.14660214793E+02  0.30372047670E+02  0.00000000000E+00 0. -1.
        -12    1    4    4    0    0  0.37068706577E+02 -0.50634973850E+02 -0.82719687331E+02  0.10382936124E+03  0.00000000000E+00 0.  1.
</event>
<event>
12    1  0.8493057E-002  0.1926055E+03  0.7818608E-02  0.1156171E+00
         21   -1    0    0  501  502  0.00000000000E+00  0.00000000000E+00  0.14735271733E+03  0.14735271733E+03  0.00000000000E+00 0. -1.
         21   -1    0    0  502  503 -0.00000000000E+00 -0.00000000000E+00 -0.30482608793E+03  0.30482608793E+03  0.00000000000E+00 0. -1.
         -6    2    1    2    0  503 -0.58532312431E+02  0.65460769217E+02 -0.17324612273E+03  0.25892856664E+03  0.17122686611E+03 0.  0.
        -24    2    3    3    0    0 -0.87178732218E+02  0.17334390072E+02 -0.15927696724E+03  0.20101489778E+03  0.84482095171E+02 0.  0.
          6    2    1    2  501    0  0.58532312431E+02 -0.65460769217E+02  0.15772752123E+02  0.19325023862E+03  0.17142266802E+03 0.  0.
         24    2    5    5    0    0  0.10824726050E+01 -0.49278706486E+02 -0.47492198253E+02  0.10614749930E+03  0.81130882243E+02 0.  0.
          5    1    5    5  501    0  0.57449839826E+02 -0.16182062731E+02  0.63264950376E+02  0.87102739316E+02  0.47000000000E+01 0. -1.
        -11    1    6    6    0    0 -0.26756764593E+02  0.91775303886E+01 -0.50617193897E+01  0.28736257911E+02  0.00000000000E+00 0.  1.
         12    1    6    6    0    0  0.27839237198E+02 -0.58456236874E+02 -0.42430478863E+02  0.77411241392E+02  0.00000000000E+00 0. -1.
         -5    1    3    3    0  503  0.28646419787E+02  0.48126379145E+02 -0.13969155481E+02  0.57913668862E+02  0.47000000000E+01 0.  1.
         11    1    4    4    0    0  0.35282483301E+01 -0.16755010737E+02 -0.59552807458E+02  0.61965440345E+02  0.00000000000E+00 0. -1.
        -12    1    4    4    0    0 -0.90706980548E+02  0.34089400809E+02 -0.99724159787E+02  0.13904945743E+03  0.00000000000E+00 0.  1.
</event>
<event>
12    1  0.8493057E-002  0.1876166E+03  0.7818608E-02  0.1162984E+00
         21   -1    0    0  503  502  0.00000000000E+00  0.00000000000E+00  0.75373574954E+03  0.75373574954E+03  0.00000000000E+00 0.  1.
         21   -1    0    0  501  503 -0.00000000000E+00 -0.00000000000E+00 -0.44659979466E+02  0.44659979466E+02  0.00000000000E+00 0.  1.
          6    2    1    2  501    0 -0.34141338110E+02  0.15993075908E+02  0.40238707954E+03  0.44397675149E+03  0.18378951179E+03 0.  0.
         24    2    3    3    0    0 -0.59939718234E+02  0.39354785890E+02  0.39364070541E+03  0.40778400401E+03  0.78697013749E+02 0.  0.
         -6    2    1    2    0  502  0.34141338110E+02 -0.15993075908E+02  0.30668869053E+03  0.35441897751E+03  0.17358988816E+03 0.  0.
        -24    2    5    5    0    0  0.35744099155E+02 -0.63578514782E+02  0.27878807860E+03  0.29903416928E+03  0.79867223972E+02 0.  0.
          5    1    3    3  501    0  0.25798380124E+02 -0.23361709982E+02  0.87463741272E+01  0.36192747487E+02  0.47000000000E+01 0. -1.
        -11    1    4    4    0    0 -0.91979805589E+00  0.41339629836E+02  0.99082386019E+02  0.10736447384E+03  0.00000000000E+00 0.  1.
         12    1    4    4    0    0 -0.59019920178E+02 -0.19848439464E+01  0.29455831939E+03  0.30041953017E+03  0.00000000000E+00 0. -1.
         -5    1    5    5    0  502 -0.16027610446E+01  0.47585438874E+02  0.27900611936E+02  0.55384808225E+02  0.47000000000E+01 0.  1.
         11    1    6    6    0    0 -0.14419288830E+02 -0.32817018441E+02  0.42835728346E+02  0.55854921114E+02  0.00000000000E+00 0. -1.
        -12    1    6    6    0    0  0.50163387985E+02 -0.30761496341E+02  0.23595235025E+03  0.24317924817E+03  0.00000000000E+00 0.  1.
</event>
<event>
12    1  0.8493057E-002  0.2202864E+03  0.7818608E-02  0.1133919E+00
         21   -1    0    0  503  502  0.00000000000E+00  0.00000000000E+00  0.67509720662E+03  0.67509720662E+03  0.00000000000E+00 0.  1.
         21   -1    0    0  501  503 -0.00000000000E+00 -0.00000000000E+00 -0.75672131010E+02  0.75672131010E+02  0.00000000000E+00 0.  1.
          6    2    1    2  501    0 -0.13577797363E+03  0.23747192299E+02  0.38929182728E+03  0.44729659106E+03  0.17183284414E+03 0.  0.
         24    2    3    3    0    0 -0.97758113702E+02 -0.13792854519E+02  0.36870375796E+03  0.38984466801E+03  0.79306446236E+02 0.  0.
         -6    2    1    2    0  502  0.13577797363E+03 -0.23747192299E+02  0.21013324832E+03  0.30347274656E+03  0.17011801372E+03 0.  0.
        -24    2    5    5    0    0  0.15093795056E+03 -0.13073909638E+02  0.22264341787E+03  0.28061802702E+03  0.78887220370E+02 0.  0.
          5    1    3    3  501    0 -0.38019859925E+02  0.37540046818E+02  0.20588069324E+02  0.57451923052E+02  0.47000000000E+01 0. -1.
        -13    1    4    4    0    0 -0.11052078659E+03 -0.14361561979E+02  0.30154716067E+03  0.32148373028E+03  0.00000000000E+00 0.  1.
         14    1    4    4    0    0  0.12762672887E+02  0.56870746012E+00  0.67156597292E+02  0.68360937730E+02  0.00000000000E+00 0. -1.
         -5    1    5    5    0  502 -0.15159976931E+02 -0.10673282662E+02 -0.12510169544E+02  0.22854719542E+02  0.47000000000E+01 0.  1.
         13    1    6    6    0    0  0.24762858416E+01 -0.21781540716E+02  0.24547897159E+02  0.32911498940E+02  0.00000000000E+00 0. -1.
        -14    1    6    6    0    0  0.14846166472E+03  0.87076310783E+01  0.19809552071E+03  0.24770652808E+03  0.00000000000E+00 0.  1.
</event>
<event>
12    1  0.8493057E-002  0.2167691E+03  0.7818608E-02  0.1137413E+00
         21   -1    0    0  503  502  0.00000000000E+00  0.00000000000E+00  0.51306734396E+03  0.51306734396E+03  0.00000000000E+00 0.  1.
         21   -1    0    0  501  503 -0.00000000000E+00 -0.00000000000E+00 -0.89820739349E+02  0.89820739349E+02  0.00000000000E+00 0. -1.
          6    2    1    2  501    0 -0.11152042403E+02  0.13230860440E+03  0.23403910736E+03  0.31515846487E+03  0.16407504185E+03 0.  0.
         24    2    3    3    0    0  0.15452417893E+02  0.18065580185E+02  0.56082176694E+02  0.10196835004E+03  0.81775249685E+02 0.  0.
         -6    2    1    2    0  502  0.11152042403E+02 -0.13230860440E+03  0.18920749726E+03  0.28772961844E+03  0.17134445267E+03 0.  0.
        -24    2    5    5    0    0  0.60189937694E+02 -0.12103066495E+03  0.99784893772E+02  0.18501448272E+03  0.77473113612E+02 0.  0.
          5    1    3    3  501    0 -0.26604460296E+02  0.11424302422E+03  0.17795693066E+03  0.21319011483E+03  0.47000000000E+01 0. -1.
        -11    1    4    4    0    0 -0.11368302046E+02  0.15628959877E+02  0.69317089361E+02  0.71960833484E+02  0.00000000000E+00 0.  1.
         12    1    4    4    0    0  0.26820719939E+02  0.24366203080E+01 -0.13234912667E+02  0.30007516556E+02  0.00000000000E+00 0. -1.
         -5    1    5    5    0  502 -0.49037895291E+02 -0.11277939453E+02  0.89422603486E+02  0.10271513573E+03  0.47000000000E+01 0.  1.
         13    1    6    6    0    0 -0.79829890421E+00 -0.84899714974E+02  0.53433112250E+02  0.10031797630E+03  0.00000000000E+00 0. -1.
        -14    1    6    6    0    0  0.60988236598E+02 -0.36130949974E+02  0.46351781522E+02  0.84696506419E+02  0.00000000000E+00 0.  1.
</event>
<event>
12    1  0.8493057E-002  0.2571735E+03  0.7818608E-02  0.1110751E+00
         21   -1    0    0  503  502  0.00000000000E+00  0.00000000000E+00  0.39984427689E+03  0.39984427689E+03  0.00000000000E+00 0. -1.
         21   -1    0    0  501  503 -0.00000000000E+00 -0.00000000000E+00 -0.52395249949E+03  0.52395249949E+03  0.00000000000E+00 0.  1.
          6    2    1    2  501    0 -0.54136082119E+02  0.18325331148E+03 -0.44775244148E+03  0.51041588144E+03  0.15339371441E+03 0.  0.
         24    2    3    3    0    0  0.14060508869E+02  0.92830862386E+02 -0.17504270113E+03  0.21508608815E+03  0.82503400997E+02 0.  0.
         -6    2    1    2    0  502  0.54136082119E+02 -0.18325331148E+03  0.32364421888E+03  0.41338089493E+03  0.17212115595E+03 0.  0.
        -24    2    5    5    0    0 -0.14317193011E+02 -0.14124639645E+03  0.17454144871E+03  0.24395788039E+03  0.94314386805E+02 0.  0.
          5    1    3    3  501    0 -0.68196590988E+02  0.90422449098E+02 -0.27270974035E+03  0.29532979329E+03  0.47000000000E+01 0. -1.
        -11    1    4    4    0    0 -0.19489206104E+02  0.36074356086E+01 -0.72156996777E+02  0.74829639383E+02  0.00000000000E+00 0.  1.
         12    1    4    4    0    0  0.33549714974E+02  0.89223426777E+02 -0.10288570435E+03  0.14025644876E+03  0.00000000000E+00 0. -1.
         -5    1    5    5    0  502  0.68453275129E+02 -0.42006915032E+02  0.14910277017E+03  0.16942301455E+03  0.47000000000E+01 0.  1.
         11    1    6    6    0    0 -0.25940662538E+02 -0.46270638118E+02  0.12590184232E+03  0.13662051027E+03  0.00000000000E+00 0. -1.
        -12    1    6    6    0    0  0.11623469528E+02 -0.94975758334E+02  0.48639606386E+02  0.10733737012E+03  0.00000000000E+00 0.  1.
</event>
<event>
12    1  0.8493057E-002  0.1723572E+03  0.7818608E-02  0.1175538E+00
         21   -1    0    0  501  502  0.00000000000E+00  0.00000000000E+00  0.15134503621E+03  0.15134503621E+03  0.00000000000E+00 0.  1.
         21   -1    0    0  502  503 -0.00000000000E+00 -0.00000000000E+00 -0.19978935312E+03  0.19978935312E+03  0.00000000000E+00 0.  1.
         -6    2    1    2    0  503 -0.14581553635E+02 -0.76684530608E+01 -0.49219930903E+02  0.17877545113E+03  0.17107493519E+03 0.  0.
        -24    2    3    3    0    0  0.18942671035E+02 -0.55925184202E+02 -0.63956443233E+02  0.11801493323E+03  0.79690945660E+02 0.  0.
          6    2    1    2  501    0  0.14581553635E+02  0.76684530608E+01  0.77561398761E+00  0.17235893820E+03  0.17156798979E+03 0.  0.
         24    2    5    5    0    0  0.67023224968E+02 -0.25254101555E+02 -0.14855296740E+02  0.10832426896E+03  0.79897340845E+02 0.  0.
          5    1    5    5  501    0 -0.52441671333E+02  0.32922554616E+02  0.15630910728E+02  0.64034669242E+02  0.47000000000E+01 0. -1.
        -11    1    6    6    0    0  0.42051096096E+02  0.17712874651E+02  0.17668746900E+02  0.48930820842E+02  0.00000000000E+00 0.  1.
         12    1    6    6    0    0  0.24972128872E+02 -0.42966976206E+02 -0.32524043640E+02  0.59393448118E+02  0.00000000000E+00 0. -1.
         -5    1    3    3    0  503 -0.33524224670E+02  0.48256731141E+02  0.14736512330E+02  0.60760517902E+02  0.47000000000E+01 0.  1.
         11    1    4    4    0    0 -0.93892604666E+01 -0.28271015109E+02  0.12193209772E+02  0.32188241206E+02  0.00000000000E+00 0. -1.
        -12    1    4    4    0    0  0.28331931501E+02 -0.27654169093E+02 -0.76149653005E+02  0.85826692023E+02  0.00000000000E+00 0.  1.
</event>
<event>
12    1  0.8493057E-002  0.1909871E+03  0.7818608E-02  0.1157750E+00
         21   -1    0    0  503  502  0.00000000000E+00  0.00000000000E+00  0.25253098972E+04  0.25253098972E+04  0.00000000000E+00 0. -1.
         21   -1    0    0  501  503 -0.00000000000E+00 -0.00000000000E+00 -0.21713063339E+02  0.21713063339E+02  0.00000000000E+00 0. -1.
          6    2    1    2  501    0 -0.10593145433E+02 -0.81283059481E+02  0.51024171754E+03  0.54453933403E+03  0.17163136515E+03 0.  0.
         24    2    3    3    0    0  0.32405320883E+02  0.49082905591E+01  0.31051332975E+03  0.32274813534E+03  0.81692317745E+02 0.  0.
         -6    2    1    2    0  502  0.10593145433E+02  0.81283059481E+02  0.19933551163E+04  0.20024836265E+04  0.17250189612E+03 0.  0.
        -24    2    5    5    0    0  0.31445154176E+02  0.10805100892E+03  0.11364412391E+04  0.11448853451E+04  0.81240046318E+02 0.  0.
          5    1    3    3  501    0 -0.42998466316E+02 -0.86191350040E+02  0.19972838779E+03  0.22179119869E+03  0.47000000000E+01 0. -1.
        -13    1    4    4    0    0  0.66515846503E+01 -0.16581511844E+02  0.26800560943E+03  0.26860044081E+03  0.00000000000E+00 0.  1.
         14    1    4    4    0    0  0.25753736233E+02  0.21489802403E+02  0.42507720311E+02  0.54147694533E+02  0.00000000000E+00 0. -1.
         -5    1    5    5    0  502 -0.20852008744E+02 -0.26767949438E+02  0.85691387719E+03  0.85759828143E+03  0.47000000000E+01 0.  1.
         13    1    6    6    0    0  0.23069999236E+02  0.16744721607E+02  0.59907461148E+03  0.59975244950E+03  0.00000000000E+00 0. -1.
        -14    1    6    6    0    0  0.83751549400E+01  0.91306287312E+02  0.53736662766E+03  0.54513289558E+03  0.00000000000E+00 0.  1.
</event>
<event>
12    1  0.8493057E-002  0.1983793E+03  0.7818608E-02  0.1151199E+00
         21   -1    0    0  503  502  0.00000000000E+00  0.00000000000E+00  0.10860224414E+03  0.10860224414E+03  0.00000000000E+00 0. -1.
         21   -1    0    0  501  503 -0.00000000000E+00 -0.00000000000E+00 -0.37144301818E+03  0.37144301818E+03  0.00000000000E+00 0. -1.
          6    2    1    2  501    0  0.93756944143E+02  0.35997576216E+02 -0.92552483931E+02  0.21890709780E+03  0.17107941173E+03 0.  0.
         24    2    3    3    0    0 -0.33691796075E+01  0.35158556079E+01  0.12840925871E+01  0.79925303381E+02  0.79766488045E+02 0.  0.
         -6    2    1    2    0  502 -0.93756944143E+02 -0.35997576216E+02 -0.17028829011E+03  0.26113816451E+03  0.17061315643E+03 0.  0.
        -24    2    5    5    0    0 -0.40841837362E+00 -0.46333229464E+02 -0.37483866595E+02  0.98411774835E+02  0.78312848328E+02 0.  0.
          5    1    3    3  501    0  0.97126123750E+02  0.32481720608E+02 -0.93836576518E+02  0.13898179442E+03  0.47000000000E+01 0. -1.
        -11    1    4    4    0    0  0.12657996020E+00 -0.35697319529E+02  0.14308082073E+02  0.38458235226E+02  0.00000000000E+00 0.  1.
         12    1    4    4    0    0 -0.34957595677E+01  0.39213175137E+02 -0.13023989486E+02  0.41467068156E+02  0.00000000000E+00 0. -1.
         -5    1    5    5    0  502 -0.93348525769E+02  0.10335653248E+02 -0.13280442352E+03  0.16272638968E+03  0.47000000000E+01 0.  1.
         13    1    6    6    0    0 -0.28904440517E+02 -0.44526120454E+02 -0.44202203994E+02  0.69078773312E+02  0.00000000000E+00 0. -1.
        -14    1    6    6    0    0  0.28496022143E+02 -0.18071090095E+01  0.67183373997E+01  0.29333001524E+02  0.00000000000E+00 0.  1.
</event>
<event>
12    1  0.8493057E-002  0.1746771E+03  0.7818608E-02  0.1173078E+00
         21   -1    0    0  503  502  0.00000000000E+00  0.00000000000E+00  0.12357652613E+04  0.12357652613E+04  0.00000000000E+00 0.  1.
         21   -1    0    0  501  503 -0.00000000000E+00 -0.00000000000E+00 -0.69664612648E+02  0.69664612648E+02  0.00000000000E+00 0.  1.
          6    2    1    2  501    0 -0.28094943056E+02 -0.98018350138E+01  0.58486327547E+02  0.18412636402E+03  0.17203623346E+03 0.  0.
         24    2    3    3    0    0 -0.68529671070E+02 -0.50374552001E+02  0.34537812260E+02  0.12186293994E+03  0.80148639097E+02 0.  0.
         -6    2    1    2    0  502  0.28094943056E+02  0.98018350138E+01  0.11076143211E+04  0.11213035099E+04  0.17212401130E+03 0.  0.
        -24    2    5    5    0    0  0.26039039273E+02  0.40964579127E+02  0.33100444399E+03  0.34405172666E+03  0.80321356860E+02 0.  0.
          5    1    3    3  501    0  0.40434728014E+02  0.40572716988E+02  0.23948515287E+02  0.62263424077E+02  0.47000000000E+01 0. -1.
        -11    1    4    4    0    0 -0.31769185807E+02  0.19886669917E+02  0.88700284374E+01  0.38515428229E+02  0.00000000000E+00 0.  1.
         12    1    4    4    0    0 -0.36760485263E+02 -0.70261221918E+02  0.25667783823E+02  0.83347511712E+02  0.00000000000E+00 0. -1.
         -5    1    5    5    0  502  0.20559037824E+01 -0.31162744113E+02  0.77660987710E+03  0.77725178325E+03  0.47000000000E+01 0.  1.
         11    1    6    6    0    0 -0.23197812344E+02 -0.77184378551E+01  0.95468473261E+02  0.98549186537E+02  0.00000000000E+00 0. -1.
        -12    1    6    6    0    0  0.49236851617E+02  0.48683016982E+02  0.23553597073E+03  0.24550254012E+03  0.00000000000E+00 0.  1.
</event>
<event>
12    1  0.8493057E-002  0.2688243E+03  0.7818608E-02  0.1102326E+00
         21   -1    0    0  501  502  0.00000000000E+00  0.00000000000E+00  0.11988348744E+03  0.11988348744E+03  0.00000000000E+00 0. -1.
         21   -1    0    0  502  503 -0.00000000000E+00 -0.00000000000E+00 -0.12335387584E+04  0.12335387584E+04  0.00000000000E+00 0.  1.
         -6    2    1    2    0  503 -0.17830225817E+03 -0.10383636490E+03 -0.10416246231E+04  0.10751150213E+04  0.16827586749E+03 0.  0.
        -24    2    3    3    0    0 -0.84102510666E+02  0.10135170522E+02 -0.38657569371E+03  0.40356882539E+03  0.79063745647E+02 0.  0.
          6    2    1    2  501    0  0.17830225817E+03  0.10383636490E+03 -0.72030647806E+02  0.27830722450E+03  0.17231602085E+03 0.  0.
         24    2    5    5    0    0  0.14542056128E+03  0.13752536818E+03 -0.80459738484E+02  0.23025210509E+03  0.80510221976E+02 0.  0.
          5    1    5    5  501    0  0.32881696889E+02 -0.33689003281E+02  0.84290906772E+01  0.48055119415E+02  0.47000000000E+01 0. -1.
        -11    1    6    6    0    0  0.14604203871E+02  0.49291074843E+02 -0.45459038962E+02  0.68625192555E+02  0.00000000000E+00 0.  1.
         12    1    6    6    0    0  0.13081635741E+03  0.88234293341E+02 -0.35000699522E+02  0.16162691253E+03  0.00000000000E+00 0. -1.
         -5    1    3    3    0  503 -0.94199747507E+02 -0.11397153542E+03 -0.65504892940E+03  0.67154619589E+03  0.47000000000E+01 0.  1.
         13    1    4    4    0    0 -0.43656968066E+01 -0.10280503277E+02 -0.34329251477E+01  0.11684734970E+02  0.00000000000E+00 0. -1.
        -14    1    4    4    0    0 -0.79736813860E+02  0.20415673799E+02 -0.38314276857E+03  0.39188409042E+03  0.00000000000E+00 0.  1.
</event>
<event>
12    1  0.8493057E-002  0.2325282E+03  0.7818608E-02  0.1124931E+00
         21   -1    0    0  501  502  0.00000000000E+00  0.00000000000E+00  0.42595653136E+03  0.42595653136E+03  0.00000000000E+00 0. -1.
         21   -1    0    0  502  503 -0.00000000000E+00 -0.00000000000E+00 -0.13259757481E+03  0.13259757481E+03  0.00000000000E+00 0.  1.
         -6    2    1    2    0  503  0.46306046763E+02 -0.14943729441E+03  0.88153972939E+02  0.24867746820E+03  0.17202792018E+03 0.  0.
        -24    2    3    3    0    0 -0.34885563425E+02 -0.47189471075E+02  0.54721538648E+02  0.11382008945E+03  0.80726186920E+02 0.  0.
          6    2    1    2  501    0 -0.46306046763E+02  0.14943729441E+03  0.20520498361E+03  0.30987663796E+03  0.17157706878E+03 0.  0.
         24    2    5    5    0    0 -0.61213670154E+02  0.54091520529E+02  0.17433830974E+03  0.20844737499E+03  0.79896532391E+02 0.  0.
          5    1    5    5  501    0  0.14907623391E+02  0.95345773882E+02  0.30866673866E+02  0.10142926298E+03  0.47000000000E+01 0. -1.
        -13    1    6    6    0    0 -0.39440049344E+02 -0.13824563449E+02  0.50614582815E+02  0.65638952158E+02  0.00000000000E+00 0.  1.
         14    1    6    6    0    0 -0.21773620810E+02  0.67916083978E+02  0.12372372693E+03  0.14280842283E+03  0.00000000000E+00 0. -1.
         -5    1    3    3    0  503  0.81191610188E+02 -0.10224782334E+03  0.33432434291E+02  0.13485737875E+03  0.47000000000E+01 0.  1.
         11    1    4    4    0    0  0.56423998019E+01 -0.55022683770E+02  0.45266614486E+02  0.71473063400E+02  0.00000000000E+00 0. -1.
        -12    1    4    4    0    0 -0.40527963226E+02  0.78332126951E+01  0.94549241629E+01  0.42347026051E+02  0.00000000000E+00 0.  1.
</event>
<event>
12    1  0.8493057E-002  0.1800031E+03  0.7818608E-02  0.1168423E+00
         21   -1    0    0  503  502  0.00000000000E+00  0.00000000000E+00  0.86980725882E+03  0.86980725882E+03  0.00000000000E+00 0.  1.
         21   -1    0    0  501  503 -0.00000000000E+00 -0.00000000000E+00 -0.41125671524E+02  0.41125671524E+02  0.00000000000E+00 0.  1.
          6    2    1    2  501    0  0.43524615587E+01 -0.43965905743E+02  0.26268467076E+03  0.31700228828E+03  0.17185828387E+03 0.  0.
         24    2    3    3    0    0  0.19084815493E+02  0.34837831982E+02  0.18455881007E+03  0.20496295840E+03  0.79811999234E+02 0.  0.
         -6    2    1    2    0  502 -0.43524615587E+01  0.43965905743E+02  0.56599691654E+03  0.59393064207E+03  0.17449685746E+03 0.  0.
        -24    2    5    5    0    0  0.65055290060E+02  0.21768862075E+02  0.34940355820E+03  0.36535917051E+03  0.81843771126E+02 0.  0.
          5    1    3    3  501    0 -0.14732353934E+02 -0.78803737725E+02  0.78125860690E+02  0.11203932988E+03  0.47000000000E+01 0. -1.
        -11    1    4    4    0    0 -0.19495998963E+02  0.13165355565E+02  0.11217521379E+02  0.26062489302E+02  0.00000000000E+00 0.  1.
         12    1    4    4    0    0  0.38580814456E+02  0.21672476417E+02  0.17334128869E+03  0.17890046909E+03  0.00000000000E+00 0. -1.
         -5    1    5    5    0  502 -0.69407751619E+02  0.22197043667E+02  0.21659335834E+03  0.22857147156E+03  0.47000000000E+01 0.  1.
         13    1    6    6    0    0 -0.14957036164E+02  0.79253259627E+01  0.20524956791E+02  0.26604465296E+02  0.00000000000E+00 0. -1.
        -14    1    6    6    0    0  0.80012326224E+02  0.13843536113E+02  0.32887860141E+03  0.33875470521E+03  0.00000000000E+00 0.  1.
</event>
<event>
12    1  0.8493057E-002  0.2035171E+03  0.7818608E-02  0.1146939E+00
         21   -1    0    0  503  502  0.00000000000E+00  0.00000000000E+00  0.30464581026E+03  0.30464581026E+03  0.00000000000E+00 0.  1.
         21   -1    0    0  501  503 -0.00000000000E+00 -0.00000000000E+00 -0.14267730173E+03  0.14267730173E+03  0.00000000000E+00 0. -1.
          6    2    1    2  501    0  0.30339045646E+02  0.10312992379E+03  0.30790295332E+02  0.20519311288E+03  0.17204630892E+03 0.  0.
         24    2    3    3    0    0 -0.37538524614E+02  0.41325689274E+02 -0.20521501957E+02  0.99921471443E+02  0.80288324112E+02 0.  0.
         -6    2    1    2    0  502 -0.30339045646E+02 -0.10312992379E+03  0.13117821320E+03  0.24212999911E+03  0.17280906799E+03 0.  0.
        -24    2    5    5    0    0  0.18987013228E+02 -0.97910636555E+01  0.12609880158E+02  0.83303859904E+02  0.79524539599E+02 0.  0.
          5    1    3    3  501    0  0.67877570259E+02  0.61804234519E+02  0.51311797289E+02  0.10527164143E+03  0.47000000000E+01 0. -1.
        -11    1    4    4    0    0 -0.23806988576E+02 -0.95404764537E+01  0.20753184810E+02  0.32992242661E+02  0.00000000000E+00 0.  1.
         12    1    4    4    0    0 -0.13731536037E+02  0.50866165728E+02 -0.41274686766E+02  0.66929228783E+02  0.00000000000E+00 0. -1.
         -5    1    5    5    0  502 -0.49326058874E+02 -0.93338860137E+02  0.11856833304E+03  0.15882613921E+03  0.47000000000E+01 0.  1.
         13    1    6    6    0    0  0.11951416695E+02  0.34695781127E+02  0.64590864082E+00  0.36702190494E+02  0.00000000000E+00 0. -1.
        -14    1    6    6    0    0  0.70355965332E+01 -0.44486844783E+02  0.11963971517E+02  0.46601669410E+02  0.00000000000E+00 0.  1.
</event>
<event>
12    1  0.8493057E-002  0.1995380E+03  0.7818608E-02  0.1150969E+00
         21   -1    0    0  503  502  0.00000000000E+00  0.00000000000E+00  0.49451651478E+02  0.49451651478E+02  0.00000000000E+00 0.  1.
         21   -1    0    0  501  503 -0.00000000000E+00 -0.00000000000E+00 -0.90942455122E+03  0.90942455122E+03  0.00000000000E+00 0.  1.
          6    2    1    2  501    0 -0.89899894835E+02  0.25981408525E+02 -0.25209502977E+03  0.31908645458E+03  0.17177670617E+03 0.  0.
         24    2    3    3    0    0 -0.87065986529E+01  0.13187613504E+02 -0.21674565808E+03  0.22948901815E+03  0.73734735010E+02 0.  0.
         -6    2    1    2    0  502  0.89899894835E+02 -0.25981408525E+02 -0.60787786997E+03  0.63978974811E+03  0.17623391362E+03 0.  0.
        -24    2    5    5    0    0  0.87528437831E+02 -0.64117147145E+02 -0.56909392991E+03  0.58514322603E+03  0.82173340761E+02 0.  0.
          5    1    3    3  501    0 -0.81193296182E+02  0.12793795021E+02 -0.35349371693E+02  0.89597436431E+02  0.47000000000E+01 0. -1.
        -11    1    4    4    0    0 -0.22243361107E+02 -0.91725307165E+01 -0.20791398914E+02  0.31799130521E+02  0.00000000000E+00 0.  1.
         12    1    4    4    0    0  0.13536762454E+02  0.22360144221E+02 -0.19595425916E+03  0.19768988763E+03  0.00000000000E+00 0. -1.
         -5    1    5    5    0  502  0.23714570042E+01  0.38135738619E+02 -0.38783940067E+02  0.54646522080E+02  0.47000000000E+01 0.  1.
         13    1    6    6    0    0  0.19782555586E+02 -0.51630128370E+02 -0.37778755305E+03  0.38181206752E+03  0.00000000000E+00 0. -1.
        -14    1    6    6    0    0  0.67745882245E+02 -0.12487018775E+02 -0.19130637685E+03  0.20333115852E+03  0.00000000000E+00 0.  1.
</event>
<event>
12    1  0.8493057E-002  0.2305348E+03  0.7818608E-02  0.1126405E+00
         21   -1    0    0  501  502  0.00000000000E+00  0.00000000000E+00  0.90018741616E+02  0.90018741616E+02  0.00000000000E+00 0.  1.
         21   -1    0    0  502  503 -0.00000000000E+00 -0.00000000000E+00 -0.77291199526E+03  0.77291199526E+03  0.00000000000E+00 0.  1.
         -6    2    1    2    0  503  0.45169415098E+02  0.14547039797E+03 -0.55184001130E+03  0.59774916849E+03  0.17197313049E+03 0.  0.
        -24    2    3    3    0    0  0.21690483772E+02  0.12115006597E+03 -0.22255831098E+03  0.26670345121E+03  0.80316334133E+02 0.  0.
          6    2    1    2  501    0 -0.45169415098E+02 -0.14547039797E+03 -0.13105324234E+03  0.26518156839E+03  0.17304450045E+03 0.  0.
         24    2    5    5    0    0 -0.75238507685E+02 -0.10639207923E+03 -0.35463023888E+02  0.15752078078E+03  0.81086760646E+02 0.  0.
          5    1    5    5  501    0  0.30069092588E+02 -0.39078318744E+02 -0.95590218453E+02  0.10766078761E+03  0.47000000000E+01 0. -1.
        -13    1    6    6    0    0 -0.25480491961E+02 -0.42426141065E+02 -0.55174513352E+02  0.74117878005E+02  0.00000000000E+00 0.  1.
         14    1    6    6    0    0 -0.49758015725E+02 -0.63965938162E+02  0.19711489464E+02  0.83402902771E+02  0.00000000000E+00 0. -1.
         -5    1    3    3    0  503  0.23478931325E+02  0.24320332004E+02 -0.32928170032E+03  0.33104571728E+03  0.47000000000E+01 0.  1.
         11    1    4    4    0    0 -0.12589054108E+02  0.10422138212E+03 -0.18720790994E+03  0.21463313425E+03  0.00000000000E+00 0. -1.
        -12    1    4    4    0    0  0.34279537880E+02  0.16928683842E+02 -0.35350401046E+02  0.52070316958E+02  0.00000000000E+00 0.  1.
</event>
<event>
12    1  0.8493057E-002  0.1926271E+03  0.7818608E-02  0.1156274E+00
         21   -1    0    0  501  502  0.00000000000E+00  0.00000000000E+00  0.56842378038E+03  0.56842378038E+03  0.00000000000E+00 0. -1.
         21   -1    0    0  502  503 -0.00000000000E+00 -0.00000000000E+00 -0.78638565462E+02  0.78638565462E+02  0.00000000000E+00 0. -1.
         -6    2    1    2    0  503  0.40187797144E+02  0.70905200889E+02  0.10993294103E+03  0.22115984736E+03  0.17373491304E+03 0.  0.
        -24    2    3    3    0    0 -0.40694453900E+01  0.57556092606E+02 -0.27437219986E+01  0.99278665057E+02  0.80743180165E+02 0.  0.
          6    2    1    2  501    0 -0.40187797144E+02 -0.70905200889E+02  0.37985227388E+03  0.42590249847E+03  0.17453533075E+03 0.  0.
         24    2    5    5    0    0 -0.60911155179E+02 -0.61137678184E+02  0.38375472773E+03  0.40219213757E+03  0.83921629831E+02 0.  0.
          5    1    5    5  501    0  0.20723358034E+02 -0.97675227042E+01 -0.39024538470E+01  0.23710360900E+02  0.47000000000E+01 0. -1.
        -13    1    6    6    0    0  0.87819197858E+01 -0.26438701018E+02  0.20940204716E+03  0.21124711686E+03  0.00000000000E+00 0.  1.
         14    1    6    6    0    0 -0.69693074964E+02 -0.34698977166E+02  0.17435268057E+03  0.19094502072E+03  0.00000000000E+00 0. -1.
         -5    1    3    3    0  503  0.44257242534E+02  0.13349108283E+02  0.11267666303E+03  0.12188118231E+03  0.47000000000E+01 0.  1.
         13    1    4    4    0    0  0.26764998682E+02  0.26707504361E+02  0.27021361277E+02  0.46473755055E+02  0.00000000000E+00 0. -1.
        -14    1    4    4    0    0 -0.30834444072E+02  0.30848588245E+02 -0.29765083276E+02  0.52804910002E+02  0.00000000000E+00 0.  1.
</event>
<event>
12    1  0.8493057E-002  0.2082635E+03  0.7818608E-02  0.1143084E+00
         21   -1    0    0  503  502  0.00000000000E+00  0.00000000000E+00  0.11602596155E+03  0.11602596155E+03  0.00000000000E+00 0. -1.
         21   -1    0    0  501  503 -0.00000000000E+00 -0.00000000000E+00 -0.80135670447E+03  0.80135670447E+03  0.00000000000E+00 0.  1.
          6    2    1    2  501    0 -0.11782732431E+03 -0.51047484483E+01 -0.67791647550E+03  0.70898720714E+03  0.17082966755E+03 0.  0.
         24    2    3    3    0    0 -0.45772631538E+02 -0.61984421906E+02 -0.45588868191E+03  0.46868405041E+03  0.76766180459E+02 0.  0.
         -6    2    1    2    0  502  0.11782732431E+03  0.51047484483E+01 -0.74142674134E+01  0.20839545888E+03  0.17165185437E+03 0.  0.
        -24    2    5    5    0    0  0.11887112665E+03  0.59393782336E+02  0.34831996225E+00  0.15334333370E+03  0.76525097413E+02 0.  0.
          5    1    3    3  501    0 -0.72054692776E+02  0.56879673458E+02 -0.22202779360E+03  0.24030315673E+03  0.47000000000E+01 0. -1.
        -11    1    4    4    0    0 -0.41196180435E+02 -0.62056269171E+02 -0.45772976632E+03  0.46375062781E+03  0.00000000000E+00 0.  1.
         12    1    4    4    0    0 -0.45764511030E+01  0.71847264325E-01  0.18410844091E+01  0.49334225979E+01  0.00000000000E+00 0. -1.
         -5    1    5    5    0  502 -0.10438023345E+01 -0.54289033888E+02 -0.77625873757E+01  0.55052125178E+02  0.47000000000E+01 0.  1.
         13    1    6    6    0    0  0.96215988640E+02  0.17106621165E+02  0.22840910464E+02  0.10035865757E+03  0.00000000000E+00 0. -1.
        -14    1    6    6    0    0  0.22655138008E+02  0.42287161171E+02 -0.22492590501E+02  0.52984676139E+02  0.00000000000E+00 0.  1.
</event>
<event>
12    1  0.8493057E-002  0.1850651E+03  0.7818608E-02  0.1163196E+00
         21   -1    0    0  501  502  0.00000000000E+00  0.00000000000E+00  0.55689807359E+03  0.55689807359E+03  0.00000000000E+00 0. -1.
         21   -1    0    0  502  503 -0.00000000000E+00 -0.00000000000E+00 -0.77416054594E+02  0.77416054594E+02  0.00000000000E+00 0. -1.
         -6    2    1    2    0  503  0.65593379754E+02 -0.35602576066E+01  0.95066263762E+02  0.20805455288E+03  0.17301426406E+03 0.  0.
        -24    2    3    3    0    0  0.72454490937E+00 -0.27122114311E+02  0.10829094214E+03  0.13762651199E+03  0.80485990103E+02 0.  0.
          6    2    1    2  501    0 -0.65593379754E+02  0.35602576066E+01  0.38441575523E+03  0.42625957530E+03  0.17206564376E+03 0.  0.
         24    2    5    5    0    0  0.27065150190E+02  0.20885820900E+02  0.14508021350E+03  0.16898662715E+03  0.79620800905E+02 0.  0.
          5    1    5    5  501    0 -0.92658529944E+02 -0.17325563293E+02  0.23933554173E+03  0.25727294815E+03  0.47000000000E+01 0. -1.
        -11    1    6    6    0    0  0.12405761768E+02 -0.24562360504E+02  0.98521363404E+02  0.10229208926E+03  0.00000000000E+00 0.  1.
         12    1    6    6    0    0  0.14659388422E+02  0.45448181404E+02  0.46558850098E+02  0.66694537889E+02  0.00000000000E+00 0. -1.
         -5    1    3    3    0  503  0.64868834845E+02  0.23561856705E+02 -0.13224678378E+02  0.70428040891E+02  0.47000000000E+01 0.  1.
         13    1    4    4    0    0  0.31730187569E+01 -0.29118076454E+02  0.94458230181E-03  0.29290449387E+02  0.00000000000E+00 0. -1.
        -14    1    4    4    0    0 -0.24484738475E+01  0.19959621431E+01  0.10828999756E+03  0.10833606260E+03  0.00000000000E+00 0.  1.
</event>
<event>
12    1  0.8493057E-002  0.1984122E+03  0.7818608E-02  0.1151238E+00
         21   -1    0    0  501  502  0.00000000000E+00  0.00000000000E+00  0.30742481426E+03  0.30742481426E+03  0.00000000000E+00 0.  1.
         21   -1    0    0  502  503 -0.00000000000E+00 -0.00000000000E+00 -0.12761613996E+03  0.12761613996E+03  0.00000000000E+00 0.  1.
         -6    2    1    2    0  503  0.37413802874E+02 -0.90520168608E+02  0.92870534488E+02  0.21907152820E+03  0.17255058597E+03 0.  0.
        -24    2    3    3    0    0  0.82482391869E+02 -0.44440271501E+02  0.93835371133E+02  0.15443751593E+03  0.79168091757E+02 0.  0.
          6    2    1    2  501    0 -0.37413802874E+02  0.90520168608E+02  0.86938139809E+02  0.21596942602E+03  0.17172902857E+03 0.  0.
         24    2    5    5    0    0  0.59035780962E+01  0.23641041435E+01  0.87003198776E+02  0.11763336230E+03  0.78915208332E+02 0.  0.
          5    1    5    5  501    0 -0.43317380970E+02  0.88156064464E+02 -0.65058967046E-01  0.98336063723E+02  0.47000000000E+01 0. -1.
        -11    1    6    6    0    0 -0.31577599345E+02  0.16869825245E+02  0.24711509049E+02  0.43501660470E+02  0.00000000000E+00 0.  1.
         12    1    6    6    0    0  0.37481177442E+02 -0.14505721101E+02  0.62291689728E+02  0.74131701830E+02  0.00000000000E+00 0. -1.
         -5    1    3    3    0  503 -0.45068588996E+02 -0.46079897107E+02 -0.96483664440E+00  0.64634012263E+02  0.47000000000E+01 0.  1.
         13    1    4    4    0    0  0.63856440461E+02  0.10085212036E+02  0.55776418048E+02  0.85383636022E+02  0.00000000000E+00 0. -1.
        -14    1    4    4    0    0  0.18625951409E+02 -0.54525483537E+02  0.38058953084E+02  0.69053879911E+02  0.00000000000E+00 0.  1.
</event>
<event>
12    1  0.8493057E-002  0.2107265E+03  0.7818608E-02  0.1141286E+00
         21   -1    0    0  503  502  0.00000000000E+00  0.00000000000E+00  0.72045529049E+02  0.72045529049E+02  0.00000000000E+00 0. -1.
         21   -1    0    0  501  503 -0.00000000000E+00 -0.00000000000E+00 -0.64613343970E+03  0.64613343970E+03  0.00000000000E+00 0.  1.
          6    2    1    2  501    0 -0.10924647448E+03 -0.51132010974E+02 -0.20549407087E+03  0.29433565259E+03  0.17279001270E+03 0.  0.
         24    2    3    3    0    0  0.23424834993E+01 -0.53355460647E+02 -0.11335503172E+03  0.14952981083E+03  0.81593557964E+02 0.  0.
         -6    2    1    2    0  502  0.10924647448E+03  0.51132010974E+02 -0.36859383977E+03  0.42384331616E+03  0.17097503677E+03 0.  0.
        -24    2    5    5    0    0  0.54154130415E+02  0.67170220185E+00 -0.99780522914E+02  0.14480192414E+03  0.89879494089E+02 0.  0.
          5    1    3    3  501    0 -0.11158895798E+03  0.22234496734E+01 -0.92139039154E+02  0.14480584176E+03  0.47000000000E+01 0. -1.
        -11    1    4    4    0    0 -0.28056104924E+00 -0.65771133238E+02 -0.44255279078E+02  0.79274525594E+02  0.00000000000E+00 0.  1.
         12    1    4    4    0    0  0.26230445486E+01  0.12415672591E+02 -0.69099752641E+02  0.70255285236E+02  0.00000000000E+00 0. -1.
         -5    1    5    5    0  502  0.55092344062E+02  0.50460308772E+02 -0.26881331686E+03  0.27904139201E+03  0.47000000000E+01 0.  1.
         13    1    6    6    0    0  0.12283423686E+02  0.42424927910E+02 -0.30278688445E+02  0.53549565633E+02  0.00000000000E+00 0. -1.
        -14    1    6    6    0    0  0.41870706729E+02 -0.41753225708E+02 -0.69501834469E+02  0.91252358510E+02  0.00000000000E+00 0.  1.
</event>
<event>
12    1  0.8493057E-002  0.3657650E+03  0.7818608E-02  0.1056594E+00
         21   -1    0    0  501  502  0.00000000000E+00  0.00000000000E+00  0.14549670442E+04  0.14549670442E+04  0.00000000000E+00 0.  1.
         21   -1    0    0  502  503 -0.00000000000E+00 -0.00000000000E+00 -0.12305449153E+03  0.12305449153E+03  0.00000000000E+00 0. -1.
         -6    2    1    2    0  503  0.25503433963E+03  0.19803983726E+03  0.10689149169E+04  0.11297624337E+04  0.17181899059E+03 0.  0.
        -24    2    3    3    0    0  0.20218793934E+03  0.11831213874E+03  0.56767943111E+03  0.61946021919E+03  0.81199148188E+02 0.  0.
          6    2    1    2  501    0 -0.25503433963E+03 -0.19803983726E+03  0.26299763580E+03  0.44825910205E+03  0.16584985558E+03 0.  0.
         24    2    5    5    0    0 -0.21528976015E+03 -0.11847955089E+03  0.24744002118E+03  0.35785113703E+03  0.80273204648E+02 0.  0.
          5    1    5    5  501    0 -0.39744579480E+02 -0.79560286377E+02  0.15557614617E+02  0.90407965019E+02  0.47000000000E+01 0. -1.
        -13    1    6    6    0    0 -0.19336245789E+02 -0.18007382792E+02  0.70735163264E+02  0.75509069377E+02  0.00000000000E+00 0.  1.
         14    1    6    6    0    0 -0.19595351436E+03 -0.10047216809E+03  0.17670485792E+03  0.28234206765E+03  0.00000000000E+00 0. -1.
         -5    1    3    3    0  503  0.52846400296E+02  0.79727698520E+02  0.50123548575E+03  0.51030221449E+03  0.47000000000E+01 0.  1.
         11    1    4    4    0    0  0.90829042375E+02  0.97394903996E+01  0.23826626452E+03  0.25517755666E+03  0.00000000000E+00 0. -1.
        -12    1    4    4    0    0  0.11135889696E+03  0.10857264834E+03  0.32941316659E+03  0.36428266253E+03  0.00000000000E+00 0.  1.
</event>
<event>
12    1  0.8493057E-002  0.1835889E+03  0.7818608E-02  0.1165113E+00
         21   -1    0    0  501  502  0.00000000000E+00  0.00000000000E+00  0.91458389884E+02  0.91458389884E+02  0.00000000000E+00 0. -1.
         21   -1    0    0  502  503 -0.00000000000E+00 -0.00000000000E+00 -0.12784887533E+04  0.12784887533E+04  0.00000000000E+00 0. -1.
         -6    2    1    2    0  503 -0.62176622142E+02 -0.79121766573E+01 -0.11747899931E+04  0.11890485246E+04  0.17255819646E+03 0.  0.
        -24    2    3    3    0    0 -0.65083544617E+02  0.25512358919E+02 -0.11198451358E+04  0.11244987212E+04  0.74548625789E+02 0.  0.
          6    2    1    2  501    0  0.62176622142E+02  0.79121766573E+01 -0.12240370319E+02  0.18089861855E+03  0.16925114076E+03 0.  0.
         24    2    5    5    0    0  0.84198870147E+01  0.31870666799E+02 -0.63567528032E+02  0.10266587004E+03  0.73571844825E+02 0.  0.
          5    1    5    5  501    0  0.53756735128E+02 -0.23958490142E+02  0.51327157713E+02  0.78232748516E+02  0.47000000000E+01 0. -1.
        -13    1    6    6    0    0  0.21617056051E+02  0.49760246621E+02 -0.58655540053E+02  0.79899008974E+02  0.00000000000E+00 0.  1.
         14    1    6    6    0    0 -0.13197169036E+02 -0.17889579822E+02 -0.49119879786E+01  0.22766861063E+02  0.00000000000E+00 0. -1.
         -5    1    3    3    0  503  0.29069224749E+01 -0.33424535576E+02 -0.54944857264E+02  0.64549803380E+02  0.47000000000E+01 0.  1.
         13    1    4    4    0    0  0.51876818782E+01  0.24053164815E+02 -0.51426811892E+03  0.51485645079E+03  0.00000000000E+00 0. -1.
        -14    1    4    4    0    0 -0.70271226495E+02  0.14591941037E+01 -0.60557701690E+03  0.60964227044E+03  0.00000000000E+00 0.  1.
</event>
<event>
12    1  0.8493057E-002  0.2382716E+03  0.7818608E-02  0.1121692E+00
         21   -1    0    0  501  502  0.00000000000E+00  0.00000000000E+00  0.61489698120E+03  0.61489698120E+03  0.00000000000E+00 0. -1.
         21   -1    0    0  502  503 -0.00000000000E+00 -0.00000000000E+00 -0.94387681528E+02  0.94387681528E+02  0.00000000000E+00 0. -1.
         -6    2    1    2    0  503 -0.12896599961E+03 -0.92404332561E+02  0.18731416157E+03  0.29966001323E+03  0.17186837601E+03 0.  0.
        -24    2    3    3    0    0 -0.91586789933E+02 -0.33565229736E+01  0.15794444969E+03  0.19860860214E+03  0.78099432251E+02 0.  0.
          6    2    1    2  501    0  0.12896599961E+03  0.92404332561E+02  0.33319513810E+03  0.40962464949E+03  0.17777109913E+03 0.  0.
         24    2    5    5    0    0  0.70945207821E+02  0.20365007940E+02  0.66672839053E+02  0.12746812828E+03  0.79717627912E+02 0.  0.
          5    1    5    5  501    0  0.58020791793E+02  0.72039324621E+02  0.26652229904E+03  0.28215652121E+03  0.47000000000E+01 0. -1.
        -13    1    6    6    0    0  0.21261187608E+02 -0.27541802194E+02  0.41134711109E+02  0.53876278868E+02  0.00000000000E+00 0.  1.
         14    1    6    6    0    0  0.49684020213E+02  0.47906810134E+02  0.25538127944E+02  0.73591849417E+02  0.00000000000E+00 0. -1.
         -5    1    3    3    0  503 -0.37379209681E+02 -0.89047809587E+02  0.29369711881E+02  0.10105141110E+03  0.47000000000E+01 0.  1.
         11    1    4    4    0    0 -0.91530787376E+02 -0.28031271484E+02  0.12454569404E+03  0.15708363098E+03  0.00000000000E+00 0. -1.
        -12    1    4    4    0    0 -0.56002556451E-01  0.24674748510E+02  0.33398755656E+02  0.41524971158E+02  0.00000000000E+00 0.  1.
</event>
<event>
12    1  0.8493057E-002  0.1864770E+03  0.7818608E-02  0.1164516E+00
         21   -1    0    0  503  502  0.00000000000E+00  0.00000000000E+00  0.85851130066E+02  0.85851130066E+02  0.00000000000E+00 0.  1.
         21   -1    0    0  501  503 -0.00000000000E+00 -0.00000000000E+00 -0.87497098575E+03  0.87497098575E+03  0.00000000000E+00 0.  1.
          6    2    1    2  501    0  0.58052945629E+02  0.48005945751E+02 -0.76153918661E+03  0.78403800529E+03  0.17058413075E+03 0.  0.
         24    2    3    3    0    0  0.42664051385E+02  0.31285962114E+02 -0.75187230234E+03  0.75890009427E+03  0.88421498197E+02 0.  0.
         -6    2    1    2    0  502 -0.58052945629E+02 -0.48005945751E+02 -0.27580669070E+02  0.17678411053E+03  0.15753479966E+03 0.  0.
        -24    2    5    5    0    0 -0.56043433781E+01  0.30697795039E+01 -0.56281503080E+02  0.98009663774E+02  0.79984088375E+02 0.  0.
          5    1    3    3  501    0  0.15388894245E+02  0.16719983638E+02 -0.96668842702E+01  0.25137911019E+02  0.47000000000E+01 0. -1.
        -11    1    4    4    0    0 -0.12634967372E+02  0.28697139213E+02 -0.10290956219E+03  0.10758041731E+03  0.00000000000E+00 0.  1.
         12    1    4    4    0    0  0.55299018756E+02  0.25888229008E+01 -0.64896274016E+03  0.65131967696E+03  0.00000000000E+00 0. -1.
         -5    1    5    5    0  502 -0.52448602251E+02 -0.51075725255E+02  0.28700834011E+02  0.78774446754E+02  0.47000000000E+01 0.  1.
         13    1    6    6    0    0  0.22436183662E+02 -0.29526264521E+02 -0.23004191524E+02  0.43639150560E+02  0.00000000000E+00 0. -1.
        -14    1    6    6    0    0 -0.28040527040E+02  0.32596044025E+02 -0.33277311556E+02  0.54370513214E+02  0.00000000000E+00 0.  1.
</event>
<event>
12    1  0.8493057E-002  0.1822155E+03  0.7818608E-02  0.1165695E+00
         21   -1    0    0  501  502  0.00000000000E+00  0.00000000000E+00  0.91850363521E+03  0.91850363521E+03  0.00000000000E+00 0. -1.
         21   -1    0    0  502  503 -0.00000000000E+00 -0.00000000000E+00 -0.39488542539E+02  0.39488542539E+02  0.00000000000E+00 0. -1.
         -6    2    1    2    0  503 -0.24003587040E+02  0.55844025101E+02  0.29977152421E+03  0.35076438426E+03  0.17169146515E+03 0.  0.
        -24    2    3    3    0    0  0.51348453532E+02  0.34288104780E+02  0.15628417161E+03  0.18720002972E+03  0.82503157642E+02 0.  0.
          6    2    1    2  501    0  0.24003587040E+02 -0.55844025101E+02  0.57924356845E+03  0.60722779349E+03  0.17177821241E+03 0.  0.
         24    2    5    5    0    0  0.15453667527E+02 -0.10498969314E+03  0.38262960720E+03  0.40432994340E+03  0.76260312860E+02 0.  0.
          5    1    5    5  501    0  0.85499195129E+01  0.49145668038E+02  0.19661396125E+03  0.20289785008E+03  0.47000000000E+01 0. -1.
        -11    1    6    6    0    0  0.45488817556E+01 -0.63234291360E+02  0.99850785920E+02  0.11827699429E+03  0.00000000000E+00 0.  1.
         12    1    6    6    0    0  0.10904785771E+02 -0.41755401780E+02  0.28277882128E+03  0.28605294911E+03  0.00000000000E+00 0. -1.
         -5    1    3    3    0  503 -0.75352040572E+02  0.21555920321E+02  0.14348735260E+03  0.16356435454E+03  0.47000000000E+01 0.  1.
         11    1    4    4    0    0 -0.20186197814E+02  0.69614974119E+01  0.62945724015E+02  0.66468858875E+02  0.00000000000E+00 0. -1.
        -12    1    4    4    0    0  0.71534651346E+02  0.27326607368E+02  0.93338447597E+02  0.12073117084E+03  0.00000000000E+00 0.  1.
</event>
<event>
12    1  0.8493057E-002  0.1784679E+03  0.7818608E-02  0.1169374E+00
         21   -1    0    0  503  502  0.00000000000E+00  0.00000000000E+00  0.25880823518E+03  0.25880823518E+03  0.00000000000E+00 0. -1.
         21   -1    0    0  501  503 -0.00000000000E+00 -0.00000000000E+00 -0.13691291810E+03  0.13691291810E+03  0.00000000000E+00 0. -1.
          6    2    1    2  501    0 -0.27513812543E+02  0.38768647588E+02 -0.25300193837E+01  0.17816095618E+03  0.17168257743E+03 0.  0.
         24    2    3    3    0    0 -0.41993663757E+02 -0.42174441567E+01 -0.57361886917E+02  0.10684410073E+03  0.79649363835E+02 0.  0.
         -6    2    1    2    0  502  0.27513812543E+02 -0.38768647588E+02  0.12442533646E+03  0.21756019709E+03  0.17201964157E+03 0.  0.
        -24    2    5    5    0    0  0.52514728536E+02 -0.51893356858E+02  0.21463035377E+02  0.11069285297E+03  0.79633715296E+02 0.  0.
          5    1    3    3  501    0  0.14479851214E+02  0.42986091745E+02  0.54831867533E+02  0.71316855454E+02  0.47000000000E+01 0. -1.
        -13    1    4    4    0    0 -0.14509126562E+02  0.37484686948E+02 -0.25820597512E+02  0.47773630436E+02  0.00000000000E+00 0.  1.
         14    1    4    4    0    0 -0.27484537195E+02 -0.41702131105E+02 -0.31541289404E+02  0.59070470294E+02  0.00000000000E+00 0. -1.
         -5    1    5    5    0  502 -0.25000915993E+02  0.13124709269E+02  0.10296230109E+03  0.10686734412E+03  0.47000000000E+01 0.  1.
         11    1    6    6    0    0 -0.15186549019E+02  0.68712892815E+01 -0.46755924866E+01  0.17312049348E+02  0.00000000000E+00 0. -1.
        -12    1    6    6    0    0  0.67701277556E+02 -0.58764646139E+02  0.26138627864E+02  0.93380803622E+02  0.00000000000E+00 0.  1.
</event>
<event>
12    1  0.8493057E-002  0.1753089E+03  0.7818608E-02  0.1174312E+00
         21   -1    0    0  501  502  0.00000000000E+00  0.00000000000E+00  0.63596998737E+03  0.63596998737E+03  0.00000000000E+00 0.  1.
         21   -1    0    0  502  503 -0.00000000000E+00 -0.00000000000E+00 -0.48543294426E+02  0.48543294426E+02  0.00000000000E+00 0.  1.
         -6    2    1    2    0  503 -0.54029192854E+01  0.29654443381E+02  0.21435612403E+03  0.27230598273E+03  0.16520721162E+03 0.  0.
        -24    2    3    3    0    0 -0.34607816321E+02  0.59529737731E+02  0.20246977565E+03  0.22861577214E+03  0.80806377201E+02 0.  0.
          6    2    1    2  501    0  0.54029192854E+01 -0.29654443381E+02  0.37307056891E+03  0.41220729907E+03  0.17269809050E+03 0.  0.
         24    2    5    5    0    0  0.58883338403E+02  0.89577776753E+01  0.15839373197E+03  0.18757583831E+03  0.80923615005E+02 0.  0.
          5    1    5    5  501    0 -0.53480419117E+02 -0.38612221057E+02  0.21467683694E+03  0.22463146076E+03  0.47000000000E+01 0. -1.
        -13    1    6    6    0    0  0.42318945693E+02 -0.31595366812E+02  0.60376873033E+02  0.80215504522E+02  0.00000000000E+00 0.  1.
         14    1    6    6    0    0  0.16564392709E+02  0.40553144487E+02  0.98016858941E+02  0.10736033378E+03  0.00000000000E+00 0. -1.
         -5    1    3    3    0  503  0.29204897035E+02 -0.29875294349E+02  0.11886348379E+02  0.43690210587E+02  0.47000000000E+01 0.  1.
         13    1    4    4    0    0  0.18889911883E+02 -0.37871737331E+01  0.67760772030E+02  0.70446388707E+02  0.00000000000E+00 0. -1.
        -14    1    4    4    0    0 -0.53497728204E+02  0.63316911464E+02  0.13470900362E+03  0.15816938344E+03  0.00000000000E+00 0.  1.
</event>
<event>
12    1  0.8493057E-002  0.1795453E+03  0.7818608E-02  0.1168495E+00
         21   -1    0    0  503  502  0.00000000000E+00  0.00000000000E+00  0.15894491214E+03  0.15894491214E+03  0.00000000000E+00 0.  1.
         21   -1    0    0  501  503 -0.00000000000E+00 -0.00000000000E+00 -0.20267426648E+03  0.20267426648E+03  0.00000000000E+00 0. -1.
          6    2    1    2  501    0 -0.18215002783E+02 -0.43587811727E+02 -0.34779432154E+02  0.18288284083E+03  0.17321905470E+03 0.  0.
         24    2    3    3    0    0 -0.75413993763E+02 -0.45997250156E+02 -0.12510532770E+02  0.12127501793E+03  0.82146814096E+02 0.  0.
         -6    2    1    2    0  502  0.18215002783E+02  0.43587811727E+02 -0.89499221784E+01  0.17873633779E+03  0.17214788318E+03 0.  0.
        -24    2    5    5    0    0 -0.40695249896E+02 -0.16432840648E+02 -0.11008275756E+02  0.94479448448E+02  0.82939992935E+02 0.  0.
          5    1    3    3  501    0  0.57198990980E+02  0.24094384284E+01 -0.22268899385E+02  0.61607822900E+02  0.47000000000E+01 0. -1.
        -11    1    4    4    0    0 -0.64451553663E+02  0.62048998025E+01  0.54825180385E+01  0.64981240025E+02  0.00000000000E+00 0.  1.
         12    1    4    4    0    0 -0.10962440100E+02 -0.52202149958E+02 -0.17993050808E+02  0.56293777903E+02  0.00000000000E+00 0. -1.
         -5    1    5    5    0  502  0.58910252679E+02  0.60020652376E+02  0.20583535774E+01  0.84256889343E+02  0.47000000000E+01 0.  1.
         11    1    6    6    0    0 -0.51874104135E+02 -0.29729044313E+01 -0.36544759888E+02  0.63523856273E+02  0.00000000000E+00 0. -1.
        -12    1    6    6    0    0  0.11178854239E+02 -0.13459936217E+02  0.25536484133E+02  0.30955592175E+02  0.00000000000E+00 0.  1.
</event>
<event>
12    1  0.8493057E-002  0.1885759E+03  0.7818608E-02  0.1160482E+00
         21   -1    0    0  503  502  0.00000000000E+00  0.00000000000E+00  0.65947633793E+03  0.65947633793E+03  0.00000000000E+00 0.  1.
         21   -1    0    0  501  503 -0.00000000000E+00 -0.00000000000E+00 -0.53503627470E+02  0.53503627470E+02  0.00000000000E+00 0.  1.
          6    2    1    2  501    0 -0.45419142456E+02  0.53889765292E+02  0.33949657874E+03  0.38835396742E+03  0.17491103948E+03 0.  0.
         24    2    3    3    0    0 -0.43846183016E+02  0.62281392599E+02  0.35378706811E+03  0.37105651972E+03  0.81952374205E+02 0.  0.
         -6    2    1    2    0  502  0.45419142456E+02 -0.53889765292E+02  0.26647613172E+03  0.32462599798E+03  0.17148033264E+03 0.  0.
        -24    2    5    5    0    0  0.58269812764E+02 -0.72365416671E+02  0.27385894822E+03  0.30047883664E+03  0.81588498810E+02 0.  0.
          5    1    3    3  501    0 -0.15729594398E+01 -0.83916273073E+01 -0.14290489373E+02  0.17297447696E+02  0.47000000000E+01 0. -1.
        -13    1    4    4    0    0  0.14404808464E+02 -0.87986429356E+01  0.93763777775E+02  0.95270985336E+02  0.00000000000E+00 0.  1.
         14    1    4    4    0    0 -0.58250991480E+02  0.71080035535E+02  0.26002329034E+03  0.27578553439E+03  0.00000000000E+00 0. -1.
         -5    1    5    5    0  502 -0.12850670308E+02  0.18475651379E+02 -0.73828165006E+01  0.24147161339E+02  0.47000000000E+01 0.  1.
         13    1    6    6    0    0  0.15476338373E+02 -0.70376454117E+02  0.11305604666E+03  0.13406726681E+03  0.00000000000E+00 0. -1.
        -14    1    6    6    0    0  0.42793474391E+02 -0.19889625546E+01  0.16080290157E+03  0.16641156984E+03  0.00000000000E+00 0.  1.
</event>
<event>
12    1  0.8493057E-002  0.1935343E+03  0.7818608E-02  0.1155990E+00
         21   -1    0    0  503  502  0.00000000000E+00  0.00000000000E+00  0.88641086353E+02  0.88641086353E+02  0.00000000000E+00 0. -1.
         21   -1    0    0  501  503 -0.00000000000E+00 -0.00000000000E+00 -0.52627137513E+03  0.52627137513E+03  0.00000000000E+00 0.  1.
          6    2    1    2  501    0  0.72002644562E+02  0.36717347319E+02 -0.36098682097E+03  0.40959371055E+03  0.17584930591E+03 0.  0.
         24    2    3    3    0    0 -0.20201647120E+02  0.57447001134E+02 -0.20447020181E+03  0.22669786034E+03  0.76652410052E+02 0.  0.
         -6    2    1    2    0  502 -0.72002644562E+02 -0.36717347319E+02 -0.76643467804E+02  0.20531875093E+03  0.17247905354E+03 0.  0.
        -24    2    5    5    0    0  0.53123890360E+01  0.21541089639E+02 -0.72825618512E+02  0.10832222589E+03  0.77057730888E+02 0.  0.
          5    1    3    3  501    0  0.92204291682E+02 -0.20729653815E+02 -0.15651661916E+03  0.18289585021E+03  0.47000000000E+01 0. -1.
        -11    1    4    4    0    0  0.11287080278E+02  0.79869153540E+00 -0.11847597640E+03  0.11901509599E+03  0.00000000000E+00 0.  1.
         12    1    4    4    0    0 -0.31488727399E+02  0.56648309599E+02 -0.85994225415E+02  0.10768276435E+03  0.00000000000E+00 0. -1.
         -5    1    5    5    0  502 -0.77315033598E+02 -0.58258436958E+02 -0.38178492915E+01  0.96996525042E+02  0.47000000000E+01 0.  1.
         13    1    6    6    0    0 -0.91489273686E+01  0.28786122084E+02  0.34033269164E+01  0.30396156512E+02  0.00000000000E+00 0. -1.
        -14    1    6    6    0    0  0.14461316405E+02 -0.72450324446E+01 -0.76228945429E+02  0.77926069377E+02  0.00000000000E+00 0.  1.
</event>
<event>
12    1  0.8493057E-002  0.2427119E+03  0.7818608E-02  0.1118187E+00
         21   -1    0    0  503  502  0.00000000000E+00  0.00000000000E+00  0.42205788859E+02  0.42205788859E+02  0.00000000000E+00 0.  1.
         21   -1    0    0  501  503 -0.00000000000E+00 -0.00000000000E+00 -0.14107943800E+04  0.14107943800E+04  0.00000000000E+00 0.  1.
          6    2    1    2  501    0  0.13728093685E+02 -0.17176584834E+03 -0.59282991005E+03  0.64015911156E+03  0.16930569587E+03 0.  0.
         24    2    3    3    0    0  0.14435650892E+02 -0.31315950270E+02 -0.30703646382E+03  0.32168358909E+03  0.89553696837E+02 0.  0.
         -6    2    1    2    0  502 -0.13728093685E+02  0.17176584834E+03 -0.77575868111E+03  0.81284105731E+03  0.17093006151E+03 0.  0.
        -24    2    5    5    0    0  0.77610767166E+01  0.65130371991E+02 -0.57970669937E+03  0.58858366323E+03  0.77901679387E+02 0.  0.
          5    1    3    3  501    0 -0.70755720646E+00 -0.14044989807E+03 -0.28579344623E+03  0.31847552247E+03  0.47000000000E+01 0. -1.
        -13    1    4    4    0    0  0.37503832547E+02 -0.43467572654E+02 -0.12216297769E+03  0.13498059285E+03  0.00000000000E+00 0.  1.
         14    1    4    4    0    0 -0.23068181655E+02  0.12151622384E+02 -0.18487348613E+03  0.18670299624E+03  0.00000000000E+00 0. -1.
         -5    1    5    5    0  502 -0.21489170402E+02  0.10663547635E+03 -0.19605198173E+03  0.22425739409E+03  0.47000000000E+01 0.  1.
         11    1    6    6    0    0 -0.25872244178E+02  0.45590197306E+02 -0.45347826426E+03  0.45649794661E+03  0.00000000000E+00 0. -1.
        -12    1    6    6    0    0  0.33633320895E+02  0.19540174685E+02 -0.12622843512E+03  0.13208571661E+03  0.00000000000E+00 0.  1.
</event>
<event>
12    1  0.8493057E-002  0.1763833E+03  0.7818608E-02  0.1171426E+00
         21   -1    0    0  503  502  0.00000000000E+00  0.00000000000E+00  0.28550402357E+02  0.28550402357E+02  0.00000000000E+00 0. -1.
         21   -1    0    0  501  503 -0.00000000000E+00 -0.00000000000E+00 -0.21279072861E+04  0.21279072861E+04  0.00000000000E+00 0. -1.
          6    2    1    2  501    0 -0.38049458552E+02  0.11434958111E+01 -0.18039734517E+04  0.18125758681E+04  0.17222657773E+03 0.  0.
         24    2    3    3    0    0 -0.50305256476E+02  0.89709599131E+01 -0.58172380397E+03  0.59023067737E+03  0.85782116145E+02 0.  0.
         -6    2    1    2    0  502  0.38049458552E+02 -0.11434958111E+01 -0.29538343206E+03  0.34388182043E+03  0.17191354110E+03 0.  0.
        -24    2    5    5    0    0  0.16144651695E+02 -0.59170102077E+02 -0.24103279942E+03  0.26128043506E+03  0.80055634338E+02 0.  0.
          5    1    3    3  501    0  0.12255797924E+02 -0.78274641019E+01 -0.12222496477E+04  0.12223451907E+04  0.47000000000E+01 0. -1.
        -11    1    4    4    0    0  0.23222113922E+02  0.68765685987E+01 -0.98120981712E+02  0.10106572526E+03  0.00000000000E+00 0.  1.
         12    1    4    4    0    0 -0.73527370398E+02  0.20943913144E+01 -0.48360282226E+03  0.48916495211E+03  0.00000000000E+00 0. -1.
         -5    1    5    5    0  502  0.21904806857E+02  0.58026606265E+02 -0.54350632639E+02  0.82601385378E+02  0.47000000000E+01 0.  1.
         13    1    6    6    0    0 -0.22061297094E+02  0.33643086070E+01 -0.26880721422E+02  0.34936980208E+02  0.00000000000E+00 0. -1.
        -14    1    6    6    0    0  0.38205948788E+02 -0.62534410684E+02 -0.21415207800E+03  0.22634345485E+03  0.00000000000E+00 0.  1.
</event>
<event>
12    1  0.8493057E-002  0.1904352E+03  0.7818608E-02  0.1159903E+00
         21   -1    0    0  501  502  0.00000000000E+00  0.00000000000E+00  0.19131098184E+03  0.19131098184E+03  0.00000000000E+00 0.  1.
         21   -1    0    0  502  503 -0.00000000000E+00 -0.00000000000E+00 -0.23913287702E+03  0.23913287702E+03  0.00000000000E+00 0.  1.
         -6    2    1    2    0  503  0.20895407843E+02  0.72297190779E+02 -0.12974546579E+03  0.23043315340E+03  0.17493441752E+03 0.  0.
        -24    2    3    3    0    0  0.59531591877E+02  0.13791406328E+02 -0.12562795129E+03  0.16004334266E+03  0.78085056604E+02 0.  0.
          6    2    1    2  501    0 -0.20895407843E+02 -0.72297190779E+02  0.81923570604E+02  0.20001070546E+03  0.16622066362E+03 0.  0.
         24    2    5    5    0    0 -0.56978965463E+02 -0.80232529559E+02  0.19096667380E+02  0.12697439599E+03  0.77935571006E+02 0.  0.
          5    1    5    5  501    0  0.36083557620E+02  0.79353387799E+01  0.62826903224E+02  0.73036309469E+02  0.47000000000E+01 0. -1.
        -13    1    6    6    0    0 -0.16880345238E+02 -0.42314669446E+02  0.46723845491E+02  0.65257911728E+02  0.00000000000E+00 0.  1.
         14    1    6    6    0    0 -0.40098620226E+02 -0.37917860114E+02 -0.27627178111E+02  0.61716484265E+02  0.00000000000E+00 0. -1.
         -5    1    3    3    0  503 -0.38636184034E+02  0.58505784451E+02 -0.41175144967E+01  0.70389810744E+02  0.47000000000E+01 0.  1.
         13    1    4    4    0    0 -0.19937265083E+00 -0.13248876280E+02  0.47752487258E+01  0.14084582796E+02  0.00000000000E+00 0. -1.
        -14    1    4    4    0    0  0.59730964528E+02  0.27040282608E+02 -0.13040320002E+03  0.14595875986E+03  0.00000000000E+00 0.  1.
</event>
<event>
12    1  0.8493057E-002  0.2997853E+03  0.7818608E-02  0.1085491E+00
         21   -1    0    0  503  502  0.00000000000E+00  0.00000000000E+00  0.74128155497E+02  0.74128155497E+02  0.00000000000E+00 0. -1.
         21   -1    0    0  501  503 -0.00000000000E+00 -0.00000000000E+00 -0.14953944454E+04  0.14953944454E+04  0.00000000000E+00 0. -1.
          6    2    1    2  501    0  0.67746146435E+02 -0.23646114583E+03 -0.10537084802E+04  0.10952126353E+04  0.16936865511E+03 0.  0.
         24    2    3    3    0    0  0.69587334417E+02 -0.23871586574E+03 -0.80287619656E+03  0.84431943437E+03  0.80233774581E+02 0.  0.
         -6    2    1    2    0  502 -0.67746146435E+02  0.23646114583E+03 -0.36755780967E+03  0.47430996561E+03  0.17137031885E+03 0.  0.
        -24    2    5    5    0    0 -0.79785271743E+02  0.14490632537E+03 -0.32527609038E+03  0.37263863497E+03  0.75441928528E+02 0.  0.
          5    1    3    3  501    0 -0.18411879821E+01  0.22547199056E+01 -0.25083228367E+03  0.25089320091E+03  0.47000000000E+01 0. -1.
        -13    1    4    4    0    0  0.13795088809E+02 -0.22265421063E+01 -0.92204999133E+02  0.93257835221E+02  0.00000000000E+00 0.  1.
         14    1    4    4    0    0  0.55792245608E+02 -0.23648932363E+03 -0.71067119743E+03  0.75106159915E+03  0.00000000000E+00 0. -1.
         -5    1    5    5    0  502  0.12039125308E+02  0.91554820463E+02 -0.42281719292E+02  0.10167133064E+03  0.47000000000E+01 0.  1.
         11    1    6    6    0    0 -0.77210520373E+02  0.62922683017E+02 -0.18667634613E+03  0.21158635754E+03  0.00000000000E+00 0. -1.
        -12    1    6    6    0    0 -0.25747513702E+01  0.81983642350E+02 -0.13859974425E+03  0.16105227742E+03  0.00000000000E+00 0.  1.
</event>
<event>
12    1  0.8493057E-002  0.1920604E+03  0.7818608E-02  0.1156618E+00
         21   -1    0    0  501  502  0.00000000000E+00  0.00000000000E+00  0.18563886296E+03  0.18563886296E+03  0.00000000000E+00 0. -1.
         21   -1    0    0  502  503 -0.00000000000E+00 -0.00000000000E+00 -0.23426800877E+03  0.23426800877E+03  0.00000000000E+00 0.  1.
         -6    2    1    2    0  503  0.83389942527E+02  0.20574476870E+02 -0.10613059201E+03  0.21942338649E+03  0.17177231548E+03 0.  0.
        -24    2    3    3    0    0  0.84642450497E+02 -0.45688145566E+02 -0.78486368606E+02  0.14746091713E+03  0.79579274643E+02 0.  0.
          6    2    1    2  501    0 -0.83389942527E+02 -0.20574476870E+02  0.57501446205E+02  0.20048348524E+03  0.17178480702E+03 0.  0.
         24    2    5    5    0    0 -0.72456959398E+02 -0.27925518573E+02 -0.27217914345E+02  0.11461714733E+03  0.79789911940E+02 0.  0.
          5    1    5    5  501    0 -0.10932983129E+02  0.73510417033E+01  0.84719360549E+02  0.85866337910E+02  0.47000000000E+01 0. -1.
        -13    1    6    6    0    0  0.43584287277E+01  0.35314296190E+01 -0.31020102538E+02  0.31523224099E+02  0.00000000000E+00 0.  1.
         14    1    6    6    0    0 -0.76815388125E+02 -0.31456948192E+02  0.38021881928E+01  0.83093923228E+02  0.00000000000E+00 0. -1.
         -5    1    3    3    0  503 -0.12525079704E+01  0.66262622436E+02 -0.27644223406E+02  0.71962469358E+02  0.47000000000E+01 0.  1.
         13    1    4    4    0    0  0.24650434615E+01 -0.14639202468E+02  0.13642946184E+02  0.20162159328E+02  0.00000000000E+00 0. -1.
        -14    1    4    4    0    0  0.82177407035E+02 -0.31048943098E+02 -0.92129314790E+02  0.12729875780E+03  0.00000000000E+00 0.  1.
</event>
<event>
12    1  0.8493057E-002  0.1773169E+03  0.7818608E-02  0.1170783E+00
         21   -1    0    0  503  502  0.00000000000E+00  0.00000000000E+00  0.14163545067E+04  0.14163545067E+04  0.00000000000E+00 0.  1.
         21   -1    0    0  501  503 -0.00000000000E+00 -0.00000000000E+00 -0.32717375855E+02  0.32717375855E+02  0.00000000000E+00 0.  1.
          6    2    1    2  501    0 -0.17946352355E+01 -0.36115840470E+02  0.27559393876E+03  0.32693063153E+03  0.17211636790E+03 0.  0.
         24    2    3    3    0    0 -0.40860088097E+02 -0.42571198073E+02  0.75084273800E+02  0.12249482989E+03  0.76716891703E+02 0.  0.
         -6    2    1    2    0  502  0.17946352355E+01  0.36115840470E+02  0.11080431921E+04  0.11221412510E+04  0.17359060196E+03 0.  0.
        -24    2    5    5    0    0  0.35671125027E+02  0.69924906968E+02  0.50941767695E+03  0.52158711783E+03  0.79905131984E+02 0.  0.
          5    1    3    3  501    0  0.39065452861E+02  0.64553576026E+01  0.20050966496E+03  0.20443580164E+03  0.47000000000E+01 0. -1.
        -13    1    4    4    0    0  0.19556154518E+02 -0.27726828340E+02  0.33380356112E+02  0.47596936492E+02  0.00000000000E+00 0.  1.
         14    1    4    4    0    0 -0.60416242615E+02 -0.14844369733E+02  0.41703917688E+02  0.74897893395E+02  0.00000000000E+00 0. -1.
         -5    1    5    5    0  502 -0.33876489791E+02 -0.33809066498E+02  0.59862551510E+03  0.60055413317E+03  0.47000000000E+01 0.  1.
         11    1    6    6    0    0  0.19080143067E+02  0.21186326230E+01  0.22009413133E+02  0.29205388717E+02  0.00000000000E+00 0. -1.
        -12    1    6    6    0    0  0.16590981960E+02  0.67806274345E+02  0.48740826382E+03  0.49238172911E+03  0.00000000000E+00 0.  1.
</event>
<event>
12    1  0.8493057E-002  0.2154947E+03  0.7818608E-02  0.1137798E+00
         21   -1    0    0  503  502  0.00000000000E+00  0.00000000000E+00  0.46445026776E+02  0.46445026776E+02  0.00000000000E+00 0.  1.
         21   -1    0    0  501  503 -0.00000000000E+00 -0.00000000000E+00 -0.98882182543E+03  0.98882182543E+03  0.00000000000E+00 0.  1.
          6    2    1    2  501    0 -0.11717378957E+03 -0.52875895542E+02 -0.48657071040E+03  0.53108716026E+03  0.16963772660E+03 0.  0.
         24    2    3    3    0    0 -0.47299341766E+02 -0.87299674546E+02 -0.26826930112E+03  0.29925741604E+03  0.87909739052E+02 0.  0.
         -6    2    1    2    0  502  0.11717378957E+03  0.52875895542E+02 -0.45580608826E+03  0.50417969195E+03  0.17295205805E+03 0.  0.
        -24    2    5    5    0    0  0.51082021881E+02 -0.13359567335E+02 -0.34256078513E+03  0.35720402396E+03  0.86365341577E+02 0.  0.
          5    1    3    3  501    0 -0.69874447807E+02  0.34423779003E+02 -0.21830140927E+03  0.23182974423E+03  0.47000000000E+01 0. -1.
        -11    1    4    4    0    0  0.49772154257E+00 -0.53309095378E+02 -0.20969902376E+03  0.21636956335E+03  0.00000000000E+00 0.  1.
         12    1    4    4    0    0 -0.47797063309E+02 -0.33990579168E+02 -0.58570277363E+02  0.82887852690E+02  0.00000000000E+00 0. -1.
         -5    1    5    5    0  502  0.66091767692E+02  0.66235462877E+02 -0.11324530313E+03  0.14697566799E+03  0.47000000000E+01 0.  1.
         13    1    6    6    0    0 -0.19053624151E+02  0.11105692232E+02 -0.13417064999E+03  0.13597110102E+03  0.00000000000E+00 0. -1.
        -14    1    6    6    0    0  0.70135646032E+02 -0.24465259567E+02 -0.20839013514E+03  0.22123292294E+03  0.00000000000E+00 0.  1.
</event>
<event>
12    1  0.8493057E-002  0.1887540E+03  0.7818608E-02  0.1160341E+00
         21   -1    0    0  503  502  0.00000000000E+00  0.00000000000E+00  0.42604259846E+03  0.42604259846E+03  0.00000000000E+00 0.  1.
         21   -1    0    0  501  503 -0.00000000000E+00 -0.00000000000E+00 -0.36650914922E+03  0.36650914922E+03  0.00000000000E+00 0.  1.
          6    2    1    2  501    0 -0.22368967977E+00 -0.69235687665E+02 -0.31920318032E+03  0.37083521874E+03  0.17559743349E+03 0.  0.
         24    2    3    3    0    0 -0.50736487334E+02  0.74555966357E+01 -0.20031839885E+03  0.22053958647E+03  0.76684230548E+02 0.  0.
         -6    2    1    2    0  502  0.22368967977E+00  0.69235687665E+02  0.37873662955E+03  0.42171652895E+03  0.17207488410E+03 0.  0.
        -24    2    5    5    0    0 -0.61879089327E+02  0.16733042176E+02  0.23107886157E+03  0.25308026538E+03  0.80889826711E+02 0.  0.
          5    1    3    3  501    0  0.50512797654E+02 -0.76691284300E+02 -0.11888478146E+03  0.15029563227E+03  0.47000000000E+01 0. -1.
        -11    1    4    4    0    0 -0.60348179166E+01  0.24969818668E+02 -0.16444912713E+02  0.30501574152E+02  0.00000000000E+00 0.  1.
         12    1    4    4    0    0 -0.44701669418E+02 -0.17514222032E+02 -0.18387348614E+03  0.19003801232E+03  0.00000000000E+00 0. -1.
         -5    1    5    5    0  502  0.62102779006E+02  0.52502645489E+02  0.14765776798E+03  0.16863626356E+03  0.47000000000E+01 0.  1.
         11    1    6    6    0    0 -0.23803093149E+02  0.48075485273E+02  0.11162749136E+03  0.12384884478E+03  0.00000000000E+00 0. -1.
        -12    1    6    6    0    0 -0.38075996177E+02 -0.31342443097E+02  0.11945137021E+03  0.12923142060E+03  0.00000000000E+00 0.  1.
</event>
<event>
12    1  0.8493057E-002  0.1814187E+03  0.7818608E-02  0.1167632E+00
         21   -1    0    0  501  502  0.00000000000E+00  0.00000000000E+00  0.14849013344E+04  0.14849013344E+04  0.00000000000E+00 0.  1.
         21   -1    0    0  502  503 -0.00000000000E+00 -0.00000000000E+00 -0.21612602523E+02  0.21612602523E+02  0.00000000000E+00 0.  1.
         -6    2    1    2    0  503 -0.32679190721E+02 -0.44006499749E+02  0.77583049651E+03  0.79675950906E+03  0.17294003130E+03 0.  0.
        -24    2    3    3    0    0 -0.49619436771E+02 -0.90288169819E+02  0.59738911929E+03  0.61157749042E+03  0.80865473653E+02 0.  0.
          6    2    1    2  501    0  0.32679190721E+02  0.44006499749E+02  0.68745823537E+03  0.70975442788E+03  0.16777371958E+03 0.  0.
         24    2    5    5    0    0  0.12990379047E+02 -0.12220737681E+02  0.58803169182E+03  0.59375063873E+03  0.80252439384E+02 0.  0.
          5    1    5    5  501    0  0.19688811673E+02  0.56227237430E+02  0.99426543556E+02  0.11600378915E+03  0.47000000000E+01 0. -1.
        -13    1    6    6    0    0 -0.21045144576E+02 -0.24527275569E+02  0.11855969351E+03  0.12288566346E+03  0.00000000000E+00 0.  1.
         14    1    6    6    0    0  0.34035523624E+02  0.12306537888E+02  0.46947199831E+03  0.47086497527E+03  0.00000000000E+00 0. -1.
         -5    1    3    3    0  503  0.16940246050E+02  0.46281670069E+02  0.17844137722E+03  0.18518201863E+03  0.47000000000E+01 0.  1.
         13    1    4    4    0    0 -0.39713281422E+01 -0.51577751976E+02  0.12311206872E+03  0.13353882361E+03  0.00000000000E+00 0. -1.
        -14    1    4    4    0    0 -0.45648108629E+02 -0.38710417842E+02  0.47427705057E+03  0.47803866682E+03  0.00000000000E+00 0.  1.
</event>
<event>
12    1  0.8493057E-002  0.1900859E+03  0.7818608E-02  0.1158470E+00
         21   -1    0    0  501  502  0.00000000000E+00  0.00000000000E+00  0.19656446090E+03  0.19656446090E+03  0.00000000000E+00 0. -1.
         21   -1    0    0  502  503 -0.00000000000E+00 -0.00000000000E+00 -0.34554898988E+03  0.34554898988E+03  0.00000000000E+00 0. -1.
         -6    2    1    2    0  503  0.53775471076E+02 -0.61036262333E+02  0.11111696044E+03  0.22018092238E+03  0.17180056191E+03 0.  0.
        -24    2    3    3    0    0  0.97712933144E+02 -0.29384842190E+02  0.10242291842E+03  0.16513558346E+03  0.79799877524E+02 0.  0.
          6    2    1    2  501    0 -0.53775471076E+02  0.61036262333E+02 -0.26010148942E+03  0.32193252839E+03  0.17137835754E+03 0.  0.
         24    2    5    5    0    0 -0.95983530988E+02  0.57475953199E+02 -0.15166287735E+03  0.20541978785E+03  0.81727213686E+02 0.  0.
          5    1    5    5  501    0  0.42208059913E+02  0.35603091346E+01 -0.10843861206E+03  0.11651274055E+03  0.47000000000E+01 0. -1.
        -13    1    6    6    0    0 -0.86808745256E+02  0.26432215975E+02 -0.61496505089E+02  0.10961861353E+03  0.00000000000E+00 0.  1.
         14    1    6    6    0    0 -0.91747857327E+01  0.31043737223E+02 -0.90166372262E+02  0.95801174319E+02  0.00000000000E+00 0. -1.
         -5    1    3    3    0  503 -0.43937462068E+02 -0.31651420143E+02  0.86940420187E+01  0.55045338919E+02  0.47000000000E+01 0.  1.
         11    1    4    4    0    0  0.50647087620E+02 -0.52422268500E+02  0.38354640923E+02  0.82366863479E+02  0.00000000000E+00 0. -1.
        -12    1    4    4    0    0  0.47065845524E+02  0.23037426310E+02  0.64068277496E+02  0.82768719980E+02  0.00000000000E+00 0.  1.
</event>
<event>
12    1  0.8493057E-002  0.1836468E+03  0.7818608E-02  0.1164571E+00
         21   -1    0    0  503  502  0.00000000000E+00  0.00000000000E+00  0.36835672756E+03  0.36835672756E+03  0.00000000000E+00 0. -1.
         21   -1    0    0  501  503 -0.00000000000E+00 -0.00000000000E+00 -0.92002691240E+02  0.92002691240E+02  0.00000000000E+00 0. -1.
          6    2    1    2  501    0 -0.52736922391E+02  0.24883792066E+02  0.16146804146E+03  0.24373772789E+03  0.17301955233E+03 0.  0.
         24    2    3    3    0    0 -0.30309666521E+00 -0.23270117866E+02  0.14922039492E+03  0.17134850239E+03  0.80944380648E+02 0.  0.
         -6    2    1    2    0  502  0.52736922391E+02 -0.24883792066E+02  0.11488599486E+03  0.21662169091E+03  0.17414298455E+03 0.  0.
        -24    2    5    5    0    0  0.31321974198E+02 -0.13550262088E+01  0.14774726233E+03  0.17064174171E+03  0.79413149555E+02 0.  0.
          5    1    3    3  501    0 -0.52433825726E+02  0.48153909931E+02  0.12247646544E+02  0.72389225495E+02  0.47000000000E+01 0. -1.
        -13    1    4    4    0    0  0.56403758595E+01  0.16123736684E+02  0.12178226279E+03  0.12297442114E+03  0.00000000000E+00 0.  1.
         14    1    4    4    0    0 -0.59434725248E+01 -0.39393854550E+02  0.27438132127E+02  0.48374081248E+02  0.00000000000E+00 0. -1.
         -5    1    5    5    0  502  0.21414948193E+02 -0.23528765857E+02 -0.32861267477E+02  0.45979949206E+02  0.47000000000E+01 0.  1.
         11    1    6    6    0    0  0.36136607688E+02 -0.29510302524E+02  0.48217357206E+02  0.67094157020E+02  0.00000000000E+00 0. -1.
        -12    1    6    6    0    0 -0.48146334897E+01  0.28155276316E+02  0.99529905126E+02  0.10354758469E+03  0.00000000000E+00 0.  1.
</event>
<event>
12    1  0.8493057E-002  0.2334955E+03  0.7818608E-02  0.1124253E+00
         21   -1    0    0  503  502  0.00000000000E+00  0.00000000000E+00  0.65879370368E+03  0.65879370368E+03  0.00000000000E+00 0.  1.
         21   -1    0    0  501  503 -0.00000000000E+00 -0.00000000000E+00 -0.39812304526E+03  0.39812304526E+03  0.00000000000E+00 0.  1.
          6    2    1    2  501    0 -0.77008970049E+02  0.13739209629E+03 -0.34006109673E+03  0.41250661690E+03  0.17237514288E+03 0.  0.
         24    2    3    3    0    0  0.45851824260E+01  0.77607756690E+02 -0.26785661143E+03  0.28813881287E+03  0.72338256843E+02 0.  0.
         -6    2    1    2    0  502  0.77008970049E+02 -0.13739209629E+03  0.60073175515E+03  0.64441013205E+03  0.17198490357E+03 0.  0.
        -24    2    5    5    0    0  0.19156636462E+02 -0.68390717558E+01  0.30536745051E+03  0.31630474171E+03  0.79910325834E+02 0.  0.
          5    1    3    3  501    0 -0.81594152475E+02  0.59784339595E+02 -0.72204485304E+02  0.12436780402E+03  0.47000000000E+01 0. -1.
        -13    1    4    4    0    0 -0.30870629179E+02  0.15220275001E+02 -0.84587627466E+02  0.91322063256E+02  0.00000000000E+00 0.  1.
         14    1    4    4    0    0  0.35455811605E+02  0.62387481690E+02 -0.18326898396E+03  0.19681674962E+03  0.00000000000E+00 0. -1.
         -5    1    5    5    0  502  0.57852333587E+02 -0.13055302453E+03  0.29536430465E+03  0.32810539035E+03  0.47000000000E+01 0.  1.
         11    1    6    6    0    0  0.99301974464E+01 -0.17436004525E+02  0.30088938858E+03  0.30155770134E+03  0.00000000000E+00 0. -1.
        -12    1    6    6    0    0  0.92264390151E+01  0.10596932769E+02  0.44780619221E+01  0.14747040367E+02  0.00000000000E+00 0.  1.
</event>
<event>
12    1  0.8493057E-002  0.1980883E+03  0.7818608E-02  0.1154427E+00
         21   -1    0    0  503  502  0.00000000000E+00  0.00000000000E+00  0.30794195176E+03  0.30794195176E+03  0.00000000000E+00 0.  1.
         21   -1    0    0  501  503 -0.00000000000E+00 -0.00000000000E+00 -0.15406807650E+03  0.15406807650E+03  0.00000000000E+00 0.  1.
          6    2    1    2  501    0 -0.49500647974E+02  0.47966145982E+02  0.18970726970E+03  0.27427693865E+03  0.18570925014E+03 0.  0.
         24    2    3    3    0    0 -0.10605915187E+03  0.29833313662E+02  0.11580042731E+03  0.17934551434E+03  0.81341897247E+02 0.  0.
         -6    2    1    2    0  502  0.49500647974E+02 -0.47966145982E+02 -0.35833394448E+02  0.18773308961E+03  0.17090528215E+03 0.  0.
        -24    2    5    5    0    0 -0.29261515903E+02  0.91336308426E+01 -0.30378792868E+02  0.90184611146E+02  0.79187963140E+02 0.  0.
          5    1    3    3  501    0  0.56558503893E+02  0.18132832320E+02  0.73906842391E+02  0.94931424316E+02  0.47000000000E+01 0. -1.
        -13    1    4    4    0    0 -0.62049668678E+02 -0.17368843912E+02  0.88020424451E+02  0.10908452339E+03  0.00000000000E+00 0.  1.
         14    1    4    4    0    0 -0.44009483188E+02  0.47202157574E+02  0.27780002862E+02  0.70260990950E+02  0.00000000000E+00 0. -1.
         -5    1    5    5    0  502  0.78762163877E+02 -0.57099776825E+02 -0.54546015801E+01  0.97548478463E+02  0.47000000000E+01 0.  1.
         13    1    6    6    0    0 -0.89611202238E+01  0.13719824599E+02  0.25637404211E+02  0.30427154933E+02  0.00000000000E+00 0. -1.
        -14    1    6    6    0    0 -0.20300395680E+02 -0.45861937559E+01 -0.56016197078E+02  0.59757456213E+02  0.00000000000E+00 0.  1.
</event>
<event>
12    1  0.8493057E-002  0.2561128E+03  0.7818608E-02  0.1110296E+00
         21   -1    0    0  503  502  0.00000000000E+00  0.00000000000E+00  0.82129592976E+03  0.82129592976E+03  0.00000000000E+00 0. -1.
         21   -1    0    0  501  503 -0.00000000000E+00 -0.00000000000E+00 -0.97127109549E+02  0.97127109549E+02  0.00000000000E+00 0. -1.
          6    2    1    2  501    0  0.18798294163E+03  0.28129244181E+02  0.16272751191E+03  0.30343701129E+03  0.17165353468E+03 0.  0.
         24    2    3    3    0    0  0.71629385711E+02 -0.60984173775E+01  0.13840616801E+03  0.17964969142E+03  0.89161565113E+02 0.  0.
         -6    2    1    2    0  502 -0.18798294163E+03 -0.28129244181E+02  0.56144130830E+03  0.61498602802E+03  0.16389823448E+03 0.  0.
        -24    2    5    5    0    0 -0.70841438500E+02  0.34861465203E+02  0.32445913159E+03  0.34319087850E+03  0.79198610122E+02 0.  0.
          5    1    3    3  501    0  0.11635355592E+03  0.34227661558E+02  0.24321343899E+02  0.12378731987E+03  0.47000000000E+01 0. -1.
        -13    1    4    4    0    0  0.89336403436E+02 -0.14088166075E+02  0.90452336942E+02  0.12791049472E+03  0.00000000000E+00 0.  1.
         14    1    4    4    0    0 -0.17707017725E+02  0.79897486972E+01  0.47953831070E+02  0.51739196701E+02  0.00000000000E+00 0. -1.
         -5    1    5    5    0  502 -0.11714150313E+03 -0.62990709384E+02  0.23698217671E+03  0.27179514952E+03  0.47000000000E+01 0.  1.
         13    1    6    6    0    0 -0.25325740741E+02 -0.25617767827E+02  0.97456337730E+02  0.10390091884E+03  0.00000000000E+00 0. -1.
        -14    1    6    6    0    0 -0.45515697760E+02  0.60479233030E+02  0.22700279386E+03  0.23928995966E+03  0.00000000000E+00 0.  1.
</event>
<event>
12    1  0.8493057E-002  0.2695640E+03  0.7818608E-02  0.1101554E+00
         21   -1    0    0  501  502  0.00000000000E+00  0.00000000000E+00  0.53198898230E+03  0.53198898230E+03  0.00000000000E+00 0.  1.
         21   -1    0    0  502  503 -0.00000000000E+00 -0.00000000000E+00 -0.16388113015E+03  0.16388113015E+03  0.00000000000E+00 0. -1.
         -6    2    1    2    0  503  0.63493865363E+02 -0.19759394160E+03  0.41793550818E+02  0.27261394793E+03  0.17174640322E+03 0.  0.
        -24    2    3    3    0    0 -0.10703006284E+02 -0.12540548408E+03  0.72146959476E+02  0.16463353961E+03  0.77832697655E+02 0.  0.
          6    2    1    2  501    0 -0.63493865363E+02  0.19759394160E+03  0.32631430133E+03  0.42325616453E+03  0.17201721093E+03 0.  0.
         24    2    5    5    0    0 -0.11166396494E+03  0.14064534657E+03  0.23916302915E+03  0.30844791041E+03  0.75440071236E+02 0.  0.
          5    1    5    5  501    0  0.48170099574E+02  0.56948595032E+02  0.87151272187E+02  0.11480825411E+03  0.47000000000E+01 0. -1.
        -11    1    6    6    0    0 -0.37197968057E+02  0.10232123190E+03  0.15756118542E+03  0.19151723284E+03  0.00000000000E+00 0.  1.
         12    1    6    6    0    0 -0.74465996880E+02  0.38324114674E+02  0.81601843726E+02  0.11693067757E+03  0.00000000000E+00 0. -1.
         -5    1    3    3    0  503  0.74196871647E+02 -0.72188457525E+02 -0.30353408658E+02  0.10798040831E+03  0.47000000000E+01 0.  1.
         13    1    4    4    0    0 -0.14155397276E+02 -0.29101991337E+02 -0.14108218966E+02  0.35303583589E+02  0.00000000000E+00 0. -1.
        -14    1    4    4    0    0  0.34523909923E+01 -0.96303492739E+02  0.86255178442E+02  0.12932995602E+03  0.00000000000E+00 0.  1.
</event>
<event>
12    1  0.8493057E-002  0.3105767E+03  0.7818608E-02  0.1080178E+00
         21   -1    0    0  503  502  0.00000000000E+00  0.00000000000E+00  0.64427603899E+03  0.64427603899E+03  0.00000000000E+00 0. -1.
         21   -1    0    0  501  503 -0.00000000000E+00 -0.00000000000E+00 -0.38191815115E+03  0.38191815115E+03  0.00000000000E+00 0.  1.
          6    2    1    2  501    0  0.11298891267E+03  0.23277876833E+03 -0.26935125641E+03  0.41042434713E+03  0.17013405307E+03 0.  0.
         24    2    3    3    0    0  0.13775708199E+03  0.20873464177E+03 -0.26887631343E+03  0.37558331091E+03  0.78874502851E+02 0.  0.
         -6    2    1    2    0  502 -0.11298891267E+03 -0.23277876833E+03  0.53170914425E+03  0.61576984302E+03  0.17177146479E+03 0.  0.
        -24    2    5    5    0    0 -0.91369481770E+02 -0.87026093792E+02  0.34626733706E+03  0.37886902879E+03  0.87856411610E+02 0.  0.
          5    1    3    3  501    0 -0.24768169324E+02  0.24044126561E+02 -0.47494298191E+00  0.34841036216E+02  0.47000000000E+01 0. -1.
        -13    1    4    4    0    0  0.45387913667E+02  0.13714461310E+03 -0.16410728348E+03  0.21863190092E+03  0.00000000000E+00 0.  1.
         14    1    4    4    0    0  0.92369168325E+02  0.71590028666E+02 -0.10476902995E+03  0.15695140999E+03  0.00000000000E+00 0. -1.
         -5    1    5    5    0  502 -0.21619430898E+02 -0.14575267454E+03  0.18544180719E+03  0.23690081423E+03  0.47000000000E+01 0.  1.
         13    1    6    6    0    0 -0.10748318220E+03 -0.82374056504E+02  0.28822591410E+03  0.31845297487E+03  0.00000000000E+00 0. -1.
        -14    1    6    6    0    0  0.16113700433E+02 -0.46520372871E+01  0.58041422955E+02  0.60416053920E+02  0.00000000000E+00 0.  1.
</event>
<event>
12    1  0.8493057E-002  0.2084626E+03  0.7818608E-02  0.1143039E+00
         21   -1    0    0  503  502  0.00000000000E+00  0.00000000000E+00  0.42648535877E+03  0.42648535877E+03  0.00000000000E+00 0.  1.
         21   -1    0    0  501  503 -0.00000000000E+00 -0.00000000000E+00 -0.10160537785E+03  0.10160537785E+03  0.00000000000E+00 0.  1.
          6    2    1    2  501    0  0.11371943997E+03 -0.25994809880E+02  0.14717528617E+03  0.25416442031E+03  0.17126338349E+03 0.  0.
         24    2    3    3    0    0  0.11740859698E+03  0.18653129001E+02  0.58774530868E+02  0.15494833359E+03  0.80136276044E+02 0.  0.
         -6    2    1    2    0  502 -0.11371943997E+03  0.25994809880E+02  0.17770469475E+03  0.27392631631E+03  0.17276813093E+03 0.  0.
        -24    2    5    5    0    0 -0.68069175744E+02  0.69956809534E+02  0.16756232816E+03  0.20957135040E+03  0.79471058921E+02 0.  0.
          5    1    3    3  501    0 -0.36891570106E+01 -0.44647938881E+02  0.88400755300E+02  0.99216086716E+02  0.47000000000E+01 0. -1.
        -13    1    4    4    0    0  0.59408609094E+02  0.31845070648E+02  0.66835227938E+02  0.94923332498E+02  0.00000000000E+00 0.  1.
         14    1    4    4    0    0  0.57999987885E+02 -0.13191941647E+02 -0.80606970698E+01  0.60025001094E+02  0.00000000000E+00 0. -1.
         -5    1    5    5    0  502 -0.45650264225E+02 -0.43961999653E+02  0.10142366593E+02  0.64354965911E+02  0.47000000000E+01 0.  1.
         13    1    6    6    0    0  0.11428878649E+02  0.38857232007E+02  0.54358650284E+02  0.67789133400E+02  0.00000000000E+00 0. -1.
        -14    1    6    6    0    0 -0.79498054392E+02  0.31099577527E+02  0.11320367787E+03  0.14178221700E+03  0.00000000000E+00 0.  1.
</event>
<event>
12    1  0.8493057E-002  0.1825458E+03  0.7818608E-02  0.1165504E+00
         21   -1    0    0  501  502  0.00000000000E+00  0.00000000000E+00  0.56254857530E+02  0.56254857530E+02  0.00000000000E+00 0. -1.
         21   -1    0    0  502  503 -0.00000000000E+00 -0.00000000000E+00 -0.79774719191E+03  0.79774719191E+03  0.00000000000E+00 0. -1.
         -6    2    1    2    0  503  0.45989318929E+02 -0.38721688024E+02 -0.58887988304E+03  0.61652451372E+03  0.17236174978E+03 0.  0.
        -24    2    3    3    0    0  0.15047753150E+02 -0.64096887187E+02 -0.55267208496E+03  0.56235463401E+03  0.80383176603E+02 0.  0.
          6    2    1    2  501    0 -0.45989318929E+02  0.38721688024E+02 -0.15261245134E+03  0.23747753572E+03  0.17172837008E+03 0.  0.
         24    2    5    5    0    0  0.30136243422E+02 -0.13525485105E+02 -0.57109490527E+02  0.10455735717E+03  0.81114826724E+02 0.  0.
          5    1    5    5  501    0 -0.76125562351E+02  0.52247173129E+02 -0.95502960813E+02  0.13292017856E+03  0.47000000000E+01 0. -1.
        -13    1    6    6    0    0 -0.16012460880E+02 -0.26031374352E+02 -0.46397998527E+02  0.55559028261E+02  0.00000000000E+00 0.  1.
         14    1    6    6    0    0  0.46148704302E+02  0.12505889247E+02 -0.10711492000E+02  0.48998328905E+02  0.00000000000E+00 0. -1.
         -5    1    3    3    0  503  0.30941565779E+02  0.25375199163E+02 -0.36207798081E+02  0.54169879706E+02  0.47000000000E+01 0.  1.
         13    1    4    4    0    0 -0.22812829385E+02 -0.47662544977E+02 -0.42261328983E+03  0.42590390479E+03  0.00000000000E+00 0. -1.
        -14    1    4    4    0    0  0.37860582535E+02 -0.16434342211E+02 -0.13005879513E+03  0.13645072922E+03  0.00000000000E+00 0.  1.
</event>
<event>
12    1  0.8493057E-002  0.3588192E+03  0.7818608E-02  0.1059161E+00
         21   -1    0    0  501  502  0.00000000000E+00  0.00000000000E+00  0.52548408452E+03  0.52548408452E+03  0.00000000000E+00 0. -1.
         21   -1    0    0  502  503 -0.00000000000E+00 -0.00000000000E+00 -0.28693270790E+03  0.28693270790E+03  0.00000000000E+00 0.  1.
         -6    2    1    2    0  503 -0.17311379072E+03 -0.26270315645E+03  0.27606311362E+03  0.45272739761E+03  0.17253962126E+03 0.  0.
        -24    2    3    3    0    0 -0.79013987346E+02 -0.23583979003E+03  0.19290359394E+03  0.32422055281E+03  0.77740295518E+02 0.  0.
          6    2    1    2  501    0  0.17311379072E+03  0.26270315645E+03 -0.37511737001E+02  0.35968939480E+03  0.17025861910E+03 0.  0.
         24    2    5    5    0    0  0.11734948439E+03  0.73661227382E+02  0.82453010758E+01  0.15729792922E+03  0.74011996617E+02 0.  0.
          5    1    5    5  501    0  0.55764306331E+02  0.18904192907E+03 -0.45757038077E+02  0.20239146558E+03  0.47000000000E+01 0. -1.
        -13    1    6    6    0    0  0.10253837921E+03  0.46827183589E+02 -0.21307364696E+02  0.11472100123E+03  0.00000000000E+00 0.  1.
         14    1    6    6    0    0  0.14811105176E+02  0.26834043792E+02  0.29552665772E+02  0.42576927989E+02  0.00000000000E+00 0. -1.
         -5    1    3    3    0  503 -0.94099803369E+02 -0.26863366418E+02  0.83159519675E+02  0.12850684481E+03  0.47000000000E+01 0.  1.
         11    1    4    4    0    0 -0.46650495845E+02 -0.67136032912E+02  0.99197292189E+02  0.12854422762E+03  0.00000000000E+00 0. -1.
        -12    1    4    4    0    0 -0.32363491501E+02 -0.16870375712E+03  0.93706301753E+02  0.19567632518E+03  0.00000000000E+00 0.  1.
</event>
<event>
12    1  0.8493057E-002  0.2036514E+03  0.7818608E-02  0.1148044E+00
         21   -1    0    0  503  502  0.00000000000E+00  0.00000000000E+00  0.13595300164E+03  0.13595300164E+03  0.00000000000E+00 0.  1.
         21   -1    0    0  501  503 -0.00000000000E+00 -0.00000000000E+00 -0.36578485911E+03  0.36578485911E+03  0.00000000000E+00 0.  1.
          6    2    1    2  501    0  0.17524179853E+02 -0.10669748084E+03 -0.22636712084E+03  0.30449296476E+03  0.17257590472E+03 0.  0.
         24    2    3    3    0    0  0.41025508987E+02 -0.45261365756E+02 -0.21508453876E+03  0.23758933731E+03  0.80347064487E+02 0.  0.
         -6    2    1    2    0  502 -0.17524179853E+02  0.10669748084E+03 -0.34647366187E+01  0.19724489599E+03  0.16493057721E+03 0.  0.
        -24    2    5    5    0    0  0.20259600187E+02  0.13112747079E+02  0.33172463598E+02  0.89773546947E+02  0.79852876307E+02 0.  0.
          5    1    3    3  501    0 -0.23501329134E+02 -0.61436115080E+02 -0.11282582084E+02  0.66903627448E+02  0.47000000000E+01 0. -1.
        -13    1    4    4    0    0  0.85663381208E+01 -0.56408305758E+02 -0.17863436802E+03  0.18752470916E+03  0.00000000000E+00 0.  1.
         14    1    4    4    0    0  0.32459170866E+02  0.11146940002E+02 -0.36450170737E+02  0.50064628147E+02  0.00000000000E+00 0. -1.
         -5    1    5    5    0  502 -0.37783780040E+02  0.93584733756E+02 -0.36637200217E+02  0.10747134905E+03  0.47000000000E+01 0.  1.
         11    1    6    6    0    0 -0.17480074507E+02  0.32912526494E+02  0.28469321998E+02  0.46896585164E+02  0.00000000000E+00 0. -1.
        -12    1    6    6    0    0  0.37739674693E+02 -0.19799779415E+02  0.47031416002E+01  0.42876961783E+02  0.00000000000E+00 0.  1.
</event>
<event>
12    1  0.8493057E-002  0.2395822E+03  0.7818608E-02  0.1120390E+00
         21   -1    0    0  503  502  0.00000000000E+00  0.00000000000E+00  0.31715432879E+03  0.31715432879E+03  0.00000000000E+00 0.  1.
         21   -1    0    0  501  503 -0.00000000000E+00 -0.00000000000E+00 -0.69468071257E+03  0.69468071257E+03  0.00000000000E+00 0. -1.
          6    2    1    2  501    0  0.15738558254E+03 -0.53906914937E+02 -0.62422562877E+03  0.66794529165E+03  0.16975600125E+03 0.  0.
         24    2    3    3    0    0  0.77904443968E+02 -0.85942036030E+01 -0.20552881795E+03  0.23934337544E+03  0.94340837558E+02 0.  0.
         -6    2    1    2    0  502 -0.15738558254E+03  0.53906914937E+02  0.24669924498E+03  0.34388974970E+03  0.17240494600E+03 0.  0.
        -24    2    5    5    0    0 -0.17288298679E+03  0.47618384482E+02  0.15063884702E+03  0.24627107726E+03  0.76166551711E+02 0.  0.
          5    1    3    3  501    0  0.79481138575E+02 -0.45312711334E+02 -0.41869681081E+03  0.42860191622E+03  0.47000000000E+01 0. -1.
        -11    1    4    4    0    0  0.94476138890E+02 -0.13286032819E+02 -0.19942365072E+03  0.22107024213E+03  0.00000000000E+00 0.  1.
         12    1    4    4    0    0 -0.16571694921E+02  0.46918292164E+01 -0.61051672287E+01  0.18273133307E+02  0.00000000000E+00 0. -1.
         -5    1    5    5    0  502  0.15497404246E+02  0.62885304555E+01  0.96060397963E+02  0.97618672448E+02  0.47000000000E+01 0.  1.
         13    1    6    6    0    0 -0.24557643081E+02 -0.15818883548E+02  0.44266036713E+02  0.53035807873E+02  0.00000000000E+00 0. -1.
        -14    1    6    6    0    0 -0.14832534371E+03  0.63437268030E+02  0.10637281031E+03  0.19323526938E+03  0.00000000000E+00 0.  1.
</event>
<event>
12    1  0.8493057E-002  0.2035284E+03  0.7818608E-02  0.1149076E+00
         21   -1    0    0  501  502  0.00000000000E+00  0.00000000000E+00  0.80750919591E+03  0.80750919591E+03  0.00000000000E+00 0. -1.
         21   -1    0    0  502  503 -0.00000000000E+00 -0.00000000000E+00 -0.64196971868E+02  0.64196971868E+02  0.00000000000E+00 0. -1.
         -6    2    1    2    0  503 -0.65093998974E+02  0.59418980027E+02  0.57861850318E+03  0.60988972779E+03  0.17145921949E+03 0.  0.
        -24    2    3    3    0    0 -0.37888485775E+02  0.10627361139E+03  0.41918339956E+03  0.44143457442E+03  0.80125796085E+02 0.  0.
          6    2    1    2  501    0  0.65093998974E+02 -0.59418980027E+02  0.16469372086E+03  0.26181643999E+03  0.18345566949E+03 0.  0.
         24    2    5    5    0    0 -0.36595177496E+02 -0.45360510469E+01  0.77139074260E+02  0.11676220652E+03  0.79518509290E+02 0.  0.
          5    1    5    5  501    0  0.10168917647E+03 -0.54882928980E+02  0.87554646598E+02  0.14505423346E+03  0.47000000000E+01 0. -1.
        -11    1    6    6    0    0  0.15766401353E+02 -0.13969842153E+02  0.55432355463E+02  0.59299931987E+02  0.00000000000E+00 0.  1.
         12    1    6    6    0    0 -0.52361578849E+02  0.94337911059E+01  0.21706718796E+02  0.57462274538E+02  0.00000000000E+00 0. -1.
         -5    1    3    3    0  503 -0.27205513199E+02 -0.46854631360E+02  0.15943510362E+03  0.16845515336E+03  0.47000000000E+01 0.  1.
         11    1    4    4    0    0  0.34142325916E+01  0.65657319606E+02  0.31904164321E+03  0.32574546920E+03  0.00000000000E+00 0. -1.
        -12    1    4    4    0    0 -0.41302718367E+02  0.40616291781E+02  0.10014175635E+03  0.11568910522E+03  0.00000000000E+00 0.  1.
</event>
<event>
12    1  0.8493057E-002  0.1861782E+03  0.7818608E-02  0.1161994E+00
         21   -1    0    0  503  502  0.00000000000E+00  0.00000000000E+00  0.60825686559E+03  0.60825686559E+03  0.00000000000E+00 0.  1.
         21   -1    0    0  501  503 -0.00000000000E+00 -0.00000000000E+00 -0.83703805806E+02  0.83703805806E+02  0.00000000000E+00 0. -1.
          6    2    1    2  501    0  0.69633031926E+02 -0.91364207205E+01  0.66699371505E+02  0.19776534574E+03  0.17242416448E+03 0.  0.
         24    2    3    3    0    0 -0.14364073001E+02 -0.17176751524E+02  0.75779602571E+02  0.11276710369E+03  0.80451874569E+02 0.  0.
         -6    2    1    2    0  502 -0.69633031926E+02  0.91364207205E+01  0.45785368828E+03  0.49419532566E+03  0.17224049092E+03 0.  0.
        -24    2    5    5    0    0 -0.25780416846E+02  0.67178893449E+02  0.21663143240E+03  0.24219880342E+03  0.80953377050E+02 0.  0.
          5    1    3    3  501    0  0.83997104928E+02  0.80403308038E+01 -0.90802310658E+01  0.84998242052E+02  0.47000000000E+01 0. -1.
        -13    1    4    4    0    0 -0.14381950331E+02  0.10496860544E+02  0.82408967264E+02  0.84310512169E+02  0.00000000000E+00 0.  1.
         14    1    4    4    0    0  0.17877330064E-01 -0.27673612068E+02 -0.66293646935E+01  0.28456591517E+02  0.00000000000E+00 0. -1.
         -5    1    5    5    0  502 -0.43852615081E+02 -0.58042472729E+02  0.24122225588E+03  0.25199652224E+03  0.47000000000E+01 0.  1.
         11    1    6    6    0    0 -0.47970142039E+02  0.13047159579E+02  0.94502656333E+02  0.10678068624E+03  0.00000000000E+00 0. -1.
        -12    1    6    6    0    0  0.22189725193E+02  0.54131733870E+02  0.12212877607E+03  0.13541811718E+03  0.00000000000E+00 0.  1.
</event>
<event>
12    1  0.8493057E-002  0.1752677E+03  0.7818608E-02  0.1172933E+00
         21   -1    0    0  501  502  0.00000000000E+00  0.00000000000E+00  0.17644674382E+03  0.17644674382E+03  0.00000000000E+00 0. -1.
         21   -1    0    0  502  503 -0.00000000000E+00 -0.00000000000E+00 -0.19340180499E+03  0.19340180499E+03  0.00000000000E+00 0. -1.
         -6    2    1    2    0  503  0.11352998931E+01 -0.27030875316E+02 -0.69591868401E+02  0.18684743830E+03  0.17128041314E+03 0.  0.
        -24    2    3    3    0    0  0.66840854248E+02 -0.18112333143E+02 -0.46551605772E+02  0.11649330573E+03  0.81288879134E+02 0.  0.
          6    2    1    2  501    0 -0.11352998931E+01  0.27030875316E+02  0.52636807228E+02  0.18300111051E+03  0.17316701720E+03 0.  0.
         24    2    5    5    0    0  0.15468563005E+02  0.31900058964E+02 -0.34231154717E+02  0.94302012291E+02  0.80400294561E+02 0.  0.
          5    1    5    5  501    0 -0.16603862899E+02 -0.48691836482E+01  0.86867961946E+02  0.88699098221E+02  0.47000000000E+01 0. -1.
        -13    1    6    6    0    0 -0.48843282243E+01  0.50597313256E+02 -0.41615927835E+02  0.65694978655E+02  0.00000000000E+00 0.  1.
         14    1    6    6    0    0  0.20352891230E+02 -0.18697254291E+02  0.73847731178E+01  0.28607033636E+02  0.00000000000E+00 0. -1.
         -5    1    3    3    0  503 -0.65705554354E+02 -0.89185421735E+01 -0.23040262629E+02  0.70354132569E+02  0.47000000000E+01 0.  1.
         13    1    4    4    0    0  0.40102496651E+02 -0.27634352685E+01 -0.67960289728E+02  0.78958519439E+02  0.00000000000E+00 0. -1.
        -14    1    4    4    0    0  0.26738357597E+02 -0.15348897874E+02  0.21408683957E+02  0.37534786288E+02  0.00000000000E+00 0.  1.
</event>
<event>
12    1  0.8493057E-002  0.1750670E+03  0.7818608E-02  0.1172980E+00
         21   -1    0    0  503  502  0.00000000000E+00  0.00000000000E+00  0.43207333935E+02  0.43207333935E+02  0.00000000000E+00 0.  1.
         21   -1    0    0  501  503 -0.00000000000E+00 -0.00000000000E+00 -0.70736987741E+03  0.70736987741E+03  0.00000000000E+00 0.  1.
          6    2    1    2  501    0  0.10058751823E+02  0.26557867879E+02 -0.35812317478E+03  0.39862347545E+03  0.17274827938E+03 0.  0.
         24    2    3    3    0    0 -0.47250203914E+02  0.55096661788E+02 -0.26614375224E+03  0.28645804701E+03  0.77184790806E+02 0.  0.
         -6    2    1    2    0  502 -0.10058751823E+02 -0.26557867879E+02 -0.30603936869E+03  0.35195373590E+03  0.17147838985E+03 0.  0.
        -24    2    5    5    0    0  0.23342950400E+02 -0.53905745355E+02 -0.10248266508E+03  0.14381675768E+03  0.82035604664E+02 0.  0.
          5    1    3    3  501    0  0.57308955737E+02 -0.28538793910E+02 -0.91979422541E+02  0.11216542844E+03  0.47000000000E+01 0. -1.
        -13    1    4    4    0    0 -0.22295371597E+02 -0.16129767023E+02 -0.10451482121E+03  0.10807682837E+03  0.00000000000E+00 0.  1.
         14    1    4    4    0    0 -0.24954832317E+02  0.71226428811E+02 -0.16162893103E+03  0.17838121864E+03  0.00000000000E+00 0. -1.
         -5    1    5    5    0  502 -0.33401702223E+02  0.27347877476E+02 -0.20355670362E+03  0.20813697822E+03  0.47000000000E+01 0.  1.
         13    1    6    6    0    0 -0.30765532231E+02 -0.24257628506E+02 -0.38357954475E+02  0.54829583126E+02  0.00000000000E+00 0. -1.
        -14    1    6    6    0    0  0.54108482631E+02 -0.29648116848E+02 -0.64124710604E+02  0.88987174555E+02  0.00000000000E+00 0.  1.
</event>
<event>
12    1  0.8493057E-002  0.2540828E+03  0.7818608E-02  0.1110834E+00
         21   -1    0    0  501  502  0.00000000000E+00  0.00000000000E+00  0.16216970876E+03  0.16216970876E+03  0.00000000000E+00 0. -1.
         21   -1    0    0  502  503 -0.00000000000E+00 -0.00000000000E+00 -0.54807233732E+03  0.54807233732E+03  0.00000000000E+00 0.  1.
         -6    2    1    2    0  503 -0.13433670232E+03 -0.12918412990E+03 -0.37938271573E+03  0.45660628514E+03  0.17269384942E+03 0.  0.
        -24    2    3    3    0    0 -0.91080277054E+02 -0.26711405079E+02 -0.11234488738E+03  0.16729145761E+03  0.79724162207E+02 0.  0.
          6    2    1    2  501    0  0.13433670232E+03  0.12918412990E+03 -0.65199128276E+01  0.25363576094E+03  0.17191189882E+03 0.  0.
         24    2    5    5    0    0  0.30445893093E+02  0.20093030560E+02 -0.45570281748E+02  0.97939937267E+02  0.78644125336E+02 0.  0.
          5    1    5    5  501    0  0.10389080922E+03  0.10909109934E+03  0.39050368920E+02  0.15569582367E+03  0.47000000000E+01 0. -1.
        -11    1    6    6    0    0  0.56031415193E+01  0.48281750640E+02 -0.20390396398E+02  0.52709495397E+02  0.00000000000E+00 0.  1.
         12    1    6    6    0    0  0.24842751574E+02 -0.28188720080E+02 -0.25179885350E+02  0.45230441870E+02  0.00000000000E+00 0. -1.
         -5    1    3    3    0  503 -0.43256425262E+02 -0.10247272482E+03 -0.26703782835E+03  0.28931482753E+03  0.47000000000E+01 0.  1.
         13    1    4    4    0    0 -0.87439779008E+00  0.20048726183E+02 -0.31938759396E+02  0.37720025779E+02  0.00000000000E+00 0. -1.
        -14    1    4    4    0    0 -0.90205879264E+02 -0.46760131262E+02 -0.80406127982E+02  0.12957143183E+03  0.00000000000E+00 0.  1.
</event>
<event>
12    1  0.8493057E-002  0.1901869E+03  0.7818608E-02  0.1158326E+00
         21   -1    0    0  501  502  0.00000000000E+00  0.00000000000E+00  0.14837638302E+03  0.14837638302E+03  0.00000000000E+00 0.  1.
         21   -1    0    0  502  503 -0.00000000000E+00 -0.00000000000E+00 -0.24913660065E+03  0.24913660065E+03  0.00000000000E+00 0.  1.
         -6    2    1    2    0  503  0.25187598975E+02 -0.74332676576E+02 -0.20747727676E+02  0.19131524252E+03  0.17323767450E+03 0.  0.
        -24    2    3    3    0    0  0.39541285607E+01 -0.11756221159E+03 -0.99301791029E+01  0.14172933403E+03  0.78435240425E+02 0.  0.
          6    2    1    2  501    0 -0.25187598975E+02  0.74332676576E+02 -0.80012489952E+02  0.20619774115E+03  0.17307728897E+03 0.  0.
         24    2    5    5    0    0  0.41839566602E+02  0.27821816338E+02 -0.36139339114E+01  0.94328485270E+02  0.79750860919E+02 0.  0.
          5    1    5    5  501    0 -0.67027165577E+02  0.46510860237E+02 -0.76398556041E+02  0.11186925588E+03  0.47000000000E+01 0. -1.
        -13    1    6    6    0    0  0.77846771858E+01 -0.27843477471E+02  0.80990276904E+00  0.28922592883E+02  0.00000000000E+00 0.  1.
         14    1    6    6    0    0  0.34054889417E+02  0.55665293809E+02 -0.44238366805E+01  0.65405892388E+02  0.00000000000E+00 0. -1.
         -5    1    3    3    0  503  0.21233470414E+02  0.43229535016E+02 -0.10817548573E+02  0.49585908489E+02  0.47000000000E+01 0.  1.
         13    1    4    4    0    0  0.26817661387E+02 -0.10073812166E+03 -0.28172821890E+02  0.10798640661E+03  0.00000000000E+00 0. -1.
        -14    1    4    4    0    0 -0.22863532827E+02 -0.16824089929E+02  0.18242642788E+02  0.33742927424E+02  0.00000000000E+00 0.  1.
</event>
<event>
12    1  0.8493057E-002  0.2024617E+03  0.7818608E-02  0.1148215E+00
         21   -1    0    0  501  502  0.00000000000E+00  0.00000000000E+00  0.31807910773E+02  0.31807910773E+02  0.00000000000E+00 0. -1.
         21   -1    0    0  502  503 -0.00000000000E+00 -0.00000000000E+00 -0.12729298630E+04  0.12729298630E+04  0.00000000000E+00 0. -1.
         -6    2    1    2    0  503 -0.28528540213E+02 -0.98307597484E+02 -0.61128997174E+03  0.64394577501E+03  0.17467819063E+03 0.  0.
        -24    2    3    3    0    0 -0.55692132051E-01 -0.75690756655E+02 -0.59167529652E+03  0.60236392740E+03  0.83866267244E+02 0.  0.
          6    2    1    2  501    0  0.28528540213E+02  0.98307597484E+02 -0.62983198045E+03  0.66079199872E+03  0.17169589583E+03 0.  0.
         24    2    5    5    0    0  0.63630319502E+02  0.10172355806E+03 -0.36849854243E+03  0.39704769163E+03  0.86366624523E+02 0.  0.
          5    1    5    5  501    0 -0.35101779289E+02 -0.34159605752E+01 -0.26133343801E+03  0.26374430708E+03  0.47000000000E+01 0. -1.
        -11    1    6    6    0    0  0.68114123929E+02  0.47312777870E+02 -0.14562598167E+03  0.16758567768E+03  0.00000000000E+00 0.  1.
         12    1    6    6    0    0 -0.44838044275E+01  0.54410780189E+02 -0.22287256077E+03  0.22946201395E+03  0.00000000000E+00 0. -1.
         -5    1    3    3    0  503 -0.28472848081E+02 -0.22616840829E+02 -0.19614675223E+02  0.41581847614E+02  0.47000000000E+01 0.  1.
         13    1    4    4    0    0  0.32879684010E+02 -0.26436549325E+02 -0.12467816066E+03  0.13162297865E+03  0.00000000000E+00 0. -1.
        -14    1    4    4    0    0 -0.32935376142E+02 -0.49254207330E+02 -0.46699713585E+03  0.47074094875E+03  0.00000000000E+00 0.  1.
</event>
<event>
12    1  0.8493057E-002  0.1756511E+03  0.7818608E-02  0.1172364E+00
         21   -1    0    0  501  502  0.00000000000E+00  0.00000000000E+00  0.12441162954E+03  0.12441162954E+03  0.00000000000E+00 0.  1.
         21   -1    0    0  502  503 -0.00000000000E+00 -0.00000000000E+00 -0.30631158734E+03  0.30631158734E+03  0.00000000000E+00 0.  1.
         -6    2    1    2    0  503 -0.26668731775E+02  0.18610782587E+02  0.40626467698E+01  0.17569807329E+03  0.17261438346E+03 0.  0.
        -24    2    3    3    0    0  0.48697919327E+02  0.32412766091E+02 -0.23619650180E+00  0.98813764744E+02  0.79636860571E+02 0.  0.
          6    2    1    2  501    0  0.26668731775E+02 -0.18610782587E+02 -0.18596260458E+03  0.25502514359E+03  0.17145889035E+03 0.  0.
         24    2    5    5    0    0 -0.43806662229E+02  0.11272943375E+02 -0.13928636206E+03  0.16524441151E+03  0.76543595231E+02 0.  0.
          5    1    5    5  501    0  0.70475394004E+02 -0.29883725962E+02 -0.46676242516E+02  0.89780732080E+02  0.47000000000E+01 0. -1.
        -13    1    6    6    0    0 -0.11964762860E+02  0.41799364988E+02 -0.83345472718E+02  0.94004309934E+02  0.00000000000E+00 0.  1.
         14    1    6    6    0    0 -0.31841899369E+02 -0.30526421613E+02 -0.55940889344E+02  0.71240101576E+02  0.00000000000E+00 0. -1.
         -5    1    3    3    0  503 -0.75366651102E+02 -0.13801983504E+02  0.42988432716E+01  0.76884308545E+02  0.47000000000E+01 0.  1.
         13    1    4    4    0    0 -0.12931246263E+02  0.26787511745E+02 -0.17569632355E+02  0.34546778381E+02  0.00000000000E+00 0. -1.
        -14    1    4    4    0    0  0.61629165590E+02  0.56252543459E+01  0.17333435853E+02  0.64266986363E+02  0.00000000000E+00 0.  1.
</event>
<event>
12    1  0.8493057E-002  0.2655213E+03  0.7818608E-02  0.1104527E+00
         21   -1    0    0  503  502  0.00000000000E+00  0.00000000000E+00  0.17876678616E+03  0.17876678616E+03  0.00000000000E+00 0.  1.
         21   -1    0    0  501  503 -0.00000000000E+00 -0.00000000000E+00 -0.43939028002E+03  0.43939028002E+03  0.00000000000E+00 0. -1.
          6    2    1    2  501    0  0.12778868319E+03 -0.15327251455E+03 -0.23719008845E+03  0.35603466449E+03  0.17515459739E+03 0.  0.
         24    2    3    3    0    0  0.91266366813E+02 -0.32304789689E+02 -0.62268457299E+02  0.14019505483E+03  0.80025892531E+02 0.  0.
         -6    2    1    2    0  502 -0.12778868319E+03  0.15327251455E+03 -0.23433405405E+02  0.26212240169E+03  0.16833483807E+03 0.  0.
        -24    2    5    5    0    0 -0.20199197238E+01  0.43770814472E+02 -0.12570501447E+02  0.94944362259E+02  0.83285353712E+02 0.  0.
          5    1    3    3  501    0  0.36522316381E+02 -0.12096772486E+03 -0.17492163116E+03  0.21583960966E+03  0.47000000000E+01 0. -1.
        -11    1    4    4    0    0  0.15179939415E+02  0.20769060812E+00  0.18930718926E+02  0.24266145452E+02  0.00000000000E+00 0.  1.
         12    1    4    4    0    0  0.76086427398E+02 -0.32512480297E+02 -0.81199176225E+02  0.11592890937E+03  0.00000000000E+00 0. -1.
         -5    1    5    5    0  502 -0.12576876347E+03  0.10950170008E+03 -0.10862903958E+02  0.16717803943E+03  0.47000000000E+01 0.  1.
         13    1    6    6    0    0  0.48423944354E+01  0.11443677088E+02 -0.46171967289E+02  0.47814820846E+02  0.00000000000E+00 0. -1.
        -14    1    6    6    0    0 -0.68623141591E+01  0.32327137383E+02  0.33601465842E+02  0.47129541413E+02  0.00000000000E+00 0.  1.
</event>
<event>
12    1  0.8493057E-002  0.1981473E+03  0.7818608E-02  0.1153219E+00
         21   -1    0    0  503  502  0.00000000000E+00  0.00000000000E+00  0.11313343010E+04  0.11313343010E+04  0.00000000000E+00 0.  1.
         21   -1    0    0  501  503 -0.00000000000E+00 -0.00000000000E+00 -0.18935479510E+03  0.18935479510E+03  0.00000000000E+00 0.  1.
          6    2    1    2  501    0  0.55737984254E+02 -0.71896882201E+02 -0.12680472346E+03  0.23524838960E+03  0.17602977692E+03 0.  0.
         24    2    3    3    0    0  0.47512178606E+02 -0.11075618132E+03 -0.13104464264E+03  0.19502680433E+03  0.79614177290E+02 0.  0.
         -6    2    1    2    0  502 -0.55737984254E+02  0.71896882201E+02  0.10687842294E+04  0.10854407065E+04  0.16615027490E+03 0.  0.
        -24    2    5    5    0    0 -0.40978945641E+02  0.93518432658E+02  0.51921364288E+03  0.53522689335E+03  0.80374431117E+02 0.  0.
          5    1    3    3  501    0  0.82258056479E+01  0.38859299123E+02  0.42399191882E+01  0.40221585270E+02  0.47000000000E+01 0. -1.
        -11    1    4    4    0    0  0.27495880802E+02 -0.37251780171E+02 -0.10459537271E+03  0.11438492287E+03  0.00000000000E+00 0.  1.
         12    1    4    4    0    0  0.20016297805E+02 -0.73504401152E+02 -0.26449269936E+02  0.80641881468E+02  0.00000000000E+00 0. -1.
         -5    1    5    5    0  502 -0.14759038613E+02 -0.21621550458E+02  0.54957058647E+03  0.55021381315E+03  0.47000000000E+01 0.  1.
         13    1    6    6    0    0  0.61069319662E+01 -0.35409419464E+01  0.16020630066E+03  0.16036175248E+03  0.00000000000E+00 0. -1.
        -14    1    6    6    0    0 -0.47085877607E+02  0.97059374605E+02  0.35900734222E+03  0.37486514087E+03  0.00000000000E+00 0.  1.
</event>
<event>
12    1  0.8493057E-002  0.2006672E+03  0.7818608E-02  0.1150100E+00
         21   -1    0    0  501  502  0.00000000000E+00  0.00000000000E+00  0.19329020059E+03  0.19329020059E+03  0.00000000000E+00 0. -1.
         21   -1    0    0  502  503 -0.00000000000E+00 -0.00000000000E+00 -0.21254951922E+03  0.21254951922E+03  0.00000000000E+00 0. -1.
         -6    2    1    2    0  503 -0.37809236954E+02  0.90307748484E+02 -0.50601303816E+02  0.20273964187E+03  0.17017004026E+03 0.  0.
        -24    2    3    3    0    0 -0.71827838624E+02  0.17763392607E+02 -0.33551422374E+01  0.10960404924E+03  0.80789938193E+02 0.  0.
          6    2    1    2  501    0  0.37809236954E+02 -0.90307748484E+02  0.31341985191E+02  0.20310007794E+03  0.17516362005E+03 0.  0.
         24    2    5    5    0    0 -0.37498620493E+02 -0.69688874359E+02 -0.11985084109E+02  0.11368119684E+03  0.80728474066E+02 0.  0.
          5    1    5    5  501    0  0.75307857447E+02 -0.20618874125E+02  0.43327069300E+02  0.89418881102E+02  0.47000000000E+01 0. -1.
        -13    1    6    6    0    0 -0.31083656411E+02 -0.45885443024E+01 -0.32420465295E+02  0.45147923591E+02  0.00000000000E+00 0.  1.
         14    1    6    6    0    0 -0.64149640829E+01 -0.65100330057E+02  0.20435381186E+02  0.68533273247E+02  0.00000000000E+00 0. -1.
         -5    1    3    3    0  503  0.34018601670E+02  0.72544355877E+02 -0.47246161579E+02  0.93135592623E+02  0.47000000000E+01 0.  1.
         11    1    4    4    0    0 -0.50164075455E+02 -0.28310606355E+02 -0.92920049630E+01  0.58346090311E+02  0.00000000000E+00 0. -1.
        -12    1    4    4    0    0 -0.21663763169E+02  0.46073998962E+02  0.59368627256E+01  0.51257958933E+02  0.00000000000E+00 0.  1.
</event>
<event>
12    1  0.8493057E-002  0.1968246E+03  0.7818608E-02  0.1153273E+00
         21   -1    0    0  503  502  0.00000000000E+00  0.00000000000E+00  0.51555111603E+03  0.51555111603E+03  0.00000000000E+00 0. -1.
         21   -1    0    0  501  503 -0.00000000000E+00 -0.00000000000E+00 -0.11285336274E+03  0.11285336274E+03  0.00000000000E+00 0.  1.
          6    2    1    2  501    0 -0.96431818742E+02  0.89170812428E+01  0.38513281797E+03  0.43079764390E+03  0.16697518531E+03 0.  0.
         24    2    3    3    0    0 -0.90970424828E+02 -0.24069672941E+02  0.15608332721E+03  0.19927288930E+03  0.80577366728E+02 0.  0.
         -6    2    1    2    0  502  0.96431818742E+02 -0.89170812428E+01  0.17564935314E+02  0.19760683486E+03  0.17135146404E+03 0.  0.
        -24    2    5    5    0    0 -0.24793583668E+01  0.30327789086E+02 -0.12914264745E+02  0.86815804358E+02  0.80276295653E+02 0.  0.
          5    1    3    3  501    0 -0.54613939140E+01  0.32986754183E+02  0.22904949076E+03  0.23152475460E+03  0.47000000000E+01 0. -1.
        -11    1    4    4    0    0 -0.29643168621E+02  0.19728278599E+02  0.13655814871E+02  0.38136645135E+02  0.00000000000E+00 0.  1.
         12    1    4    4    0    0 -0.61327256208E+02 -0.43797951540E+02  0.14242751234E+03  0.16113624417E+03  0.00000000000E+00 0. -1.
         -5    1    5    5    0  502  0.98911177109E+02 -0.39244870329E+02  0.30479200059E+02  0.11079103051E+03  0.47000000000E+01 0.  1.
         13    1    6    6    0    0 -0.99617805073E+01  0.30214229868E+02  0.29716049453E+02  0.43533669182E+02  0.00000000000E+00 0. -1.
        -14    1    6    6    0    0  0.74824221405E+01  0.11355921791E+00 -0.42630314198E+02  0.43282135176E+02  0.00000000000E+00 0.  1.
</event>
<event>
12    1  0.8493057E-002  0.1862238E+03  0.7818608E-02  0.1162276E+00
         21   -1    0    0  503  502  0.00000000000E+00  0.00000000000E+00  0.26957764913E+03  0.26957764913E+03  0.00000000000E+00 0. -1.
         21   -1    0    0  501  503 -0.00000000000E+00 -0.00000000000E+00 -0.17756545138E+03  0.17756545138E+03  0.00000000000E+00 0. -1.
          6    2    1    2  501    0  0.93501879373E+01 -0.68169726410E+02 -0.72493348879E+02  0.19983644667E+03  0.17304560720E+03 0.  0.
         24    2    3    3    0    0  0.70384115176E+02 -0.46872245803E+02 -0.22366629486E+02  0.11790049026E+03  0.79052693783E+02 0.  0.
         -6    2    1    2    0  502 -0.93501879373E+01  0.68169726410E+02  0.16450554662E+03  0.24730665384E+03  0.17135917994E+03 0.  0.
        -24    2    5    5    0    0 -0.10688108889E+02  0.57044560546E+02  0.19322902425E+03  0.21611871523E+03  0.77469514657E+02 0.  0.
          5    1    3    3  501    0 -0.61033927238E+02 -0.21297480607E+02 -0.50126719393E+02  0.81935956402E+02  0.47000000000E+01 0. -1.
        -13    1    4    4    0    0  0.13722511653E+02 -0.47100732893E+02  0.13447719414E+02  0.50868728336E+02  0.00000000000E+00 0.  1.
         14    1    4    4    0    0  0.56661603523E+02  0.22848708948E+00 -0.35814348900E+02  0.67031761928E+02  0.00000000000E+00 0. -1.
         -5    1    5    5    0  502  0.13379209519E+01  0.11125165864E+02 -0.28723477625E+02  0.31187938612E+02  0.47000000000E+01 0.  1.
         11    1    6    6    0    0  0.14367087892E+02 -0.59114108000E+01  0.98114751841E+02  0.99337115526E+02  0.00000000000E+00 0. -1.
        -12    1    6    6    0    0 -0.25055196781E+02  0.62955971346E+02  0.95114272408E+02  0.11678159970E+03  0.00000000000E+00 0.  1.
</event>
<event>
12    1  0.8493057E-002  0.2688668E+03  0.7818608E-02  0.1102024E+00
         21   -1    0    0  503  502  0.00000000000E+00  0.00000000000E+00  0.43475041121E+03  0.43475041121E+03  0.00000000000E+00 0.  1.
         21   -1    0    0  501  503 -0.00000000000E+00 -0.00000000000E+00 -0.16589212736E+03  0.16589212736E+03  0.00000000000E+00 0. -1.
          6    2    1    2  501    0 -0.11570183728E+03 -0.17139437734E+03  0.13739427939E+03  0.30135649044E+03  0.17080866074E+03 0.  0.
         24    2    3    3    0    0 -0.94207104444E+02 -0.13759326615E+03  0.30967449798E+02  0.18754393087E+03  0.80042848791E+02 0.  0.
         -6    2    1    2    0  502  0.11570183728E+03  0.17139437734E+03  0.13146400446E+03  0.29928604814E+03  0.17183249520E+03 0.  0.
        -24    2    5    5    0    0  0.74053194702E+02  0.71808985784E+02  0.13943540871E+03  0.19094633738E+03  0.79861533134E+02 0.  0.
          5    1    3    3  501    0 -0.21494732834E+02 -0.33801111192E+02  0.10642682959E+03  0.11381255956E+03  0.47000000000E+01 0. -1.
        -13    1    4    4    0    0 -0.60116612570E+02 -0.61540764118E+02  0.53371995983E+02  0.10124150686E+03  0.00000000000E+00 0.  1.
         14    1    4    4    0    0 -0.34090491874E+02 -0.76052502033E+02 -0.22404546184E+02  0.86302424018E+02  0.00000000000E+00 0. -1.
         -5    1    5    5    0  502  0.41648642576E+02  0.99585391559E+02 -0.79714042427E+01  0.10833971075E+03  0.47000000000E+01 0.  1.
         13    1    6    6    0    0  0.31071891662E+02 -0.84118303923E+01  0.12010345807E+02  0.34357964847E+02  0.00000000000E+00 0. -1.
        -14    1    6    6    0    0  0.42981303039E+02  0.80220816176E+02  0.12742506290E+03  0.15658837254E+03  0.00000000000E+00 0.  1.
</event>
<event>
12    1  0.8493057E-002  0.1755896E+03  0.7818608E-02  0.1172250E+00
         21   -1    0    0  501  502  0.00000000000E+00  0.00000000000E+00  0.11626085987E+03  0.11626085987E+03  0.00000000000E+00 0. -1.
         21   -1    0    0  502  503 -0.00000000000E+00 -0.00000000000E+00 -0.28559018121E+03  0.28559018121E+03  0.00000000000E+00 0. -1.
         -6    2    1    2    0  503 -0.19182626887E+02 -0.28303314640E+02 -0.13912326596E+03  0.22368226528E+03  0.17178306633E+03 0.  0.
        -24    2    3    3    0    0 -0.69627641648E+02 -0.76884268323E+00 -0.46962926526E+02  0.11496950235E+03  0.78510320355E+02 0.  0.
          6    2    1    2  501    0  0.19182626887E+02  0.28303314640E+02 -0.30206055383E+02  0.17816877579E+03  0.17222849965E+03 0.  0.
         24    2    5    5    0    0  0.14472854117E+02  0.35939185787E+02 -0.84990992830E+02  0.12245551113E+03  0.79188349920E+02 0.  0.
          5    1    5    5  501    0  0.47097727699E+01 -0.76358711467E+01  0.54784937447E+02  0.55713264657E+02  0.47000000000E+01 0. -1.
        -11    1    6    6    0    0  0.39854842519E+02  0.44615913373E+02 -0.47668735330E+02  0.76493767892E+02  0.00000000000E+00 0.  1.
         12    1    6    6    0    0 -0.25381988402E+02 -0.86767275854E+01 -0.37322257500E+02  0.45961743241E+02  0.00000000000E+00 0. -1.
         -5    1    3    3    0  503  0.50445014761E+02 -0.27534471957E+02 -0.92160339431E+02  0.10871276293E+03  0.47000000000E+01 0.  1.
         13    1    4    4    0    0 -0.71018253075E+02 -0.27450368308E+01 -0.65275132474E+02  0.96498551370E+02  0.00000000000E+00 0. -1.
        -14    1    4    4    0    0  0.13906114265E+01  0.19761941476E+01  0.18312205948E+02  0.18470950981E+02  0.00000000000E+00 0.  1.
</event>
<event>
12    1  0.8493057E-002  0.2043603E+03  0.7818608E-02  0.1146218E+00
         21   -1    0    0  503  502  0.00000000000E+00  0.00000000000E+00  0.69218974081E+02  0.69218974081E+02  0.00000000000E+00 0. -1.
         21   -1    0    0  501  503 -0.00000000000E+00 -0.00000000000E+00 -0.89091189770E+03  0.89091189770E+03  0.00000000000E+00 0. -1.
          6    2    1    2  501    0  0.10920854570E+03 -0.58311127621E+00 -0.13773243932E+03  0.24644134950E+03  0.17273177886E+03 0.  0.
         24    2    3    3    0    0  0.99460173878E+02 -0.57562431430E+02 -0.10198289915E+03  0.17831064203E+03  0.90489853804E+02 0.  0.
         -6    2    1    2    0  502 -0.10920854570E+03  0.58311127621E+00 -0.68396048430E+03  0.71368952228E+03  0.17211607611E+03 0.  0.
        -24    2    5    5    0    0 -0.60796226262E+02 -0.56156189418E+02 -0.28651422141E+03  0.30927794628E+03  0.81931375237E+02 0.  0.
          5    1    3    3  501    0  0.97483718271E+01  0.56979320153E+02 -0.35749540170E+02  0.68130707473E+02  0.47000000000E+01 0. -1.
        -13    1    4    4    0    0  0.32638851619E+02 -0.48089899269E+02 -0.25997581735E+01  0.58178104036E+02  0.00000000000E+00 0.  1.
         14    1    4    4    0    0  0.66821322259E+02 -0.94725321604E+01 -0.99383140974E+02  0.12013253799E+03  0.00000000000E+00 0. -1.
         -5    1    5    5    0  502 -0.48412319443E+02  0.56739300694E+02 -0.39744626289E+03  0.40441157600E+03  0.47000000000E+01 0.  1.
         11    1    6    6    0    0 -0.70553069491E+02 -0.20490945145E+02 -0.23240926963E+03  0.24374511904E+03  0.00000000000E+00 0. -1.
        -12    1    6    6    0    0  0.97568432282E+01 -0.35665244273E+02 -0.54104951786E+02  0.65532827244E+02  0.00000000000E+00 0.  1.
</event>
<event>
12    1  0.8493057E-002  0.2299988E+03  0.7818608E-02  0.1126736E+00
         21   -1    0    0  501  502  0.00000000000E+00  0.00000000000E+00  0.21488533961E+03  0.21488533961E+03  0.00000000000E+00 0. -1.
         21   -1    0    0  502  503 -0.00000000000E+00 -0.00000000000E+00 -0.26579841955E+03  0.26579841955E+03  0.00000000000E+00 0.  1.
         -6    2    1    2    0  503  0.12774476587E+03 -0.82768162544E+02 -0.91692746427E+02  0.24709776208E+03  0.17169871968E+03 0.  0.
        -24    2    3    3    0    0  0.89847209262E+02 -0.70954300259E+02 -0.12994835611E+03  0.19176807917E+03  0.82349178462E+02 0.  0.
          6    2    1    2  501    0 -0.12774476587E+03  0.82768162544E+02  0.40779666493E+02  0.23358599708E+03  0.17242431063E+03 0.  0.
         24    2    5    5    0    0 -0.11975792818E+03  0.11935912410E+03  0.13920447005E+02  0.18725894542E+03  0.79268984636E+02 0.  0.
          5    1    5    5  501    0 -0.79868376834E+01 -0.36590961561E+02  0.26859219488E+02  0.46327051661E+02  0.47000000000E+01 0. -1.
        -13    1    6    6    0    0 -0.77359125642E+02  0.11637101981E+03  0.27937823423E+02  0.14250322996E+03  0.00000000000E+00 0.  1.
         14    1    6    6    0    0 -0.42398802543E+02  0.29881042896E+01 -0.14017376418E+02  0.44755715456E+02  0.00000000000E+00 0. -1.
         -5    1    3    3    0  503  0.37897556606E+02 -0.11813862285E+02  0.38255609688E+02  0.55329682914E+02  0.47000000000E+01 0.  1.
         13    1    4    4    0    0 -0.15138606052E+02 -0.15179831578E+02 -0.13375676664E+02  0.25268822809E+02  0.00000000000E+00 0. -1.
        -14    1    4    4    0    0  0.10498581531E+03 -0.55774468681E+02 -0.11657267945E+03  0.16649925636E+03  0.00000000000E+00 0.  1.
</event>
<event>
12    1  0.8493057E-002  0.2412264E+03  0.7818608E-02  0.1120663E+00
         21   -1    0    0  501  502  0.00000000000E+00  0.00000000000E+00  0.58800280453E+03  0.58800280453E+03  0.00000000000E+00 0.  1.
         21   -1    0    0  502  503 -0.00000000000E+00 -0.00000000000E+00 -0.97320576414E+02  0.97320576414E+02  0.00000000000E+00 0. -1.
         -6    2    1    2    0  503  0.31666365703E+02  0.15021009203E+03  0.19658639563E+03  0.31118542716E+03  0.18607613674E+03 0.  0.
        -24    2    3    3    0    0  0.23786726420E+02  0.38852481199E+02  0.20742371992E+01  0.86864951092E+02  0.73931682107E+02 0.  0.
          6    2    1    2  501    0 -0.31666365703E+02 -0.15021009203E+03  0.29409583248E+03  0.37413795378E+03  0.17297693290E+03 0.  0.
         24    2    5    5    0    0 -0.33918819959E+02 -0.39824436439E+02  0.53755280801E+02  0.10960867886E+03  0.79924715715E+02 0.  0.
          5    1    5    5  501    0  0.22524542557E+01 -0.11038565559E+03  0.24034055168E+03  0.26452927492E+03  0.47000000000E+01 0. -1.
        -11    1    6    6    0    0 -0.45887737099E+02 -0.26498310551E+02  0.68363408675E+02  0.86495089594E+02  0.00000000000E+00 0.  1.
         12    1    6    6    0    0  0.11968917140E+02 -0.13326125888E+02 -0.14608127875E+02  0.23113589265E+02  0.00000000000E+00 0. -1.
         -5    1    3    3    0  503  0.78796392830E+01  0.11135761083E+03  0.19451215843E+03  0.22432047607E+03  0.47000000000E+01 0.  1.
         13    1    4    4    0    0 -0.11695618346E+02  0.37190010640E+02  0.23365531036E+02  0.45451429246E+02  0.00000000000E+00 0. -1.
        -14    1    4    4    0    0  0.35482344766E+02  0.16624705596E+01 -0.21291293837E+02  0.41413521846E+02  0.00000000000E+00 0.  1.
</event>
<event>
12    1  0.8493057E-002  0.2265391E+03  0.7818608E-02  0.1129177E+00
         21   -1    0    0  501  502  0.00000000000E+00  0.00000000000E+00  0.75268610356E+02  0.75268610356E+02  0.00000000000E+00 0. -1.
         21   -1    0    0  502  503 -0.00000000000E+00 -0.00000000000E+00 -0.68507182986E+03  0.68507182986E+03  0.00000000000E+00 0. -1.
         -6    2    1    2    0  503 -0.61046251672E+02 -0.13383147460E+03 -0.33612048149E+03  0.40533556387E+03  0.17228590432E+03 0.  0.
        -24    2    3    3    0    0  0.27363508900E+02 -0.43304824346E+02 -0.13865491094E+03  0.17075913343E+03  0.85495192198E+02 0.  0.
          6    2    1    2  501    0  0.61046251672E+02  0.13383147460E+03 -0.27368273802E+03  0.35500487635E+03  0.17172277864E+03 0.  0.
         24    2    5    5    0    0  0.10621127304E+03  0.11807030681E+03 -0.22372695741E+03  0.28567981896E+03  0.79610147716E+02 0.  0.
          5    1    5    5  501    0 -0.45165021368E+02  0.15761167786E+02 -0.49955780609E+02  0.69325057384E+02  0.47000000000E+01 0. -1.
        -11    1    6    6    0    0 -0.58203937568E+01 -0.73006958931E+01 -0.91021378616E+01  0.13039404038E+02  0.00000000000E+00 0.  1.
         12    1    6    6    0    0  0.11203166680E+03  0.12537100270E+03 -0.21462481955E+03  0.27264041493E+03  0.00000000000E+00 0. -1.
         -5    1    3    3    0  503 -0.88409760572E+02 -0.90526650251E+02 -0.19746557054E+03  0.23457643044E+03  0.47000000000E+01 0.  1.
         11    1    4    4    0    0  0.15671103213E+02 -0.35865769455E+02 -0.87358180465E+01  0.40103010005E+02  0.00000000000E+00 0. -1.
        -12    1    4    4    0    0  0.11692405687E+02 -0.74390548907E+01 -0.12991909290E+03  0.13065612342E+03  0.00000000000E+00 0.  1.
</event>
<event>
12    1  0.8493057E-002  0.2047015E+03  0.7818608E-02  0.1145854E+00
         21   -1    0    0  503  502  0.00000000000E+00  0.00000000000E+00  0.24826145690E+04  0.24826145690E+04  0.00000000000E+00 0.  1.
         21   -1    0    0  501  503 -0.00000000000E+00 -0.00000000000E+00 -0.26804899081E+02  0.26804899081E+02  0.00000000000E+00 0.  1.
          6    2    1    2  501    0 -0.81041514289E+02 -0.75376954060E+02  0.46422456547E+03  0.50735308544E+03  0.17220131785E+03 0.  0.
         24    2    3    3    0    0 -0.70917849485E+02 -0.10404053372E+03  0.44864883592E+03  0.47287435665E+03  0.80440071906E+02 0.  0.
         -6    2    1    2    0  502  0.81041514289E+02  0.75376954060E+02  0.19915851045E+04  0.20020663827E+04  0.17207312407E+03 0.  0.
        -24    2    5    5    0    0 -0.84433540914E+01  0.62608115815E+02  0.72554759791E+03  0.73279744232E+03  0.81127728031E+02 0.  0.
          5    1    3    3  501    0 -0.10123664804E+02  0.28663579657E+02  0.15575729551E+02  0.34478728788E+02  0.47000000000E+01 0. -1.
        -13    1    4    4    0    0 -0.51631718326E+02 -0.42371726536E+02  0.33971646636E+03  0.34622026957E+03  0.00000000000E+00 0.  1.
         14    1    4    4    0    0 -0.19286131160E+02 -0.61668807181E+02  0.10893236956E+03  0.12665408708E+03  0.00000000000E+00 0. -1.
         -5    1    5    5    0  502  0.89484868381E+02  0.12768838245E+02  0.12660375066E+04  0.12692689404E+04  0.47000000000E+01 0.  1.
         11    1    6    6    0    0 -0.34288746416E+01 -0.46170464038E+01  0.19590801643E+01  0.60755488552E+01  0.00000000000E+00 0. -1.
        -12    1    6    6    0    0 -0.50144794499E+01  0.67225162219E+02  0.72358851774E+03  0.72672189347E+03  0.00000000000E+00 0.  1.
</event>
<event>
12    1  0.8493057E-002  0.1967854E+03  0.7818608E-02  0.1152640E+00
         21   -1    0    0  503  502  0.00000000000E+00  0.00000000000E+00  0.22512073029E+03  0.22512073029E+03  0.00000000000E+00 0.  1.
         21   -1    0    0  501  503 -0.00000000000E+00 -0.00000000000E+00 -0.20912257998E+03  0.20912257998E+03  0.00000000000E+00 0. -1.
          6    2    1    2  501    0 -0.86054571002E+02 -0.40146080440E+02 -0.84243797430E+02  0.21405957928E+03  0.17235831605E+03 0.  0.
         24    2    3    3    0    0 -0.62790812083E+02 -0.82723206896E+02 -0.14659800981E+02  0.12910054952E+03  0.75274345430E+02 0.  0.
         -6    2    1    2    0  502  0.86054571002E+02  0.40146080440E+02  0.10024194774E+03  0.22018373099E+03  0.17150898035E+03 0.  0.
        -24    2    5    5    0    0 -0.30375893024E+01 -0.27360210300E+02  0.31578535217E+02  0.88915812076E+02  0.78428373018E+02 0.  0.
          5    1    3    3  501    0 -0.23263758918E+02  0.42577126456E+02 -0.69583996449E+02  0.84959029762E+02  0.47000000000E+01 0. -1.
        -13    1    4    4    0    0  0.16282106198E+02 -0.20704129517E+02 -0.10990090072E+02  0.28540323073E+02  0.00000000000E+00 0.  1.
         14    1    4    4    0    0 -0.79072918282E+02 -0.62019077379E+02 -0.36697109081E+01  0.10056022644E+03  0.00000000000E+00 0. -1.
         -5    1    5    5    0  502  0.89092160304E+02  0.67506290740E+02  0.68663412520E+02  0.13126791891E+03  0.47000000000E+01 0.  1.
         13    1    6    6    0    0 -0.34082974924E+02 -0.83385099192E+01 -0.70968872276E+01  0.35798683435E+02  0.00000000000E+00 0. -1.
        -14    1    6    6    0    0  0.31045385622E+02 -0.19021700381E+02  0.38675422445E+02  0.53117128641E+02  0.00000000000E+00 0.  1.
</event>
<event>
12    1  0.8493057E-002  0.1853764E+03  0.7818608E-02  0.1162896E+00
         21   -1    0    0  503  502  0.00000000000E+00  0.00000000000E+00  0.42661288773E+03  0.42661288773E+03  0.00000000000E+00 0. -1.
         21   -1    0    0  501  503 -0.00000000000E+00 -0.00000000000E+00 -0.93266933635E+02  0.93266933635E+02  0.00000000000E+00 0.  1.
          6    2    1    2  501    0 -0.63709309515E+02 -0.23099174963E+02  0.69651374341E+02  0.19802963757E+03  0.17254557487E+03 0.  0.
         24    2    3    3    0    0 -0.41799694641E+02  0.30261227419E+02 -0.14746468875E+02  0.95694649882E+02  0.79227844315E+02 0.  0.
         -6    2    1    2    0  502  0.63709309515E+02  0.23099174963E+02  0.26369457975E+03  0.32185018379E+03  0.17163991788E+03 0.  0.
        -24    2    5    5    0    0 -0.21544314750E+02  0.42541813120E+02  0.16748681747E+03  0.19175706271E+03  0.80280593614E+02 0.  0.
          5    1    3    3  501    0 -0.21909614873E+02 -0.53360402382E+02  0.84397843216E+02  0.10233498769E+03  0.47000000000E+01 0. -1.
        -13    1    4    4    0    0 -0.48442499504E+02  0.51746856697E+02 -0.17572207572E+02  0.73028730067E+02  0.00000000000E+00 0.  1.
         14    1    4    4    0    0  0.66428048629E+01 -0.21485629277E+02  0.28257386970E+01  0.22665919815E+02  0.00000000000E+00 0. -1.
         -5    1    5    5    0  502  0.85253624265E+02 -0.19442638157E+02  0.96207762282E+02  0.13009312108E+03  0.47000000000E+01 0.  1.
         11    1    6    6    0    0  0.87026875039E+00 -0.33583707572E+01  0.12573792551E+03  0.12578577795E+03  0.00000000000E+00 0. -1.
        -12    1    6    6    0    0 -0.22414583501E+02  0.45900183877E+02  0.41748891960E+02  0.65971284764E+02  0.00000000000E+00 0.  1.
</event>
<event>
12    1  0.8493057E-002  0.1720301E+03  0.7818608E-02  0.1175784E+00
         21   -1    0    0  501  502  0.00000000000E+00  0.00000000000E+00  0.60974000927E+02  0.60974000927E+02  0.00000000000E+00 0.  1.
         21   -1    0    0  502  503 -0.00000000000E+00 -0.00000000000E+00 -0.75598350478E+03  0.75598350478E+03  0.00000000000E+00 0.  1.
         -6    2    1    2    0  503 -0.36644579247E+00  0.34894249964E+01 -0.59199179960E+03  0.61644065695E+03  0.17185017422E+03 0.  0.
        -24    2    3    3    0    0  0.15075234079E+02  0.59279932828E+02 -0.42713081624E+03  0.44164860886E+03  0.94188037496E+02 0.  0.
          6    2    1    2  501    0  0.36644579247E+00 -0.34894249964E+01 -0.10301770426E+03  0.20051684876E+03  0.17199432804E+03 0.  0.
         24    2    5    5    0    0  0.12096752657E+02 -0.60557490382E+02 -0.99981157929E+02  0.14198758429E+03  0.79691286129E+02 0.  0.
          5    1    5    5  501    0 -0.11730306864E+02  0.57068065385E+02 -0.30365463267E+01  0.58529264471E+02  0.47000000000E+01 0. -1.
        -11    1    6    6    0    0 -0.89264686790E+01 -0.45390587865E+02 -0.86667899109E+01  0.47064854798E+02  0.00000000000E+00 0.  1.
         12    1    6    6    0    0  0.21023221336E+02 -0.15166902517E+02 -0.91314368018E+02  0.94922729490E+02  0.00000000000E+00 0. -1.
         -5    1    3    3    0  503 -0.15441679871E+02 -0.55790507832E+02 -0.16486098336E+03  0.17479204809E+03  0.47000000000E+01 0.  1.
         11    1    4    4    0    0  0.38224871813E+02  0.66522228657E+02 -0.21781972723E+03  0.23093674741E+03  0.00000000000E+00 0. -1.
        -12    1    4    4    0    0 -0.23149637734E+02 -0.72422958284E+01 -0.20931108901E+03  0.21071186145E+03  0.00000000000E+00 0.  1.
</event>
<event>
12    1  0.8493057E-002  0.1942808E+03  0.7818608E-02  0.1158844E+00
         21   -1    0    0  501  502  0.00000000000E+00  0.00000000000E+00  0.29650348512E+03  0.29650348512E+03  0.00000000000E+00 0. -1.
         21   -1    0    0  502  503 -0.00000000000E+00 -0.00000000000E+00 -0.14623309927E+03  0.14623309927E+03  0.00000000000E+00 0. -1.
         -6    2    1    2    0  503 -0.35847030339E+01  0.40471878004E+02 -0.23028769535E+02  0.19564092711E+03  0.18998480236E+03 0.  0.
        -24    2    3    3    0    0  0.37879482255E+02  0.90897295167E+02 -0.55676062335E+01  0.12789889007E+03  0.81424531919E+02 0.  0.
          6    2    1    2  501    0  0.35847030339E+01 -0.40471878004E+02  0.17329915538E+03  0.24709565728E+03  0.17138507399E+03 0.  0.
         24    2    5    5    0    0  0.59037461085E+02 -0.37939106974E+02  0.15131254471E+03  0.18720472013E+03  0.85001902348E+02 0.  0.
          5    1    5    5  501    0 -0.55452758051E+02 -0.25327710301E+01  0.21986610675E+02  0.59890937157E+02  0.47000000000E+01 0. -1.
        -11    1    6    6    0    0  0.77408031019E+02 -0.43488909818E+02  0.10786265260E+03  0.13970554881E+03  0.00000000000E+00 0.  1.
         12    1    6    6    0    0 -0.18370569934E+02  0.55498028443E+01  0.43449892109E+02  0.47499171315E+02  0.00000000000E+00 0. -1.
         -5    1    3    3    0  503 -0.41464185289E+02 -0.50425417163E+02 -0.17461163302E+02  0.67742037035E+02  0.47000000000E+01 0.  1.
         11    1    4    4    0    0  0.37502797164E+02  0.48597316214E+02  0.33831857352E+02  0.70091037303E+02  0.00000000000E+00 0. -1.
        -12    1    4    4    0    0  0.37668509158E+00  0.42299978953E+02 -0.39399463586E+02  0.57807852771E+02  0.00000000000E+00 0.  1.
</event>
<event>
12    1  0.8493057E-002  0.1868086E+03  0.7818608E-02  0.1161882E+00
         21   -1    0    0  501  502  0.00000000000E+00  0.00000000000E+00  0.94588656802E+02  0.94588656802E+02  0.00000000000E+00 0.  1.
         21   -1    0    0  502  503 -0.00000000000E+00 -0.00000000000E+00 -0.57245284875E+03  0.57245284875E+03  0.00000000000E+00 0. -1.
         -6    2    1    2    0  503  0.65552546898E+02 -0.61655765295E+01 -0.44080023122E+03  0.47875077456E+03  0.17482079270E+03 0.  0.
        -24    2    3    3    0    0  0.80446961226E+02 -0.62288173590E+02 -0.30366747762E+03  0.32975724588E+03  0.78577185662E+02 0.  0.
          6    2    1    2  501    0 -0.65552546898E+02  0.61655765295E+01 -0.37063960721E+02  0.18829073098E+03  0.17246597187E+03 0.  0.
         24    2    5    5    0    0 -0.93927669589E+02  0.48504609182E+02 -0.17723031076E+02  0.13357416281E+03  0.79704748369E+02 0.  0.
          5    1    5    5  501    0  0.28375122691E+02 -0.42339032652E+02 -0.19340929645E+02  0.54716568178E+02  0.47000000000E+01 0. -1.
        -13    1    6    6    0    0  0.23656393703E+01  0.32401149777E+02  0.61567163189E+01  0.33065630379E+02  0.00000000000E+00 0.  1.
         14    1    6    6    0    0 -0.96293308959E+02  0.16103459405E+02 -0.23879747395E+02  0.10050853243E+03  0.00000000000E+00 0. -1.
         -5    1    3    3    0  503 -0.14894414329E+02  0.56122597060E+02 -0.13713275361E+03  0.14899352869E+03  0.47000000000E+01 0.  1.
         11    1    4    4    0    0  0.37734315817E+02 -0.52341629200E+02 -0.25993150909E+03  0.26782067537E+03  0.00000000000E+00 0. -1.
        -12    1    4    4    0    0  0.42712645410E+02 -0.99465443895E+01 -0.43735968524E+02  0.61936570505E+02  0.00000000000E+00 0.  1.
</event>
<event>
12    1  0.8493057E-002  0.1773241E+03  0.7818608E-02  0.1170620E+00
         21   -1    0    0  503  502  0.00000000000E+00  0.00000000000E+00  0.10593320844E+04  0.10593320844E+04  0.00000000000E+00 0.  1.
         21   -1    0    0  501  503 -0.00000000000E+00 -0.00000000000E+00 -0.33778746884E+02  0.33778746884E+02  0.00000000000E+00 0.  1.
          6    2    1    2  501    0 -0.33273665673E+01  0.41437686938E+02  0.70520735728E+03  0.72696142242E+03  0.17154398752E+03 0.  0.
         24    2    3    3    0    0 -0.60000093201E+02  0.59076130418E+02  0.40620779079E+03  0.42209137896E+03  0.77886857241E+02 0.  0.
         -6    2    1    2    0  502  0.33273665673E+01 -0.41437686938E+02  0.32034598019E+03  0.36614940882E+03  0.17238239263E+03 0.  0.
        -24    2    5    5    0    0  0.28463604504E+02  0.35045376880E+02  0.12931793025E+03  0.15879633946E+03  0.80341739587E+02 0.  0.
          5    1    3    3  501    0  0.56672726634E+02 -0.17638443480E+02  0.29899956650E+03  0.30487004346E+03  0.47000000000E+01 0. -1.
        -13    1    4    4    0    0 -0.66131168698E+02  0.39990888568E+02  0.19232977957E+03  0.20727601586E+03  0.00000000000E+00 0.  1.
         14    1    4    4    0    0  0.61310754976E+01  0.19085241850E+02  0.21387801121E+03  0.21481536310E+03  0.00000000000E+00 0. -1.
         -5    1    5    5    0  502 -0.25136237937E+02 -0.76483063818E+02  0.19102804995E+03  0.20735306936E+03  0.47000000000E+01 0.  1.
         11    1    6    6    0    0  0.33187629823E+01  0.32625247779E+02  0.12944562316E+03  0.13353497795E+03  0.00000000000E+00 0. -1.
        -12    1    6    6    0    0  0.25144841522E+02  0.24201291008E+01 -0.12769290931E+00  0.25261361513E+02  0.00000000000E+00 0.  1.
</event>
<event>
12    1  0.8493057E-002  0.2088049E+03  0.7818608E-02  0.1143401E+00
         21   -1    0    0  503  502  0.00000000000E+00  0.00000000000E+00  0.10300034386E+04  0.10300034386E+04  0.00000000000E+00 0. -1.
         21   -1    0    0  501  503 -0.00000000000E+00 -0.00000000000E+00 -0.56650558439E+02  0.56650558439E+02  0.00000000000E+00 0.  1.
          6    2    1    2  501    0  0.29911883073E+02 -0.10821533206E+03  0.20897725466E+03  0.29541664096E+03  0.17605175360E+03 0.  0.
         24    2    3    3    0    0  0.53367502077E+02 -0.30427173959E+02  0.32925947421E+02  0.10146480058E+03  0.73736588954E+02 0.  0.
         -6    2    1    2    0  502 -0.29911883073E+02  0.10821533206E+03  0.76437562552E+03  0.79123735610E+03  0.17082499220E+03 0.  0.
        -24    2    5    5    0    0 -0.52601478043E+02  0.16165231387E+02  0.52633153928E+03  0.53496578970E+03  0.78328007163E+02 0.  0.
          5    1    3    3  501    0 -0.23455619003E+02 -0.77788158103E+02  0.17605130724E+03  0.19395184037E+03  0.47000000000E+01 0. -1.
        -11    1    4    4    0    0 -0.13643893631E+01  0.20809544905E+02  0.48698464376E+01  0.21415277767E+02  0.00000000000E+00 0.  1.
         12    1    4    4    0    0  0.54731891440E+02 -0.51236718865E+02  0.28056100983E+02  0.80049522815E+02  0.00000000000E+00 0. -1.
         -5    1    5    5    0  502  0.22689594969E+02  0.92050100675E+02  0.23804408623E+03  0.25627156640E+03  0.47000000000E+01 0.  1.
         13    1    6    6    0    0 -0.68669896219E+02  0.26375257771E+02  0.35242229637E+03  0.36001761602E+03  0.00000000000E+00 0. -1.
        -14    1    6    6    0    0  0.16068418176E+02 -0.10210026384E+02  0.17390924291E+03  0.17494817367E+03  0.00000000000E+00 0.  1.
</event>
<event>
12    1  0.8493057E-002  0.1728518E+03  0.7818608E-02  0.1175029E+00
         21   -1    0    0  501  502  0.00000000000E+00  0.00000000000E+00  0.20371925327E+03  0.20371925327E+03  0.00000000000E+00 0.  1.
         21   -1    0    0  502  503 -0.00000000000E+00 -0.00000000000E+00 -0.44728551944E+03  0.44728551944E+03  0.00000000000E+00 0.  1.
         -6    2    1    2    0  503  0.54098807531E+01 -0.15684284341E+02 -0.38876232248E+03  0.42526237503E+03  0.17157121159E+03 0.  0.
        -24    2    3    3    0    0  0.21952940147E+02 -0.31159032210E+01 -0.93831230426E+02  0.12956307493E+03  0.86548542145E+02 0.  0.
          6    2    1    2  501    0 -0.54098807531E+01  0.15684284341E+02  0.14519605631E+03  0.22574239768E+03  0.17205368859E+03 0.  0.
         24    2    5    5    0    0 -0.69342802319E+02 -0.55464407403E+01  0.90579562162E+02  0.13889072193E+03  0.79036626442E+02 0.  0.
          5    1    5    5  501    0  0.63932921565E+02  0.21230725081E+02  0.54616494144E+02  0.86851675747E+02  0.47000000000E+01 0. -1.
        -11    1    6    6    0    0  0.16155406466E+02 -0.10173906923E+02  0.22443403567E+02  0.29465435748E+02  0.00000000000E+00 0.  1.
         12    1    6    6    0    0 -0.85498208784E+02  0.46274661828E+01  0.68136158595E+02  0.10942528619E+03  0.00000000000E+00 0. -1.
         -5    1    3    3    0  503 -0.16543059394E+02 -0.12568381120E+02 -0.29493109206E+03  0.29569930010E+03  0.47000000000E+01 0.  1.
         13    1    4    4    0    0  0.27844482179E+02  0.23068745253E+02 -0.46815591961E+01  0.36460926920E+02  0.00000000000E+00 0. -1.
        -14    1    4    4    0    0 -0.58915420319E+01 -0.26184648474E+02 -0.89149671230E+02  0.93102148008E+02  0.00000000000E+00 0.  1.
</event>
<event>
12    1  0.8493057E-002  0.1827835E+03  0.7818608E-02  0.1165388E+00
         21   -1    0    0  501  502  0.00000000000E+00  0.00000000000E+00  0.12274149855E+03  0.12274149855E+03  0.00000000000E+00 0. -1.
         21   -1    0    0  502  503 -0.00000000000E+00 -0.00000000000E+00 -0.53838773175E+03  0.53838773175E+03  0.00000000000E+00 0. -1.
         -6    2    1    2    0  503 -0.20439751019E+02 -0.56512593125E+02 -0.44064258539E+03  0.47664449631E+03  0.17150111135E+03 0.  0.
        -24    2    3    3    0    0  0.43341158034E+02 -0.92263511315E+01 -0.15062158093E+03  0.17591493994E+03  0.79344967819E+02 0.  0.
          6    2    1    2  501    0  0.20439751019E+02  0.56512593125E+02  0.24996352190E+02  0.18448473399E+03  0.17262196514E+03 0.  0.
         24    2    5    5    0    0  0.35389537240E+02  0.50591200684E+02  0.78964585685E+02  0.12797615745E+03  0.79565081220E+02 0.  0.
          5    1    5    5  501    0 -0.14949786220E+02  0.59213924410E+01 -0.53968233495E+02  0.56508576544E+02  0.47000000000E+01 0. -1.
        -13    1    6    6    0    0 -0.12862457631E+02 -0.86946921931E+01 -0.30935384102E+01  0.15830681241E+02  0.00000000000E+00 0.  1.
         14    1    6    6    0    0  0.48251994871E+02  0.59285892877E+02  0.82058124095E+02  0.11214547621E+03  0.00000000000E+00 0. -1.
         -5    1    3    3    0  503 -0.63780909054E+02 -0.47286241994E+02 -0.29002100446E+03  0.30072955637E+03  0.47000000000E+01 0.  1.
         13    1    4    4    0    0  0.28871026380E+02 -0.32598671786E+02 -0.13971073342E+03  0.14633966858E+03  0.00000000000E+00 0. -1.
        -14    1    4    4    0    0  0.14470131654E+02  0.23372320654E+02 -0.10910847507E+02  0.29575271363E+02  0.00000000000E+00 0.  1.
</event>
<event>
12    1  0.8493057E-002  0.1941414E+03  0.7818608E-02  0.1154961E+00
         21   -1    0    0  503  502  0.00000000000E+00  0.00000000000E+00  0.11728666095E+03  0.11728666095E+03  0.00000000000E+00 0.  1.
         21   -1    0    0  501  503 -0.00000000000E+00 -0.00000000000E+00 -0.44680108647E+03  0.44680108647E+03  0.00000000000E+00 0. -1.
          6    2    1    2  501    0  0.78183886208E+02  0.44785764151E+02 -0.31527369128E+03  0.37025446545E+03  0.17196622937E+03 0.  0.
         24    2    3    3    0    0  0.49240882508E+02 -0.39508595444E+02 -0.13435849493E+03  0.16852287449E+03  0.79763152161E+02 0.  0.
         -6    2    1    2    0  502 -0.78183886208E+02 -0.44785764151E+02 -0.14240734240E+02  0.19383328197E+03  0.17102648319E+03 0.  0.
        -24    2    5    5    0    0 -0.11639538237E+03 -0.48120004023E+02 -0.28068918328E+02  0.15279008193E+03  0.81813966637E+02 0.  0.
          5    1    3    3  501    0  0.28943003699E+02  0.84294359596E+02 -0.18091519635E+03  0.20173159096E+03  0.47000000000E+01 0. -1.
        -11    1    4    4    0    0 -0.46620180497E+01 -0.58594986251E+01 -0.91661640143E+02  0.91966974562E+02  0.00000000000E+00 0.  1.
         12    1    4    4    0    0  0.53902900558E+02 -0.33649096819E+02 -0.42696854790E+02  0.76555899931E+02  0.00000000000E+00 0. -1.
         -5    1    5    5    0  502  0.38211496159E+02  0.33342398714E+01  0.13828184088E+02  0.41043200038E+02  0.47000000000E+01 0.  1.
         11    1    6    6    0    0 -0.50752112577E+02 -0.33534449357E+02 -0.53389339806E+02  0.80936752032E+02  0.00000000000E+00 0. -1.
        -12    1    6    6    0    0 -0.65643269790E+02 -0.14585554666E+02  0.25320421478E+02  0.71853329898E+02  0.00000000000E+00 0.  1.
</event>
<event>
12    1  0.8493057E-002  0.2549212E+03  0.7818608E-02  0.1110287E+00
         21   -1    0    0  501  502  0.00000000000E+00  0.00000000000E+00  0.82440812043E+03  0.82440812043E+03  0.00000000000E+00 0.  1.
         21   -1    0    0  502  503 -0.00000000000E+00 -0.00000000000E+00 -0.17647845273E+03  0.17647845273E+03  0.00000000000E+00 0. -1.
         -6    2    1    2    0  503 -0.98415168639E+02  0.16080070449E+03 -0.48598672142E+02  0.25917468258E+03  0.17107680490E+03 0.  0.
        -24    2    3    3    0    0 -0.12834511523E+02  0.11919571400E+03 -0.72833050141E+02  0.16086690474E+03  0.78747475687E+02 0.  0.
          6    2    1    2  501    0  0.98415168639E+02 -0.16080070449E+03  0.69652833984E+03  0.74171189057E+03  0.17158784464E+03 0.  0.
         24    2    5    5    0    0 -0.41406001258E+01 -0.91898441375E+02  0.25623382637E+03  0.28438645266E+03  0.82203482786E+02 0.  0.
          5    1    5    5  501    0  0.10255576876E+03 -0.68902263118E+02  0.44029451347E+03  0.45732543791E+03  0.47000000000E+01 0. -1.
        -11    1    6    6    0    0  0.18799704965E+02 -0.55366920804E+02  0.22125174333E+03  0.22884767587E+03  0.00000000000E+00 0.  1.
         12    1    6    6    0    0 -0.22940305091E+02 -0.36531520571E+02  0.34982083042E+02  0.55538776785E+02  0.00000000000E+00 0. -1.
         -5    1    3    3    0  503 -0.85580657116E+02  0.41604990497E+02  0.24234378000E+02  0.98307777840E+02  0.47000000000E+01 0.  1.
         13    1    4    4    0    0  0.53372807288E+01 -0.74948445099E+01 -0.20730820024E+02  0.22680964677E+02  0.00000000000E+00 0. -1.
        -14    1    4    4    0    0 -0.18171792251E+02  0.12669055851E+03 -0.52102230117E+02  0.13818594006E+03  0.00000000000E+00 0.  1.
</event>
<event>
12    1  0.8493057E-002  0.1804647E+03  0.7818608E-02  0.1168909E+00
         21   -1    0    0  501  502  0.00000000000E+00  0.00000000000E+00  0.85205254672E+02  0.85205254672E+02  0.00000000000E+00 0. -1.
         21   -1    0    0  502  503 -0.00000000000E+00 -0.00000000000E+00 -0.10532546385E+04  0.10532546385E+04  0.00000000000E+00 0. -1.
         -6    2    1    2    0  503  0.33991722849E+02 -0.14698577731E+02 -0.93980028068E+03  0.95579757771E+03  0.17015568339E+03 0.  0.
        -24    2    3    3    0    0  0.60018784332E+02 -0.42858380329E+02 -0.86542278140E+03  0.87198537806E+03  0.77219257627E+02 0.  0.
          6    2    1    2  501    0 -0.33991722849E+02  0.14698577731E+02 -0.28249103161E+02  0.18266231547E+03  0.17662396285E+03 0.  0.
         24    2    5    5    0    0 -0.13135855987E+02  0.26798267027E+01  0.57438641395E+02  0.93533772758E+02  0.72592264997E+02 0.  0.
          5    1    5    5  501    0 -0.20855866862E+02  0.12018751029E+02 -0.85687744557E+02  0.89128542712E+02  0.47000000000E+01 0. -1.
        -11    1    6    6    0    0 -0.29368001031E+02 -0.20070458060E+02  0.75696901830E+01  0.36367608950E+02  0.00000000000E+00 0.  1.
         12    1    6    6    0    0  0.16232145044E+02  0.22750284763E+02  0.49868951213E+02  0.57166163808E+02  0.00000000000E+00 0. -1.
         -5    1    3    3    0  503 -0.26027061484E+02  0.28159802598E+02 -0.74377499284E+02  0.83812199659E+02  0.47000000000E+01 0.  1.
         13    1    4    4    0    0  0.23200298103E+02  0.19170607011E+02 -0.15386580169E+03  0.15678153888E+03  0.00000000000E+00 0. -1.
        -14    1    4    4    0    0  0.36818486230E+02 -0.62028987340E+02 -0.71155697970E+03  0.71520383917E+03  0.00000000000E+00 0.  1.
</event>
<event>
12    1  0.8493057E-002  0.2050171E+03  0.7818608E-02  0.1145601E+00
         21   -1    0    0  501  502  0.00000000000E+00  0.00000000000E+00  0.20585005536E+03  0.20585005536E+03  0.00000000000E+00 0.  1.
         21   -1    0    0  502  503 -0.00000000000E+00 -0.00000000000E+00 -0.22880210256E+03  0.22880210256E+03  0.00000000000E+00 0.  1.
         -6    2    1    2    0  503 -0.38458709499E+02  0.10504976290E+03 -0.82947807322E+02  0.22103680458E+03  0.17164616284E+03 0.  0.
        -24    2    3    3    0    0 -0.87128354832E+02  0.62614466694E+02 -0.74850855297E+02  0.15579004701E+03  0.84592946249E+02 0.  0.
          6    2    1    2  501    0  0.38458709499E+02 -0.10504976290E+03  0.59995760125E+02  0.21361535334E+03  0.17180658581E+03 0.  0.
         24    2    5    5    0    0 -0.18524411958E+02 -0.10767966274E+03  0.79814000111E+02  0.15304436078E+03  0.71513901768E+02 0.  0.
          5    1    5    5  501    0  0.56983121457E+02  0.26298998404E+01 -0.19818239986E+02  0.60570992565E+02  0.47000000000E+01 0. -1.
        -11    1    6    6    0    0  0.10945454317E+02 -0.42586781100E+02  0.67468972009E+02  0.80532596373E+02  0.00000000000E+00 0.  1.
         12    1    6    6    0    0 -0.29469866274E+02 -0.65092881636E+02  0.12345028102E+02  0.72511764402E+02  0.00000000000E+00 0. -1.
         -5    1    3    3    0  503  0.48669645334E+02  0.42435296202E+02 -0.80969520244E+01  0.65246757565E+02  0.47000000000E+01 0.  1.
         13    1    4    4    0    0 -0.25516375961E+02 -0.20017501932E+02 -0.26777534242E+02  0.42057367557E+02  0.00000000000E+00 0. -1.
        -14    1    4    4    0    0 -0.61611978872E+02  0.82631968625E+02 -0.48073321055E+02  0.11373267946E+03  0.00000000000E+00 0.  1.
</event>
<event>
12    1  0.8493057E-002  0.1936518E+03  0.7818608E-02  0.1155317E+00
         21   -1    0    0  501  502  0.00000000000E+00  0.00000000000E+00  0.25694729910E+03  0.25694729910E+03  0.00000000000E+00 0. -1.
         21   -1    0    0  502  503 -0.00000000000E+00 -0.00000000000E+00 -0.52623914914E+03  0.52623914914E+03  0.00000000000E+00 0. -1.
         -6    2    1    2    0  503 -0.81018339499E+02 -0.35205594427E+02 -0.46765145900E+03  0.50597255436E+03  0.17177582324E+03 0.  0.
        -24    2    3    3    0    0 -0.13913724840E+02  0.39165754211E+02 -0.25415410896E+03  0.27009687677E+03  0.81427659288E+02 0.  0.
          6    2    1    2  501    0  0.81018339499E+02  0.35205594427E+02  0.19835960896E+03  0.27721389388E+03  0.17232992567E+03 0.  0.
         24    2    5    5    0    0 -0.16712306169E+02  0.51033995172E+02  0.10328681445E+03  0.13987218999E+03  0.77538981505E+02 0.  0.
          5    1    5    5  501    0  0.97730645668E+02 -0.15828400745E+02  0.95072794512E+02  0.13734170390E+03  0.47000000000E+01 0. -1.
        -13    1    6    6    0    0 -0.16286042764E+02 -0.12767708126E+02  0.28590114458E+01  0.20890751689E+02  0.00000000000E+00 0.  1.
         14    1    6    6    0    0 -0.42626340435E+00  0.63801703297E+02  0.10042780300E+03  0.11898143830E+03  0.00000000000E+00 0. -1.
         -5    1    3    3    0  503 -0.67104614660E+02 -0.74371348637E+02 -0.21349735004E+03  0.23587567760E+03  0.47000000000E+01 0.  1.
         11    1    4    4    0    0 -0.34415485547E+02  0.54204674858E+02 -0.20400145314E+03  0.21386716743E+03  0.00000000000E+00 0. -1.
        -12    1    4    4    0    0  0.20501760708E+02 -0.15038920647E+02 -0.50152655816E+02  0.56229709334E+02  0.00000000000E+00 0.  1.
</event>
<event>
12    1  0.8493057E-002  0.2118239E+03  0.7818608E-02  0.1140240E+00
         21   -1    0    0  503  502  0.00000000000E+00  0.00000000000E+00  0.29096314581E+03  0.29096314581E+03  0.00000000000E+00 0.  1.
         21   -1    0    0  501  503 -0.00000000000E+00 -0.00000000000E+00 -0.18548767350E+03  0.18548767350E+03  0.00000000000E+00 0. -1.
          6    2    1    2  501    0 -0.83229764992E+02 -0.89890858473E+02 -0.45782468987E+02  0.21616574569E+03  0.17211634126E+03 0.  0.
         24    2    3    3    0    0 -0.79914060533E+02 -0.29217580237E+02 -0.79065927971E+02  0.14672426508E+03  0.89647447994E+02 0.  0.
         -6    2    1    2    0  502  0.83229764992E+02  0.89890858473E+02  0.15125794130E+03  0.26028507361E+03  0.17280565535E+03 0.  0.
        -24    2    5    5    0    0  0.12132685679E+03  0.76283235663E+02  0.89628260626E+02  0.18641448852E+03  0.78598970765E+02 0.  0.
          5    1    3    3  501    0 -0.33157044593E+01 -0.60673278236E+02  0.33283458984E+02  0.69441480614E+02  0.47000000000E+01 0. -1.
        -11    1    4    4    0    0 -0.25720688187E+02  0.21106370474E+02  0.62097496886E+01  0.33846619722E+02  0.00000000000E+00 0.  1.
         12    1    4    4    0    0 -0.54193372346E+02 -0.50323950712E+02 -0.85275677659E+02  0.11287764536E+03  0.00000000000E+00 0. -1.
         -5    1    5    5    0  502 -0.38097091799E+02  0.13607622810E+02  0.61629680672E+02  0.73870585091E+02  0.47000000000E+01 0.  1.
         11    1    6    6    0    0  0.91955483252E+01  0.45934905861E+01 -0.14259894710E+02  0.17578477235E+02  0.00000000000E+00 0. -1.
        -12    1    6    6    0    0  0.11213130847E+03  0.71689745077E+02  0.10388815534E+03  0.16883601129E+03  0.00000000000E+00 0.  1.
</event>
<event>
12    1  0.8493057E-002  0.1739153E+03  0.7818608E-02  0.1174135E+00
         21   -1    0    0  501  502  0.00000000000E+00  0.00000000000E+00  0.38731879045E+03  0.38731879045E+03  0.00000000000E+00 0.  1.
         21   -1    0    0  502  503 -0.00000000000E+00 -0.00000000000E+00 -0.80965716452E+02  0.80965716452E+02  0.00000000000E+00 0.  1.
         -6    2    1    2    0  503  0.17827250042E+02  0.19926350781E+02  0.20078209971E+03  0.26483484475E+03  0.17061410590E+03 0.  0.
        -24    2    3    3    0    0  0.46718195037E+01  0.69477408939E+02  0.44814774560E+02  0.10059030380E+03  0.57106120071E+02 0.  0.
          6    2    1    2  501    0 -0.17827250042E+02 -0.19926350781E+02  0.10557097430E+03  0.20344966216E+03  0.17184779347E+03 0.  0.
         24    2    5    5    0    0 -0.50851015639E+02  0.41444240110E+02  0.76634509244E+02  0.12784326342E+03  0.78534076458E+02 0.  0.
          5    1    5    5  501    0  0.33023765597E+02 -0.61370590891E+02  0.28936465052E+02  0.75606398739E+02  0.47000000000E+01 0. -1.
        -13    1    6    6    0    0 -0.15676187001E+01  0.29304473193E+02 -0.68545854050E+01  0.30136272473E+02  0.00000000000E+00 0.  1.
         14    1    6    6    0    0 -0.49283396938E+02  0.12139766917E+02  0.83489094649E+02  0.97706990947E+02  0.00000000000E+00 0. -1.
         -5    1    3    3    0  503  0.13155430538E+02 -0.49551058158E+02  0.15596732515E+03  0.16424454095E+03  0.47000000000E+01 0.  1.
         11    1    4    4    0    0  0.29921306254E+02  0.45838239248E+02  0.21160925837E+02  0.58687422226E+02  0.00000000000E+00 0. -1.
        -12    1    4    4    0    0 -0.25249486751E+02  0.23639169692E+02  0.23653848723E+02  0.41902881575E+02  0.00000000000E+00 0.  1.
</event>
<event>
12    1  0.8493057E-002  0.1935626E+03  0.7818608E-02  0.1155439E+00
         21   -1    0    0  501  502  0.00000000000E+00  0.00000000000E+00  0.26254757601E+03  0.26254757601E+03  0.00000000000E+00 0.  1.
         21   -1    0    0  502  503 -0.00000000000E+00 -0.00000000000E+00 -0.18775606794E+03  0.18775606794E+03  0.00000000000E+00 0.  1.
         -6    2    1    2    0  503  0.14888168937E+02  0.86238685985E+02 -0.73464973339E+02  0.20703526553E+03  0.17264915386E+03 0.  0.
        -24    2    3    3    0    0  0.35641080743E+02 -0.13641076693E+02 -0.53915555378E+02  0.10305969107E+03  0.79107820108E+02 0.  0.
          6    2    1    2  501    0 -0.14888168937E+02 -0.86238685985E+02  0.14825648140E+03  0.24326837842E+03  0.17187423054E+03 0.  0.
         24    2    5    5    0    0 -0.70913596942E+02 -0.69315371889E+02  0.12999599716E+03  0.18178031105E+03  0.79446605956E+02 0.  0.
          5    1    5    5  501    0  0.56025428005E+02 -0.16923314096E+02  0.18260484247E+02  0.61488067363E+02  0.47000000000E+01 0. -1.
        -13    1    6    6    0    0 -0.84002180899E+01 -0.61251448668E+02  0.81258684664E+02  0.10210424801E+03  0.00000000000E+00 0.  1.
         14    1    6    6    0    0 -0.62513378852E+02 -0.80639232212E+01  0.48737312494E+02  0.79676063045E+02  0.00000000000E+00 0. -1.
         -5    1    3    3    0  503 -0.20752911806E+02  0.99879762678E+02 -0.19549417961E+02  0.10397557446E+03  0.47000000000E+01 0.  1.
         11    1    4    4    0    0 -0.19763504817E+02 -0.24179477775E+02 -0.15880397172E+02  0.35034701118E+02  0.00000000000E+00 0. -1.
        -12    1    4    4    0    0  0.55404585560E+02  0.10538401082E+02 -0.38035158206E+02  0.68024989953E+02  0.00000000000E+00 0.  1.
</event>
<event>
12    1  0.8493057E-002  0.1999220E+03  0.7818608E-02  0.1149858E+00
         21   -1    0    0  503  502  0.00000000000E+00  0.00000000000E+00  0.48006422273E+03  0.48006422273E+03  0.00000000000E+00 0. -1.
         21   -1    0    0  501  503 -0.00000000000E+00 -0.00000000000E+00 -0.94593937207E+02  0.94593937207E+02  0.00000000000E+00 0. -1.
          6    2    1    2  501    0  0.34580511922E+02 -0.95290121442E+02  0.92694503687E+02  0.22013528948E+03  0.17202109060E+03 0.  0.
         24    2    3    3    0    0  0.36258991105E+02 -0.28049521255E+02  0.11512283409E+03  0.14907731589E+03  0.82881174620E+02 0.  0.
         -6    2    1    2    0  502 -0.34580511922E+02  0.95290121442E+02  0.29277578184E+03  0.35452287046E+03  0.17231595456E+03 0.  0.
        -24    2    5    5    0    0 -0.40528051138E+02  0.67647975606E+02  0.30376070609E+03  0.32382726800E+03  0.79842102948E+02 0.  0.
          5    1    3    3  501    0 -0.16784791821E+01 -0.67240600187E+02 -0.22428330402E+02  0.71057973589E+02  0.47000000000E+01 0. -1.
        -11    1    4    4    0    0  0.54460770332E+02  0.28024421934E+00  0.42686486040E+02  0.69196749435E+02  0.00000000000E+00 0.  1.
         12    1    4    4    0    0 -0.18201779227E+02 -0.28329765474E+02  0.72436348048E+02  0.79880566456E+02  0.00000000000E+00 0. -1.
         -5    1    5    5    0  502  0.59475392153E+01  0.27642145836E+02 -0.10984924255E+02  0.30695602454E+02  0.47000000000E+01 0.  1.
         13    1    6    6    0    0 -0.42217019129E+02  0.45897129669E+02  0.93195179575E+02  0.11213458303E+03  0.00000000000E+00 0. -1.
        -14    1    6    6    0    0  0.16889679908E+01  0.21750845938E+02  0.21056552652E+03  0.21169268497E+03  0.00000000000E+00 0.  1.
</event>
<event>
12    1  0.8493057E-002  0.2665978E+03  0.7818608E-02  0.1104208E+00
         21   -1    0    0  501  502  0.00000000000E+00  0.00000000000E+00  0.23356449041E+03  0.23356449041E+03  0.00000000000E+00 0. -1.
         21   -1    0    0  502  503 -0.00000000000E+00 -0.00000000000E+00 -0.40376381206E+03  0.40376381206E+03  0.00000000000E+00 0. -1.
         -6    2    1    2    0  503 -0.10147457699E+03  0.17746893282E+03 -0.24827057083E+03  0.35953429669E+03  0.16073058907E+03 0.  0.
        -24    2    3    3    0    0 -0.78806325970E+02  0.19162924179E+03 -0.17761086039E+03  0.28384249639E+03  0.78030389629E+02 0.  0.
          6    2    1    2  501    0  0.10147457699E+03 -0.17746893282E+03  0.78071249188E+02  0.27779400578E+03  0.17112006838E+03 0.  0.
         24    2    5    5    0    0  0.13688438497E+03 -0.12519802069E+03  0.69988082747E+02  0.21396979144E+03  0.80454090563E+02 0.  0.
          5    1    5    5  501    0 -0.35409807979E+02 -0.52270912135E+02  0.80831664410E+01  0.63824214341E+02  0.47000000000E+01 0. -1.
        -11    1    6    6    0    0  0.46907812091E+02 -0.58787799779E+02 -0.10841392670E+02  0.75986077890E+02  0.00000000000E+00 0.  1.
         12    1    6    6    0    0  0.89976572878E+02 -0.66410220911E+02  0.80829475417E+02  0.13798371355E+03  0.00000000000E+00 0. -1.
         -5    1    3    3    0  503 -0.22668251020E+02 -0.14160308962E+02 -0.70659710434E+02  0.75691800301E+02  0.47000000000E+01 0.  1.
         11    1    4    4    0    0 -0.29951570115E+02  0.14294281421E+03 -0.15055493591E+03  0.20975350632E+03  0.00000000000E+00 0. -1.
        -12    1    4    4    0    0 -0.48854755855E+02  0.48686427574E+02 -0.27055924486E+02  0.74088990068E+02  0.00000000000E+00 0.  1.
</event>
<event>
12    1  0.8493057E-002  0.2701888E+03  0.7818608E-02  0.1101353E+00
         21   -1    0    0  501  502  0.00000000000E+00  0.00000000000E+00  0.15711490298E+03  0.15711490298E+03  0.00000000000E+00 0.  1.
         21   -1    0    0  502  503 -0.00000000000E+00 -0.00000000000E+00 -0.47891018607E+03  0.47891018607E+03  0.00000000000E+00 0.  1.
         -6    2    1    2    0  503 -0.28454190567E+02 -0.20515321500E+03 -0.22018748690E+03  0.34854632954E+03  0.17350657584E+03 0.  0.
        -24    2    3    3    0    0 -0.65315099161E+02 -0.16638133330E+03 -0.22011784167E+03  0.29484269611E+03  0.80817949599E+02 0.  0.
          6    2    1    2  501    0  0.28454190567E+02  0.20515321500E+03 -0.10160779619E+03  0.28747875951E+03  0.17152961941E+03 0.  0.
         24    2    5    5    0    0  0.80239774166E+02  0.98082631333E+02 -0.49787705496E+02  0.15765862103E+03  0.79490887768E+02 0.  0.
          5    1    5    5  501    0 -0.51785583598E+02  0.10707058367E+03 -0.51820090696E+02  0.12982013848E+03  0.47000000000E+01 0. -1.
        -13    1    6    6    0    0 -0.15817859029E+02  0.12053666232E+02 -0.14256431980E+01  0.19938104033E+02  0.00000000000E+00 0.  1.
         14    1    6    6    0    0  0.96057633195E+02  0.86028965100E+02 -0.48362062298E+02  0.13772051699E+03  0.00000000000E+00 0. -1.
         -5    1    3    3    0  503  0.36860908593E+02 -0.38771881698E+02 -0.69645228409E-01  0.53703633426E+02  0.47000000000E+01 0.  1.
         11    1    4    4    0    0 -0.26348109198E+02 -0.13831081376E+02 -0.82562503204E+01  0.30881828633E+02  0.00000000000E+00 0. -1.
        -12    1    4    4    0    0 -0.38966989962E+02 -0.15255025193E+03 -0.21186159135E+03  0.26396086748E+03  0.00000000000E+00 0.  1.
</event>
<event>
12    1  0.8493057E-002  0.1975589E+03  0.7818608E-02  0.1152463E+00
         21   -1    0    0  503  502  0.00000000000E+00  0.00000000000E+00  0.65733444553E+03  0.65733444553E+03  0.00000000000E+00 0.  1.
         21   -1    0    0  501  503 -0.00000000000E+00 -0.00000000000E+00 -0.68313669478E+02  0.68313669478E+02  0.00000000000E+00 0.  1.
          6    2    1    2  501    0  0.19565794135E+02 -0.93052814722E+02  0.43025226128E+03  0.47219796682E+03  0.16974175946E+03 0.  0.
         24    2    3    3    0    0  0.18821446583E+02 -0.12820475512E+03  0.38820290080E+03  0.41718477128E+03  0.80937847184E+02 0.  0.
         -6    2    1    2    0  502 -0.19565794135E+02  0.93052814722E+02  0.15876851477E+03  0.25345014819E+03  0.17317011782E+03 0.  0.
        -24    2    5    5    0    0  0.49010876602E+02  0.68467861049E+02  0.13442256082E+03  0.17649564741E+03  0.77403970665E+02 0.  0.
          5    1    3    3  501    0  0.74434755236E+00  0.35151940402E+02  0.42049360477E+02  0.55013195543E+02  0.47000000000E+01 0. -1.
        -11    1    4    4    0    0 -0.14875841008E+02 -0.28536501987E+02  0.19080002742E+03  0.19349489154E+03  0.00000000000E+00 0.  1.
         12    1    4    4    0    0  0.33697287591E+02 -0.99668253137E+02  0.19740287338E+03  0.22368987973E+03  0.00000000000E+00 0. -1.
         -5    1    5    5    0  502 -0.68576670737E+02  0.24584953673E+02  0.24345953953E+02  0.76954500781E+02  0.47000000000E+01 0.  1.
         13    1    6    6    0    0  0.58992865670E+01  0.52449104766E+02  0.11507265114E+03  0.12659946767E+03  0.00000000000E+00 0. -1.
        -14    1    6    6    0    0  0.43111590035E+02  0.16018756283E+02  0.19349909678E+02  0.49896179741E+02  0.00000000000E+00 0.  1.
</event>
<event>
12    1  0.8493057E-002  0.1904971E+03  0.7818608E-02  0.1158596E+00
         21   -1    0    0  503  502  0.00000000000E+00  0.00000000000E+00  0.10328827740E+03  0.10328827740E+03  0.00000000000E+00 0.  1.
         21   -1    0    0  501  503 -0.00000000000E+00 -0.00000000000E+00 -0.34686644776E+03  0.34686644776E+03  0.00000000000E+00 0. -1.
          6    2    1    2  501    0  0.34966118335E+02 -0.72279635544E+02 -0.12872919034E+03  0.22991375051E+03  0.17274881500E+03 0.  0.
         24    2    3    3    0    0  0.54322702203E+02 -0.56485274786E+02 -0.13650026194E+02  0.11206026864E+03  0.78928058060E+02 0.  0.
         -6    2    1    2    0  502 -0.34966118335E+02  0.72279635544E+02 -0.11484898002E+03  0.22024097465E+03  0.16990827984E+03 0.  0.
        -24    2    5    5    0    0 -0.78937787809E+02  0.12788528924E+02 -0.84167443628E+02  0.14001537924E+03  0.78265107428E+02 0.  0.
          5    1    3    3  501    0 -0.19356583869E+02 -0.15794360758E+02 -0.11507916414E+03  0.11785348188E+03  0.47000000000E+01 0. -1.
        -11    1    4    4    0    0 -0.40639579081E+01 -0.50328679735E+02  0.42786120815E+01  0.50673447476E+02  0.00000000000E+00 0.  1.
         12    1    4    4    0    0  0.58386660111E+02 -0.61565950507E+01 -0.17928638276E+02  0.61386821159E+02  0.00000000000E+00 0. -1.
         -5    1    5    5    0  502  0.43971669474E+02  0.59491106620E+02 -0.30681536391E+02  0.80225595407E+02  0.47000000000E+01 0.  1.
         13    1    6    6    0    0 -0.44931697271E+02 -0.30836052872E+02 -0.55234616297E+02  0.77592412089E+02  0.00000000000E+00 0. -1.
        -14    1    6    6    0    0 -0.34006090538E+02  0.43624581796E+02 -0.28932827332E+02  0.62422967151E+02  0.00000000000E+00 0.  1.
</event>
<event>
12    1  0.8493057E-002  0.2090448E+03  0.7818608E-02  0.1142408E+00
         21   -1    0    0  501  502  0.00000000000E+00  0.00000000000E+00  0.20021336949E+03  0.20021336949E+03  0.00000000000E+00 0. -1.
         21   -1    0    0  502  503 -0.00000000000E+00 -0.00000000000E+00 -0.23625692371E+03  0.23625692371E+03  0.00000000000E+00 0.  1.
         -6    2    1    2    0  503  0.11776771023E+03 -0.96004831489E+01 -0.78988416060E+02  0.22347011692E+03  0.17244802241E+03 0.  0.
        -24    2    3    3    0    0  0.25567055604E+02  0.49582550971E+02 -0.14823110588E+02  0.96415527593E+02  0.77227751880E+02 0.  0.
          6    2    1    2  501    0 -0.11776771023E+03  0.96004831489E+01  0.42944861839E+02  0.21300017629E+03  0.17194013810E+03 0.  0.
         24    2    5    5    0    0  0.11499593301E+02  0.47475341525E+01  0.20599990939E+02  0.81642001312E+02  0.78014594949E+02 0.  0.
          5    1    5    5  501    0 -0.12926730353E+03  0.48529489964E+01  0.22344870900E+02  0.13135817497E+03  0.47000000000E+01 0. -1.
        -13    1    6    6    0    0  0.58948006277E+01 -0.36652569086E+02  0.11733552584E+02  0.38933735389E+02  0.00000000000E+00 0.  1.
         14    1    6    6    0    0  0.56047926732E+01  0.41400103239E+02  0.88664383544E+01  0.42708265924E+02  0.00000000000E+00 0. -1.
         -5    1    3    3    0  503  0.92200654628E+02 -0.59183034120E+02 -0.64165305473E+02  0.12705458932E+03  0.47000000000E+01 0.  1.
         11    1    4    4    0    0  0.12860573330E+02 -0.20029773403E+02 -0.88739013736E+01  0.25403391399E+02  0.00000000000E+00 0. -1.
        -12    1    4    4    0    0  0.12706482275E+02  0.69612324375E+02 -0.59492092142E+01  0.71012136194E+02  0.00000000000E+00 0.  1.
</event>
<event>
12    1  0.8493057E-002  0.2496497E+03  0.7818608E-02  0.1113762E+00
         21   -1    0    0  501  502  0.00000000000E+00  0.00000000000E+00  0.79810155891E+03  0.79810155891E+03  0.00000000000E+00 0. -1.
         21   -1    0    0  502  503 -0.00000000000E+00 -0.00000000000E+00 -0.13522496450E+03  0.13522496450E+03  0.00000000000E+00 0. -1.
         -6    2    1    2    0  503  0.14978261397E+03  0.99149457236E+02  0.26306986262E+02  0.24955327765E+03  0.17122889517E+03 0.  0.
        -24    2    3    3    0    0  0.15838536910E+03  0.10230963884E+03 -0.22467141800E+02  0.19970350622E+03  0.61834703766E+02 0.  0.
          6    2    1    2  501    0 -0.14978261397E+03 -0.99149457236E+02  0.63656960814E+03  0.68377324576E+03  0.17337687068E+03 0.  0.
         24    2    5    5    0    0 -0.72848588256E+02 -0.98472816036E+02  0.25866882656E+03  0.29809152092E+03  0.83337750747E+02 0.  0.
          5    1    5    5  501    0 -0.76934025712E+02 -0.67664119995E+00  0.37790078158E+03  0.38568172484E+03  0.47000000000E+01 0. -1.
        -11    1    6    6    0    0 -0.51593707042E+02 -0.27725601372E+02  0.50958455900E+02  0.77636227404E+02  0.00000000000E+00 0.  1.
         12    1    6    6    0    0 -0.21254881214E+02 -0.70747214664E+02  0.20771037066E+03  0.22045529351E+03  0.00000000000E+00 0. -1.
         -5    1    3    3    0  503 -0.86027551282E+01 -0.31601816076E+01  0.48774128062E+02  0.49849771432E+02  0.47000000000E+01 0.  1.
         13    1    4    4    0    0  0.13969398045E+03  0.73546703537E+02  0.14628556339E+01  0.15787864239E+03  0.00000000000E+00 0. -1.
        -14    1    4    4    0    0  0.18691388643E+02  0.28762935307E+02 -0.23929997434E+02  0.41824863826E+02  0.00000000000E+00 0.  1.
</event>
<event>
12    1  0.8493057E-002  0.1788756E+03  0.7818608E-02  0.1168943E+00
         21   -1    0    0  503  502  0.00000000000E+00  0.00000000000E+00  0.44038592519E+03  0.44038592519E+03  0.00000000000E+00 0. -1.
         21   -1    0    0  501  503 -0.00000000000E+00 -0.00000000000E+00 -0.74819488938E+02  0.74819488938E+02  0.00000000000E+00 0.  1.
          6    2    1    2  501    0  0.48034332339E+02  0.10204157718E+02  0.13808352972E+03  0.22581821298E+03  0.17180041390E+03 0.  0.
         24    2    3    3    0    0  0.27612238759E+01 -0.55024655975E+02  0.94192640162E+02  0.13497244989E+03  0.79435329962E+02 0.  0.
         -6    2    1    2    0  502 -0.48034332339E+02 -0.10204157718E+02  0.22748290654E+03  0.28938720115E+03  0.17200307412E+03 0.  0.
        -24    2    5    5    0    0  0.26730256253E+02 -0.15269286150E-01  0.18351520028E+03  0.20192974665E+03  0.79895475556E+02 0.  0.
          5    1    3    3  501    0  0.45273108464E+02  0.65228813693E+02  0.43890889558E+02  0.90845763093E+02  0.47000000000E+01 0. -1.
        -11    1    4    4    0    0  0.12558289030E+02 -0.22272180540E+02 -0.83370056974E+01  0.26893611014E+02  0.00000000000E+00 0.  1.
         12    1    4    4    0    0 -0.97970651537E+01 -0.32752475434E+02  0.10252964586E+03  0.10807883888E+03  0.00000000000E+00 0. -1.
         -5    1    5    5    0  502 -0.74764588593E+02 -0.10188888432E+02  0.43967706257E+02  0.87457454504E+02  0.47000000000E+01 0.  1.
         11    1    6    6    0    0 -0.26482337264E+02 -0.12938869511E+02  0.62422256465E+02  0.69030910710E+02  0.00000000000E+00 0. -1.
        -12    1    6    6    0    0  0.53212593517E+02  0.12923600224E+02  0.12109294381E+03  0.13289883594E+03  0.00000000000E+00 0.  1.
</event>
<event>
12    1  0.8493057E-002  0.1937474E+03  0.7818608E-02  0.1155158E+00
         21   -1    0    0  501  502  0.00000000000E+00  0.00000000000E+00  0.43478941534E+03  0.43478941534E+03  0.00000000000E+00 0. -1.
         21   -1    0    0  502  503 -0.00000000000E+00 -0.00000000000E+00 -0.93345023057E+02  0.93345023057E+02  0.00000000000E+00 0. -1.
         -6    2    1    2    0  503 -0.42515685220E+02 -0.78510413469E+02  0.97942123972E+02  0.21695695745E+03  0.17177366861E+03 0.  0.
        -24    2    3    3    0    0 -0.69147624874E+02 -0.55529405390E+02  0.67000399790E+01  0.11905601347E+03  0.79148815013E+02 0.  0.
          6    2    1    2  501    0  0.42515685220E+02  0.78510413469E+02  0.24350226831E+03  0.31117748095E+03  0.17194941542E+03 0.  0.
         24    2    5    5    0    0  0.62146121937E+01  0.10809484413E+03  0.12406895107E+03  0.18280531220E+03  0.79382370944E+02 0.  0.
          5    1    5    5  501    0  0.36301073026E+02 -0.29584430665E+02  0.11943331724E+03  0.12837216874E+03  0.47000000000E+01 0. -1.
        -13    1    6    6    0    0 -0.73894603719E+01 -0.98510197377E+01  0.19213176037E+01  0.12463473665E+02  0.00000000000E+00 0.  1.
         14    1    6    6    0    0  0.13604072566E+02  0.11794586387E+03  0.12214763347E+03  0.17034183854E+03  0.00000000000E+00 0. -1.
         -5    1    3    3    0  503  0.26631939655E+02 -0.22981008078E+02  0.91242083993E+02  0.97900943987E+02  0.47000000000E+01 0.  1.
         11    1    4    4    0    0 -0.45118235351E+02 -0.44567423675E+02  0.41185457055E+02  0.75618465252E+02  0.00000000000E+00 0. -1.
        -12    1    4    4    0    0 -0.24029389523E+02 -0.10961981716E+02 -0.34485417076E+02  0.43437548215E+02  0.00000000000E+00 0.  1.
</event>
<event>
12    1  0.8493057E-002  0.2553217E+03  0.7818608E-02  0.1110029E+00
         21   -1    0    0  501  502  0.00000000000E+00  0.00000000000E+00  0.13466170663E+03  0.13466170663E+03  0.00000000000E+00 0.  1.
         21   -1    0    0  502  503 -0.00000000000E+00 -0.00000000000E+00 -0.62021928170E+03  0.62021928170E+03  0.00000000000E+00 0. -1.
         -6    2    1    2    0  503 -0.42690705185E+02  0.18144634642E+03 -0.41983667957E+03  0.49123655529E+03  0.17408401076E+03 0.  0.
        -24    2    3    3    0    0 -0.52000245535E+02  0.39229496968E+02 -0.15988593191E+03  0.19474240524E+03  0.90100578275E+02 0.  0.
          6    2    1    2  501    0  0.42690705185E+02 -0.18144634642E+03 -0.65720895500E+02  0.26364443305E+03  0.17448174126E+03 0.  0.
         24    2    5    5    0    0  0.83178621520E+02 -0.17512681582E+03 -0.35573680674E+02  0.21255478245E+03  0.79535929537E+02 0.  0.
          5    1    5    5  501    0 -0.40487916335E+02 -0.63195305940E+01 -0.30147214827E+02  0.51089650594E+02  0.47000000000E+01 0. -1.
        -11    1    6    6    0    0  0.53369061194E+02 -0.10268878613E+03 -0.60190486994E+02  0.13044592065E+03  0.00000000000E+00 0.  1.
         12    1    6    6    0    0  0.29809560326E+02 -0.72438029692E+02  0.24616806321E+02  0.82108861799E+02  0.00000000000E+00 0. -1.
         -5    1    3    3    0  503  0.93095403500E+01  0.14221684945E+03 -0.25995074766E+03  0.29649415005E+03  0.47000000000E+01 0.  1.
         11    1    4    4    0    0 -0.12809354721E+02  0.35682091903E+02 -0.14923515403E+03  0.15397539560E+03  0.00000000000E+00 0. -1.
        -12    1    4    4    0    0 -0.39190890814E+02  0.35474050649E+01 -0.10650777884E+02  0.40767009640E+02  0.00000000000E+00 0.  1.
</event>
<event>
12    1  0.8493057E-002  0.1943633E+03  0.7818608E-02  0.1154969E+00
         21   -1    0    0  501  502  0.00000000000E+00  0.00000000000E+00  0.15991250644E+03  0.15991250644E+03  0.00000000000E+00 0.  1.
         21   -1    0    0  502  503 -0.00000000000E+00 -0.00000000000E+00 -0.24075158622E+03  0.24075158622E+03  0.00000000000E+00 0. -1.
         -6    2    1    2    0  503  0.40973701687E+02 -0.79439959174E+02 -0.69758281249E+01  0.19273894205E+03  0.17061678188E+03 0.  0.
        -24    2    3    3    0    0  0.40535389562E+02 -0.85832075115E+02 -0.60852838653E+02  0.13827910798E+03  0.80048615261E+02 0.  0.
          6    2    1    2  501    0 -0.40973701687E+02  0.79439959174E+02 -0.73863251657E+02  0.20792515061E+03  0.17259066303E+03 0.  0.
         24    2    5    5    0    0 -0.63919508789E+02  0.80968895353E+02  0.89144191850E+00  0.12957209118E+03  0.78399403866E+02 0.  0.
          5    1    5    5  501    0  0.22945807101E+02 -0.15289361796E+01 -0.74754693575E+02  0.78353059423E+02  0.47000000000E+01 0. -1.
        -11    1    6    6    0    0 -0.36861897597E+02  0.71122680033E+01  0.27499997966E+02  0.46536370064E+02  0.00000000000E+00 0.  1.
         12    1    6    6    0    0 -0.27057611192E+02  0.73856627350E+02 -0.26608556048E+02  0.83035721120E+02  0.00000000000E+00 0. -1.
         -5    1    3    3    0  503  0.43831212547E+00  0.63921159415E+01  0.53877010528E+02  0.54459834072E+02  0.47000000000E+01 0.  1.
         11    1    4    4    0    0 -0.88322664699E+00 -0.56451421465E+02 -0.66443590875E+02  0.87191133971E+02  0.00000000000E+00 0. -1.
        -12    1    4    4    0    0  0.41418616209E+02 -0.29380653650E+02  0.55907522225E+01  0.51087974005E+02  0.00000000000E+00 0.  1.
</event>
<event>
12    1  0.8493057E-002  0.1997777E+03  0.7818608E-02  0.1149988E+00
         21   -1    0    0  503  502  0.00000000000E+00  0.00000000000E+00  0.82006308872E+02  0.82006308872E+02  0.00000000000E+00 0.  1.
         21   -1    0    0  501  503 -0.00000000000E+00 -0.00000000000E+00 -0.90849856744E+03  0.90849856744E+03  0.00000000000E+00 0.  1.
          6    2    1    2  501    0  0.99249946134E+02 -0.19467858357E+02 -0.75114981468E+03  0.77726261841E+03  0.17228344250E+03 0.  0.
         24    2    3    3    0    0  0.13449573868E+03 -0.27355541634E+02 -0.58028716745E+03  0.60256111395E+03  0.86656043980E+02 0.  0.
         -6    2    1    2    0  502 -0.99249946134E+02  0.19467858357E+02 -0.75342443890E+02  0.21324225791E+03  0.17194832767E+03 0.  0.
        -24    2    5    5    0    0 -0.10606593280E+03 -0.10925201695E+02 -0.19773378841E+01  0.13340038573E+03  0.80139945815E+02 0.  0.
          5    1    3    3  501    0 -0.35245792550E+02  0.78876832765E+01 -0.17086264723E+03  0.17470150446E+03  0.47000000000E+01 0. -1.
        -11    1    4    4    0    0  0.59102189315E+02 -0.46004027672E+01 -0.41791608102E+03  0.42209961296E+03  0.00000000000E+00 0.  1.
         12    1    4    4    0    0  0.75393549369E+02 -0.22755138866E+02 -0.16237108643E+03  0.18046150099E+03  0.00000000000E+00 0. -1.
         -5    1    5    5    0  502  0.68159866646E+01  0.30393060052E+02 -0.73365106006E+02  0.79841872177E+02  0.47000000000E+01 0.  1.
         11    1    6    6    0    0  0.48687506692E+01 -0.19974927886E+02 -0.76896565176E+01  0.21950701457E+02  0.00000000000E+00 0. -1.
        -12    1    6    6    0    0 -0.11093468347E+03  0.90497261909E+01  0.57123186335E+01  0.11144968427E+03  0.00000000000E+00 0.  1.
</event>
<event>
12    1  0.8493057E-002  0.2753229E+03  0.7818608E-02  0.1098493E+00
         21   -1    0    0  501  502  0.00000000000E+00  0.00000000000E+00  0.31217775955E+03  0.31217775955E+03  0.00000000000E+00 0.  1.
         21   -1    0    0  502  503 -0.00000000000E+00 -0.00000000000E+00 -0.27997376202E+03  0.27997376202E+03  0.00000000000E+00 0.  1.
         -6    2    1    2    0  503 -0.20641941860E+03  0.54206302511E+02 -0.93724619855E+02  0.29083846328E+03  0.17394081679E+03 0.  0.
        -24    2    3    3    0    0 -0.46886212701E+02  0.15434851330E+02  0.13998247513E+02  0.94419585963E+02  0.79262574416E+02 0.  0.
          6    2    1    2  501    0  0.20641941860E+03 -0.54206302511E+02  0.12592861738E+03  0.30131305829E+03  0.17141832696E+03 0.  0.
         24    2    5    5    0    0  0.19642327125E+03 -0.27466739080E+01  0.13378766503E+03  0.24809773186E+03  0.71159676309E+02 0.  0.
          5    1    5    5  501    0  0.99961473490E+01 -0.51459628603E+02 -0.78590476527E+01  0.53215326437E+02  0.47000000000E+01 0. -1.
        -13    1    6    6    0    0  0.85978955868E+02 -0.61394357260E+01  0.10112021377E+03  0.13287351563E+03  0.00000000000E+00 0.  1.
         14    1    6    6    0    0  0.11044431538E+03  0.33927618181E+01  0.32667451258E+02  0.11522421623E+03  0.00000000000E+00 0. -1.
         -5    1    3    3    0  503 -0.15953320590E+03  0.38771451182E+02 -0.10772286737E+03  0.19641887731E+03  0.47000000000E+01 0.  1.
         13    1    4    4    0    0 -0.28262460193E+02 -0.15579327805E+02 -0.25298831447E+02  0.41006255421E+02  0.00000000000E+00 0. -1.
        -14    1    4    4    0    0 -0.18623752508E+02  0.31014179134E+02  0.39297078960E+02  0.53413330542E+02  0.00000000000E+00 0.  1.
</event>
<event>
12    1  0.8493057E-002  0.1903354E+03  0.7818608E-02  0.1158742E+00
         21   -1    0    0  503  502  0.00000000000E+00  0.00000000000E+00  0.53011742223E+02  0.53011742223E+02  0.00000000000E+00 0.  1.
         21   -1    0    0  501  503 -0.00000000000E+00 -0.00000000000E+00 -0.81994974574E+03  0.81994974574E+03  0.00000000000E+00 0.  1.
          6    2    1    2  501    0  0.70338066536E+02  0.21126031573E+02 -0.20158345425E+03  0.27724257889E+03  0.17559557428E+03 0.  0.
         24    2    3    3    0    0  0.58022721775E+02  0.80506863249E+02 -0.15910330866E+03  0.20305091051E+03  0.77896201195E+02 0.  0.
         -6    2    1    2    0  502 -0.70338066536E+02 -0.21126031573E+02 -0.56535454926E+03  0.59571890907E+03  0.17280480156E+03 0.  0.
        -24    2    5    5    0    0 -0.37099355482E+02  0.52305066276E+02 -0.37473300860E+03  0.38870296812E+03  0.80950525361E+02 0.  0.
          5    1    3    3  501    0  0.12315344761E+02 -0.59380831676E+02 -0.42480145597E+02  0.74191668381E+02  0.47000000000E+01 0. -1.
        -13    1    4    4    0    0  0.31136282206E+02  0.75165678702E+02 -0.62388433302E+02  0.10252640603E+03  0.00000000000E+00 0.  1.
         14    1    4    4    0    0  0.26886439569E+02  0.53411845468E+01 -0.96714875354E+02  0.10052450447E+03  0.00000000000E+00 0. -1.
         -5    1    5    5    0  502 -0.33238711054E+02 -0.73431097848E+02 -0.19062154066E+03  0.20701594095E+03  0.47000000000E+01 0.  1.
         13    1    6    6    0    0 -0.54657251134E+02  0.16808596342E+02 -0.15045341662E+03  0.16095395175E+03  0.00000000000E+00 0. -1.
        -14    1    6    6    0    0  0.17557895652E+02  0.35496469934E+02 -0.22427959198E+03  0.22774901637E+03  0.00000000000E+00 0.  1.
</event>
<event>
12    1  0.8493057E-002  0.2129777E+03  0.7818608E-02  0.1139393E+00
         21   -1    0    0  503  502  0.00000000000E+00  0.00000000000E+00  0.88047256939E+02  0.88047256939E+02  0.00000000000E+00 0. -1.
         21   -1    0    0  501  503 -0.00000000000E+00 -0.00000000000E+00 -0.60635584837E+03  0.60635584837E+03  0.00000000000E+00 0. -1.
          6    2    1    2  501    0 -0.11986010868E+03  0.33896034719E+02 -0.39572161711E+03  0.44939414044E+03  0.17275447431E+03 0.  0.
         24    2    3    3    0    0 -0.81263949706E+02 -0.24781022461E+02 -0.34089958390E+03  0.36017415472E+03  0.79340827007E+02 0.  0.
         -6    2    1    2    0  502  0.11986010868E+03 -0.33896034719E+02 -0.12258697432E+03  0.24500896487E+03  0.17171616048E+03 0.  0.
        -24    2    5    5    0    0  0.84950258575E+02 -0.61623182950E+02 -0.19642162277E+02  0.13272710208E+03  0.78846090447E+02 0.  0.
          5    1    3    3  501    0 -0.38596158978E+02  0.58677057179E+02 -0.54822033210E+02  0.89219985723E+02  0.47000000000E+01 0. -1.
        -11    1    4    4    0    0  0.24439601415E+00 -0.21854500376E+02 -0.22004118056E+02  0.31013869922E+02  0.00000000000E+00 0.  1.
         12    1    4    4    0    0 -0.81508345720E+02 -0.29265220842E+01 -0.31889546584E+03  0.32916028480E+03  0.00000000000E+00 0. -1.
         -5    1    5    5    0  502  0.34909850110E+02  0.27727148232E+02 -0.10294481205E+03  0.11228186279E+03  0.47000000000E+01 0.  1.
         11    1    6    6    0    0  0.39477752777E+02  0.80112451567E+01  0.14517170489E+02  0.42818468588E+02  0.00000000000E+00 0. -1.
        -12    1    6    6    0    0  0.45472505798E+02 -0.69634428107E+02 -0.34159332766E+02  0.89908633492E+02  0.00000000000E+00 0.  1.
</event>
<event>
12    1  0.8493057E-002  0.1798116E+03  0.7818608E-02  0.1168071E+00
         21   -1    0    0  503  502  0.00000000000E+00  0.00000000000E+00  0.10001976848E+03  0.10001976848E+03  0.00000000000E+00 0. -1.
         21   -1    0    0  501  503 -0.00000000000E+00 -0.00000000000E+00 -0.32263826626E+03  0.32263826626E+03  0.00000000000E+00 0. -1.
          6    2    1    2  501    0  0.29677095788E+02 -0.38726318978E+02 -0.10993145161E+03  0.21075370688E+03  0.17306571907E+03 0.  0.
         24    2    3    3    0    0 -0.34777944570E+01 -0.17128311631E+02  0.11783107314E+02  0.82682459047E+02  0.79950442791E+02 0.  0.
         -6    2    1    2    0  502 -0.29677095788E+02  0.38726318978E+02 -0.11268704618E+03  0.21190432786E+03  0.17269804861E+03 0.  0.
        -24    2    5    5    0    0 -0.65602478213E+02  0.82419076906E+01 -0.12656890998E+03  0.16256135899E+03  0.77684569082E+02 0.  0.
          5    1    3    3  501    0  0.33154890245E+02 -0.21598007347E+02 -0.12171455892E+03  0.12807124784E+03  0.47000000000E+01 0. -1.
        -11    1    4    4    0    0 -0.33989265845E+02 -0.30252452391E+02 -0.44385171654E+01  0.45718502851E+02  0.00000000000E+00 0.  1.
         12    1    4    4    0    0  0.30511471387E+02  0.13124140760E+02  0.16221624479E+02  0.36963956196E+02  0.00000000000E+00 0. -1.
         -5    1    5    5    0  502  0.35925382425E+02  0.30484411287E+02  0.13881863806E+02  0.49342968867E+02  0.47000000000E+01 0.  1.
         11    1    6    6    0    0 -0.29597990010E+02  0.42678743812E+02 -0.58876325631E+02  0.78510750256E+02  0.00000000000E+00 0. -1.
        -12    1    6    6    0    0 -0.36004488203E+02 -0.34436836121E+02 -0.67692584351E+02  0.84050608736E+02  0.00000000000E+00 0.  1.
</event>
<event>
12    1  0.8493057E-002  0.2095450E+03  0.7818608E-02  0.1142435E+00
         21   -1    0    0  503  502  0.00000000000E+00  0.00000000000E+00  0.54215992723E+03  0.54215992723E+03  0.00000000000E+00 0. -1.
         21   -1    0    0  501  503 -0.00000000000E+00 -0.00000000000E+00 -0.12602006379E+03  0.12602006379E+03  0.00000000000E+00 0.  1.
          6    2    1    2  501    0  0.11607362795E+03 -0.84136741757E+01  0.53952713098E+01  0.20707235996E+03  0.17118988372E+03 0.  0.
         24    2    3    3    0    0  0.16049553728E+02  0.42006850030E+02  0.19874649694E+02  0.94029062579E+02  0.80151726648E+02 0.  0.
         -6    2    1    2    0  502 -0.11607362795E+03  0.84136741757E+01  0.41074459213E+03  0.46110763105E+03  0.17425627803E+03 0.  0.
        -24    2    5    5    0    0 -0.81678120650E+02 -0.51702272388E+02  0.33922725360E+03  0.36143919240E+03  0.78858860326E+02 0.  0.
          5    1    3    3  501    0  0.10002407422E+03 -0.50420524205E+02 -0.14479378384E+02  0.11304329739E+03  0.47000000000E+01 0. -1.
        -13    1    4    4    0    0  0.31940737987E+02  0.17893816973E+02 -0.22334559523E+02  0.42886267944E+02  0.00000000000E+00 0.  1.
         14    1    4    4    0    0 -0.15891184259E+02  0.24113033056E+02  0.42209209217E+02  0.51142794635E+02  0.00000000000E+00 0. -1.
         -5    1    5    5    0  502 -0.34395507301E+02  0.60115946564E+02  0.71517338531E+02  0.99668438657E+02  0.47000000000E+01 0.  1.
         13    1    6    6    0    0  0.25496675997E-01 -0.37655791444E+02  0.66861542722E+02  0.76736074792E+02  0.00000000000E+00 0. -1.
        -14    1    6    6    0    0 -0.81703617326E+02 -0.14046480944E+02  0.27236571088E+03  0.28470311760E+03  0.00000000000E+00 0.  1.
</event>
<event>
12    1  0.8493057E-002  0.2046063E+03  0.7818608E-02  0.1146058E+00
         21   -1    0    0  503  502  0.00000000000E+00  0.00000000000E+00  0.31799021687E+03  0.31799021687E+03  0.00000000000E+00 0. -1.
         21   -1    0    0  501  503 -0.00000000000E+00 -0.00000000000E+00 -0.17773388922E+03  0.17773388922E+03  0.00000000000E+00 0. -1.
          6    2    1    2  501    0  0.98447157987E+02 -0.49718161500E+02 -0.56623178426E+02  0.21229680150E+03  0.17233690577E+03 0.  0.
         24    2    3    3    0    0  0.37815235405E+02  0.38059487446E+02 -0.37164585654E+02  0.10375246713E+03  0.80652658947E+02 0.  0.
         -6    2    1    2    0  502 -0.98447157987E+02  0.49718161500E+02  0.19687950608E+03  0.28342730460E+03  0.17148107354E+03 0.  0.
        -24    2    5    5    0    0 -0.10036675632E+03  0.85465356126E+02  0.19586256830E+03  0.24730707559E+03  0.73626293561E+02 0.  0.
          5    1    3    3  501    0  0.60631922583E+02 -0.87777648946E+02 -0.19458592773E+02  0.10854433437E+03  0.47000000000E+01 0. -1.
        -13    1    4    4    0    0  0.29897675171E+02  0.24175666192E+02  0.20737516763E+02  0.43684990763E+02  0.00000000000E+00 0.  1.
         14    1    4    4    0    0  0.79175602335E+01  0.13883821254E+02 -0.57902102417E+02  0.60067476366E+02  0.00000000000E+00 0. -1.
         -5    1    5    5    0  502  0.19195983338E+01 -0.35747194625E+02  0.10169377749E+01  0.36120229011E+02  0.47000000000E+01 0.  1.
         13    1    6    6    0    0 -0.67190604240E+02  0.21812325868E+02  0.56170985080E+02  0.90252614492E+02  0.00000000000E+00 0. -1.
        -14    1    6    6    0    0 -0.33176152081E+02  0.63653030258E+02  0.13969158322E+03  0.15705446110E+03  0.00000000000E+00 0.  1.
</event>
<event>
12    1  0.8493057E-002  0.1740189E+03  0.7818608E-02  0.1173910E+00
         21   -1    0    0  501  502  0.00000000000E+00  0.00000000000E+00  0.10589296132E+03  0.10589296132E+03  0.00000000000E+00 0. -1.
         21   -1    0    0  502  503 -0.00000000000E+00 -0.00000000000E+00 -0.92375693288E+03  0.92375693288E+03  0.00000000000E+00 0. -1.
         -6    2    1    2    0  503 -0.75575260229E+01 -0.21388449183E+02 -0.83739222539E+03  0.85528259137E+03  0.17253402564E+03 0.  0.
        -24    2    3    3    0    0  0.18879830389E+02  0.20676119612E+01 -0.21326098091E+03  0.23013379232E+03  0.84383608451E+02 0.  0.
          6    2    1    2  501    0  0.75575260229E+01  0.21388449183E+02  0.19528253833E+02  0.17436730282E+03  0.17177899068E+03 0.  0.
         24    2    5    5    0    0 -0.63384898106E+02  0.10315545363E+02  0.97393887096E+01  0.10174947704E+03  0.78320141740E+02 0.  0.
          5    1    5    5  501    0  0.70942424129E+02  0.11072903821E+02  0.97888651239E+01  0.72617825778E+02  0.47000000000E+01 0. -1.
        -13    1    6    6    0    0 -0.32765317000E+02 -0.23239828596E+02 -0.22503150676E+02  0.46043972696E+02  0.00000000000E+00 0.  1.
         14    1    6    6    0    0 -0.30619581106E+02  0.33555373959E+02  0.32242539385E+02  0.55705504348E+02  0.00000000000E+00 0. -1.
         -5    1    3    3    0  503 -0.26437356412E+02 -0.23456061144E+02 -0.62413124448E+03  0.62514879905E+03  0.47000000000E+01 0.  1.
         13    1    4    4    0    0  0.27980028461E+02 -0.36976039671E+02 -0.11764097361E+03  0.12644962703E+03  0.00000000000E+00 0. -1.
        -14    1    4    4    0    0 -0.91001980721E+01  0.39043651632E+02 -0.95620007297E+02  0.10368416530E+03  0.00000000000E+00 0.  1.
</event>
<event>
12    1  0.8493057E-002  0.2495612E+03  0.7818608E-02  0.1113865E+00
         21   -1    0    0  501  502  0.00000000000E+00  0.00000000000E+00  0.51738138900E+03  0.51738138900E+03  0.00000000000E+00 0.  1.
         21   -1    0    0  502  503 -0.00000000000E+00 -0.00000000000E+00 -0.26126677085E+03  0.26126677085E+03  0.00000000000E+00 0. -1.
         -6    2    1    2    0  503  0.13905176671E+03  0.11173823429E+03 -0.15891632312E+03  0.29436367822E+03  0.17197310975E+03 0.  0.
        -24    2    3    3    0    0  0.14183365966E+03  0.14281442053E+03 -0.12904201274E+03  0.25091217997E+03  0.76107393093E+02 0.  0.
          6    2    1    2  501    0 -0.13905176671E+03 -0.11173823429E+03  0.41503094126E+03  0.48428448163E+03  0.17452779182E+03 0.  0.
         24    2    5    5    0    0 -0.14724237748E+03 -0.67748689066E+02  0.22335901901E+03  0.28740283705E+03  0.80255447011E+02 0.  0.
          5    1    5    5  501    0  0.81906107767E+01 -0.43989545227E+02  0.19167192224E+03  0.19688164457E+03  0.47000000000E+01 0. -1.
        -13    1    6    6    0    0 -0.11646035694E+03 -0.70743062796E+02  0.21635966944E+03  0.25569337542E+03  0.00000000000E+00 0.  1.
         14    1    6    6    0    0 -0.30782020541E+02  0.29943737299E+01  0.69993495708E+01  0.31709461633E+02  0.00000000000E+00 0. -1.
         -5    1    3    3    0  503 -0.27818929552E+01 -0.31076186238E+02 -0.29874310376E+02  0.43451498247E+02  0.47000000000E+01 0.  1.
         13    1    4    4    0    0  0.73048286059E+02  0.12383888553E+03 -0.83599471446E+02  0.16631594419E+03  0.00000000000E+00 0. -1.
        -14    1    4    4    0    0  0.68785373602E+02  0.18975535004E+02 -0.45442541294E+02  0.84596235789E+02  0.00000000000E+00 0.  1.
</event>
<event>
12    1  0.8493057E-002  0.3357593E+03  0.7818608E-02  0.1068798E+00
         21   -1    0    0  501  502  0.00000000000E+00  0.00000000000E+00  0.21764207477E+03  0.21764207477E+03  0.00000000000E+00 0. -1.
         21   -1    0    0  502  503 -0.00000000000E+00 -0.00000000000E+00 -0.54618289856E+03  0.54618289856E+03  0.00000000000E+00 0.  1.
         -6    2    1    2    0  503  0.28783480886E+03  0.88127516476E+01 -0.25531411230E+03  0.42180520085E+03  0.17264932592E+03 0.  0.
        -24    2    3    3    0    0  0.11351987262E+03  0.59290502981E+02 -0.84100859273E+02  0.17226608891E+03  0.78743416450E+02 0.  0.
          6    2    1    2  501    0 -0.28783480886E+03 -0.88127516476E+01 -0.73226711487E+02  0.34201977248E+03  0.16937777808E+03 0.  0.
         24    2    5    5    0    0 -0.58318550286E+02 -0.29775315424E+02 -0.89486864252E+01  0.10270638686E+03  0.78618701319E+02 0.  0.
          5    1    5    5  501    0 -0.22951625858E+03  0.20962563777E+02 -0.64278025062E+02  0.23931338562E+03  0.47000000000E+01 0. -1.
        -13    1    6    6    0    0 -0.28583301759E+02  0.24038277313E+02  0.94602422488E+01  0.38527134581E+02  0.00000000000E+00 0.  1.
         14    1    6    6    0    0 -0.29735248527E+02 -0.53813592737E+02 -0.18408928674E+02  0.64179252280E+02  0.00000000000E+00 0. -1.
         -5    1    3    3    0  503  0.17431493624E+03 -0.50477751333E+02 -0.17121325303E+03  0.24953911195E+03  0.47000000000E+01 0.  1.
         13    1    4    4    0    0  0.30125393743E+01  0.37307627166E+02 -0.16825744597E+02  0.41037057880E+02  0.00000000000E+00 0. -1.
        -14    1    4    4    0    0  0.11050733324E+03  0.21982875815E+02 -0.67275114676E+02  0.13122903103E+03  0.00000000000E+00 0.  1.
</event>
<event>
12    1  0.8493057E-002  0.2193059E+03  0.7818608E-02  0.1134624E+00
         21   -1    0    0  503  502  0.00000000000E+00  0.00000000000E+00  0.64635292243E+02  0.64635292243E+02  0.00000000000E+00 0.  1.
         21   -1    0    0  501  503 -0.00000000000E+00 -0.00000000000E+00 -0.79496652031E+03  0.79496652031E+03  0.00000000000E+00 0. -1.
          6    2    1    2  501    0  0.16761806210E+02 -0.13434424506E+03 -0.47901694927E+03  0.52683235436E+03  0.17252755599E+03 0.  0.
         24    2    3    3    0    0 -0.29844710561E+02 -0.47909694048E+02 -0.35649456380E+03  0.36974344973E+03  0.80223432155E+02 0.  0.
         -6    2    1    2    0  502 -0.16761806210E+02  0.13434424506E+03 -0.25131427880E+03  0.33276945820E+03  0.17101845296E+03 0.  0.
        -24    2    5    5    0    0  0.10592162120E+02  0.16098718602E+03 -0.18655690844E+03  0.25744553835E+03  0.73794696064E+02 0.  0.
          5    1    3    3  501    0  0.46606516771E+02 -0.86434551016E+02 -0.12252238547E+03  0.15708890463E+03  0.47000000000E+01 0. -1.
        -13    1    4    4    0    0 -0.55393805380E+02 -0.44255401266E+02 -0.23158702781E+03  0.24219736924E+03  0.00000000000E+00 0.  1.
         14    1    4    4    0    0  0.25549094819E+02 -0.36542927820E+01 -0.12490753599E+03  0.12754608049E+03  0.00000000000E+00 0. -1.
         -5    1    5    5    0  502 -0.27353968329E+02 -0.26642940958E+02 -0.64757370352E+02  0.75323919848E+02  0.47000000000E+01 0.  1.
         11    1    6    6    0    0 -0.21713140467E+02  0.26166904995E+02 -0.15796327007E+02  0.37492550365E+02  0.00000000000E+00 0. -1.
        -12    1    6    6    0    0  0.32305302587E+02  0.13482028103E+03 -0.17076058144E+03  0.21995298799E+03  0.00000000000E+00 0.  1.
</event>
<event>
12    1  0.8493057E-002  0.1744434E+03  0.7818608E-02  0.1173420E+00
         21   -1    0    0  501  502  0.00000000000E+00  0.00000000000E+00  0.12664075113E+03  0.12664075113E+03  0.00000000000E+00 0.  1.
         21   -1    0    0  502  503 -0.00000000000E+00 -0.00000000000E+00 -0.36507178741E+03  0.36507178741E+03  0.00000000000E+00 0.  1.
         -6    2    1    2    0  503  0.25470131812E+02  0.81283016866E+01 -0.26346977826E+03  0.31598546975E+03  0.17238241248E+03 0.  0.
        -24    2    3    3    0    0  0.13075464305E+02  0.68553021544E+02 -0.20357271020E+03  0.22987784340E+03  0.80817634336E+02 0.  0.
          6    2    1    2  501    0 -0.25470131812E+02 -0.81283016866E+01  0.25038741977E+02  0.17572706880E+03  0.17186700441E+03 0.  0.
         24    2    5    5    0    0 -0.58482754288E+02 -0.56169449239E+02  0.26325068252E+01  0.11310187838E+03  0.78802698079E+02 0.  0.
          5    1    5    5  501    0  0.33012622477E+02  0.48041147552E+02  0.22406235152E+02  0.62625190416E+02  0.47000000000E+01 0. -1.
        -13    1    6    6    0    0 -0.57393895285E+02 -0.23793404060E+02  0.31546565652E+02  0.69680492946E+02  0.00000000000E+00 0.  1.
         14    1    6    6    0    0 -0.10888590035E+01 -0.32376045178E+02 -0.28914058827E+02  0.43421385436E+02  0.00000000000E+00 0. -1.
         -5    1    3    3    0  503  0.12394667506E+02 -0.60424719858E+02 -0.59897068056E+02  0.86107626342E+02  0.47000000000E+01 0.  1.
         13    1    4    4    0    0 -0.28865056523E+02  0.34591569912E+01 -0.63127845047E+02  0.69500230758E+02  0.00000000000E+00 0. -1.
        -14    1    4    4    0    0  0.41940520828E+02  0.65093864553E+02 -0.14044486516E+03  0.16037761265E+03  0.00000000000E+00 0.  1.
</event>
<event>
12    1  0.8493057E-002  0.1777457E+03  0.7818608E-02  0.1170339E+00
         21   -1    0    0  503  502  0.00000000000E+00  0.00000000000E+00  0.26446922210E+03  0.26446922210E+03  0.00000000000E+00 0. -1.
         21   -1    0    0  501  503 -0.00000000000E+00 -0.00000000000E+00 -0.22128088920E+03  0.22128088920E+03  0.00000000000E+00 0. -1.
          6    2    1    2  501    0  0.44917265019E+02 -0.54679759700E+01 -0.14385009579E+03  0.22866218074E+03  0.17188974194E+03 0.  0.
         24    2    3    3    0    0  0.52676586364E+02  0.57469663974E+02 -0.72844825632E+02  0.13334590731E+03  0.79982356476E+02 0.  0.
         -6    2    1    2    0  502 -0.44917265019E+02  0.54679759700E+01  0.18703842870E+03  0.25708793056E+03  0.17047982512E+03 0.  0.
        -24    2    5    5    0    0 -0.90637578739E+01  0.14970784658E+02  0.20688270231E+03  0.21475989561E+03  0.54909781885E+02 0.  0.
          5    1    3    3  501    0 -0.77593213454E+01 -0.62937639944E+02 -0.71005270160E+02  0.95316273427E+02  0.47000000000E+01 0. -1.
        -13    1    4    4    0    0  0.43819814852E+02  0.30030652034E+02  0.19784403011E+01  0.53159481387E+02  0.00000000000E+00 0.  1.
         14    1    4    4    0    0  0.88567715121E+01  0.27439011940E+02 -0.74823265933E+02  0.80186425926E+02  0.00000000000E+00 0. -1.
         -5    1    5    5    0  502 -0.35853507145E+02 -0.95028086880E+01 -0.19844273613E+02  0.42328034951E+02  0.47000000000E+01 0.  1.
         11    1    6    6    0    0 -0.30986652977E+02  0.41636179723E+01  0.14260119628E+03  0.14598838843E+03  0.00000000000E+00 0. -1.
        -12    1    6    6    0    0  0.21922895103E+02  0.10807166686E+02  0.64281506035E+02  0.68771507178E+02  0.00000000000E+00 0.  1.
</event>
<event>
12    1  0.8493057E-002  0.2128115E+03  0.7818608E-02  0.1139385E+00
         21   -1    0    0  501  502  0.00000000000E+00  0.00000000000E+00  0.23174555374E+03  0.23174555374E+03  0.00000000000E+00 0.  1.
         21   -1    0    0  502  503 -0.00000000000E+00 -0.00000000000E+00 -0.30628253338E+03  0.30628253338E+03  0.00000000000E+00 0. -1.
         -6    2    1    2    0  503 -0.11215797389E+03  0.51541631904E+02 -0.19921194635E+03  0.29150324527E+03  0.17335740972E+03 0.  0.
        -24    2    3    3    0    0 -0.24157805837E+02  0.55186244677E+02 -0.17269967800E+03  0.19940382533E+03  0.79420309681E+02 0.  0.
          6    2    1    2  501    0  0.11215797389E+03 -0.51541631904E+02  0.12467496672E+03  0.24652484185E+03  0.17318977855E+03 0.  0.
         24    2    5    5    0    0 -0.14671482060E+01  0.14174456553E+02  0.50932659755E+02  0.95895195061E+02  0.79991779975E+02 0.  0.
          5    1    5    5  501    0  0.11362512210E+03 -0.65716088458E+02  0.73742306963E+02  0.15062964678E+03  0.47000000000E+01 0. -1.
        -13    1    6    6    0    0  0.31122094346E+02  0.84206425366E+01  0.53754271970E+02  0.62681845316E+02  0.00000000000E+00 0.  1.
         14    1    6    6    0    0 -0.32589242552E+02  0.57538140169E+01 -0.28216122146E+01  0.33213349745E+02  0.00000000000E+00 0. -1.
         -5    1    3    3    0  503 -0.88000168056E+02 -0.36446127724E+01 -0.26512268352E+02  0.92099419940E+02  0.47000000000E+01 0.  1.
         13    1    4    4    0    0  0.72416791971E+01 -0.59982579504E+01 -0.95713368368E+02  0.96174164412E+02  0.00000000000E+00 0. -1.
        -14    1    4    4    0    0 -0.31399485034E+02  0.61184502627E+02 -0.76986309634E+02  0.10322966092E+03  0.00000000000E+00 0.  1.
</event>
<event>
12    1  0.8493057E-002  0.2881443E+03  0.7818608E-02  0.1091327E+00
         21   -1    0    0  501  502  0.00000000000E+00  0.00000000000E+00  0.14410324342E+03  0.14410324342E+03  0.00000000000E+00 0.  1.
         21   -1    0    0  502  503 -0.00000000000E+00 -0.00000000000E+00 -0.89679261717E+03  0.89679261717E+03  0.00000000000E+00 0. -1.
         -6    2    1    2    0  503 -0.30964277233E+02 -0.22885647071E+03 -0.68759059052E+03  0.74552529041E+03  0.17231676595E+03 0.  0.
        -24    2    3    3    0    0 -0.26911861172E+02 -0.29813229387E+02 -0.20402630091E+03  0.22256148079E+03  0.79333500806E+02 0.  0.
          6    2    1    2  501    0  0.30964277233E+02  0.22885647071E+03 -0.65098783235E+02  0.29537057017E+03  0.17225519294E+03 0.  0.
         24    2    5    5    0    0 -0.81285859914E+01  0.63634686550E+02 -0.73599336380E+02  0.12530928910E+03  0.78550037412E+02 0.  0.
          5    1    5    5  501    0  0.39092863224E+02  0.16522178416E+03  0.85005531449E+01  0.17006128107E+03  0.47000000000E+01 0. -1.
        -11    1    6    6    0    0 -0.26512261601E+02 -0.78155723763E+01 -0.20145029271E+02  0.34202417913E+02  0.00000000000E+00 0.  1.
         12    1    6    6    0    0  0.18383675610E+02  0.71450258926E+02 -0.53454307108E+02  0.91106871190E+02  0.00000000000E+00 0. -1.
         -5    1    3    3    0  503 -0.40524160610E+01 -0.19904324132E+03 -0.48356428960E+03  0.52296380962E+03  0.47000000000E+01 0.  1.
         11    1    4    4    0    0  0.15009927728E+02 -0.26577281659E+02 -0.15498964678E+03  0.15796658014E+03  0.00000000000E+00 0. -1.
        -12    1    4    4    0    0 -0.41921788900E+02 -0.32359477276E+01 -0.49036654131E+02  0.64594900655E+02  0.00000000000E+00 0.  1.
</event>
<event>
12    1  0.8493057E-002  0.1832026E+03  0.7818608E-02  0.1165182E+00
         21   -1    0    0  501  502  0.00000000000E+00  0.00000000000E+00  0.37527283454E+03  0.37527283454E+03  0.00000000000E+00 0.  1.
         21   -1    0    0  502  503 -0.00000000000E+00 -0.00000000000E+00 -0.11147069852E+03  0.11147069852E+03  0.00000000000E+00 0.  1.
         -6    2    1    2    0  503 -0.44607612225E+01 -0.63994070812E+02  0.22029195418E+02  0.18452227462E+03  0.17160432655E+03 0.  0.
        -24    2    3    3    0    0  0.42844584343E+02 -0.41708010650E+02 -0.36362928035E+02  0.10599715585E+03  0.79611041654E+02 0.  0.
          6    2    1    2  501    0  0.44607612225E+01  0.63994070812E+02  0.24177294060E+03  0.30222125845E+03  0.16961248410E+03 0.  0.
         24    2    5    5    0    0 -0.55208675272E+02  0.56071174231E+02  0.19953759251E+03  0.22853863790E+03  0.78883989410E+02 0.  0.
          5    1    5    5  501    0  0.59669436495E+02  0.79228965812E+01  0.42235348091E+02  0.73682620544E+02  0.47000000000E+01 0. -1.
        -11    1    6    6    0    0 -0.57954688750E+02  0.73574018376E+02  0.17013795491E+03  0.19421329983E+03  0.00000000000E+00 0.  1.
         12    1    6    6    0    0  0.27460134771E+01 -0.17502844145E+02  0.29399637596E+02  0.34325338075E+02  0.00000000000E+00 0. -1.
         -5    1    3    3    0  503 -0.47305345565E+02 -0.22286060162E+02  0.58392123452E+02  0.78525118770E+02  0.47000000000E+01 0.  1.
         11    1    4    4    0    0  0.29863424836E+00 -0.42701126345E+02  0.91663808589E+01  0.43674911695E+02  0.00000000000E+00 0. -1.
        -12    1    4    4    0    0  0.42545950094E+02  0.99311569476E+00 -0.45529308894E+02  0.62322244155E+02  0.00000000000E+00 0.  1.
</event>
<event>
12    1  0.8493057E-002  0.1897864E+03  0.7818608E-02  0.1162423E+00
         21   -1    0    0  503  502  0.00000000000E+00  0.00000000000E+00  0.14860662893E+03  0.14860662893E+03  0.00000000000E+00 0.  1.
         21   -1    0    0  501  503 -0.00000000000E+00 -0.00000000000E+00 -0.22378683676E+03  0.22378683676E+03  0.00000000000E+00 0.  1.
          6    2    1    2  501    0 -0.15727309142E+02  0.78855474287E+02 -0.53535277033E+02  0.19719251051E+03  0.17191080896E+03 0.  0.
         24    2    3    3    0    0  0.38620198147E+02  0.56931392853E+02  0.15244848841E+02  0.10670984582E+03  0.80136649426E+02 0.  0.
         -6    2    1    2    0  502  0.15727309142E+02 -0.78855474287E+02 -0.21644930796E+02  0.17520095518E+03  0.15414712968E+03 0.  0.
        -24    2    5    5    0    0  0.29110869570E+01 -0.63276694632E+02 -0.70325881313E+02  0.12229652370E+03  0.77448664391E+02 0.  0.
          5    1    3    3  501    0 -0.54347507289E+02  0.21924081434E+02 -0.68780125874E+02  0.90482664696E+02  0.47000000000E+01 0. -1.
        -11    1    4    4    0    0  0.26240419549E+02  0.76800006360E+02  0.18021576465E+02  0.83135899667E+02  0.00000000000E+00 0.  1.
         12    1    4    4    0    0  0.12379778598E+02 -0.19868613507E+02 -0.27767276246E+01  0.23573946152E+02  0.00000000000E+00 0. -1.
         -5    1    5    5    0  502  0.12816222185E+02 -0.15578779655E+02  0.48680950518E+02  0.52904431477E+02  0.47000000000E+01 0.  1.
         13    1    6    6    0    0  0.11648438391E+02 -0.37110226243E+01  0.14063079775E+02  0.18634055346E+02  0.00000000000E+00 0. -1.
        -14    1    6    6    0    0 -0.87373514339E+01 -0.59565672008E+02 -0.84388961088E+02  0.10366246835E+03  0.00000000000E+00 0.  1.
</event>
<event>
12    1  0.8493057E-002  0.2141245E+03  0.7818608E-02  0.1139369E+00
         21   -1    0    0  501  502  0.00000000000E+00  0.00000000000E+00  0.61978196873E+03  0.61978196873E+03  0.00000000000E+00 0.  1.
         21   -1    0    0  502  503 -0.00000000000E+00 -0.00000000000E+00 -0.76215493207E+02  0.76215493207E+02  0.00000000000E+00 0.  1.
         -6    2    1    2    0  503 -0.65779514308E+02 -0.97748484769E+02  0.34874205293E+03  0.40650506154E+03  0.17246343031E+03 0.  0.
        -24    2    3    3    0    0 -0.66269399444E+02 -0.12854946817E+03  0.33243490102E+03  0.37133470798E+03  0.80373520888E+02 0.  0.
          6    2    1    2  501    0  0.65779514308E+02  0.97748484769E+02  0.19482442259E+03  0.28949240040E+03  0.17879480830E+03 0.  0.
         24    2    5    5    0    0 -0.28799728009E+02  0.17330822674E+02  0.10488006937E+03  0.13611603282E+03  0.79987272067E+02 0.  0.
          5    1    5    5  501    0  0.94579242317E+02  0.80417662095E+02  0.89944353220E+02  0.15337636757E+03  0.47000000000E+01 0. -1.
        -11    1    6    6    0    0  0.90071197977E+01  0.18822726149E+02  0.94647592409E+02  0.96920534333E+02  0.00000000000E+00 0.  1.
         12    1    6    6    0    0 -0.37806847807E+02 -0.14919034748E+01  0.10232476959E+02  0.39195498489E+02  0.00000000000E+00 0. -1.
         -5    1    3    3    0  503  0.48988513680E+00  0.30800983404E+02  0.16307151909E+02  0.35170353559E+02  0.47000000000E+01 0.  1.
         11    1    4    4    0    0 -0.43326854262E+02 -0.15899384012E+02  0.13734205547E+03  0.14488908486E+03  0.00000000000E+00 0. -1.
        -12    1    4    4    0    0 -0.22942545183E+02 -0.11265008416E+03  0.19509284556E+03  0.22644562312E+03  0.00000000000E+00 0.  1.
</event>
<event>
12    1  0.8493057E-002  0.2368208E+03  0.7818608E-02  0.1122709E+00
         21   -1    0    0  501  502  0.00000000000E+00  0.00000000000E+00  0.29727856537E+04  0.29727856537E+04  0.00000000000E+00 0. -1.
         21   -1    0    0  502  503 -0.00000000000E+00 -0.00000000000E+00 -0.20748052156E+02  0.20748052156E+02  0.00000000000E+00 0.  1.
         -6    2    1    2    0  503 -0.72581631164E+02  0.13640306967E+03  0.99665584136E+03  0.10244056558E+04  0.17947197829E+03 0.  0.
        -24    2    3    3    0    0 -0.60046584373E+01  0.12276290894E+03  0.85402063060E+03  0.86633782030E+03  0.77994830959E+02 0.  0.
          6    2    1    2  501    0  0.72581631164E+02 -0.13640306967E+03  0.19553817602E+04  0.19691280500E+04  0.17341729651E+03 0.  0.
         24    2    5    5    0    0  0.49527544790E+02 -0.28569534453E+01  0.93078455927E+03  0.93559644906E+03  0.80744534508E+02 0.  0.
          5    1    5    5  501    0  0.23054086374E+02 -0.13354611622E+03  0.10245972009E+04  0.10335316010E+04  0.47000000000E+01 0. -1.
        -13    1    6    6    0    0 -0.20869226977E+02 -0.59970950129E+01  0.13942326261E+03  0.14110398981E+03  0.00000000000E+00 0.  1.
         14    1    6    6    0    0  0.70396771767E+02  0.31401415676E+01  0.79136129666E+03  0.79449245926E+03  0.00000000000E+00 0. -1.
         -5    1    3    3    0  503 -0.66576972727E+02  0.13640160729E+02  0.14263521076E+03  0.15806783554E+03  0.47000000000E+01 0.  1.
         11    1    4    4    0    0 -0.24199470453E+02  0.25944330819E+02  0.40939339779E+03  0.41092782435E+03  0.00000000000E+00 0. -1.
        -12    1    4    4    0    0  0.18194812016E+02  0.96818578117E+02  0.44462723281E+03  0.45540999595E+03  0.00000000000E+00 0.  1.
</event>
<event>
12    1  0.8493057E-002  0.1738628E+03  0.7818608E-02  0.1173946E+00
         21   -1    0    0  501  502  0.00000000000E+00  0.00000000000E+00  0.16606463740E+03  0.16606463740E+03  0.00000000000E+00 0. -1.
         21   -1    0    0  502  503 -0.00000000000E+00 -0.00000000000E+00 -0.18189580152E+03  0.18189580152E+03  0.00000000000E+00 0. -1.
         -6    2    1    2    0  503 -0.14372955247E+02 -0.16990674096E+02 -0.29251851154E+01  0.17361931035E+03  0.17216225884E+03 0.  0.
        -24    2    3    3    0    0 -0.58759620957E+02  0.22691763957E+02 -0.33366865130E+02  0.10658455917E+03  0.79242105971E+02 0.  0.
          6    2    1    2  501    0  0.14372955247E+02  0.16990674096E+02 -0.12905979000E+02  0.17434112857E+03  0.17243259544E+03 0.  0.
         24    2    5    5    0    0  0.32692068997E+01  0.49235069026E+02  0.47111154421E+02  0.10515196370E+03  0.80016841122E+02 0.  0.
          5    1    5    5  501    0  0.11103748347E+02 -0.32244394930E+02 -0.60017133421E+02  0.69189164873E+02  0.47000000000E+01 0. -1.
        -11    1    6    6    0    0 -0.89366511318E+01 -0.15720402047E+01 -0.18898490314E+02  0.20963968613E+02  0.00000000000E+00 0.  1.
         12    1    6    6    0    0  0.12205858031E+02  0.50807109230E+02  0.66009644735E+02  0.84187995086E+02  0.00000000000E+00 0. -1.
         -5    1    3    3    0  503  0.44386665711E+02 -0.39682438053E+02  0.30441680014E+02  0.67034751173E+02  0.47000000000E+01 0.  1.
         13    1    4    4    0    0 -0.53841470968E+02  0.19135914439E+02  0.13999571801E+02  0.58830903682E+02  0.00000000000E+00 0. -1.
        -14    1    4    4    0    0 -0.49181499893E+01  0.35558495185E+01 -0.47366436931E+02  0.47753655490E+02  0.00000000000E+00 0.  1.
</event>
<event>
12    1  0.8493057E-002  0.1810913E+03  0.7818608E-02  0.1167108E+00
         21   -1    0    0  503  502  0.00000000000E+00  0.00000000000E+00  0.61118172525E+02  0.61118172525E+02  0.00000000000E+00 0.  1.
         21   -1    0    0  501  503 -0.00000000000E+00 -0.00000000000E+00 -0.56291980308E+03  0.56291980308E+03  0.00000000000E+00 0. -1.
          6    2    1    2  501    0  0.22148558329E+02  0.48728653957E+02 -0.32477228429E+03  0.37184823124E+03  0.17300008693E+03 0.  0.
         24    2    3    3    0    0  0.24638527637E+02 -0.16224297594E+02 -0.76802209075E+02  0.11545725233E+03  0.81003166113E+02 0.  0.
         -6    2    1    2    0  502 -0.22148558329E+02 -0.48728653957E+02 -0.17702934627E+03  0.25218974437E+03  0.17145039333E+03 0.  0.
        -24    2    5    5    0    0 -0.23535919529E+02 -0.83443054613E+02 -0.18160747959E+03  0.21683350463E+03  0.80739143016E+02 0.  0.
          5    1    3    3  501    0 -0.24899693083E+01  0.64952951551E+02 -0.24797007522E+03  0.25639097891E+03  0.47000000000E+01 0. -1.
        -13    1    4    4    0    0  0.53242515304E+02 -0.17756603829E+01 -0.55776243183E+02  0.77129162509E+02  0.00000000000E+00 0.  1.
         14    1    4    4    0    0 -0.28603987667E+02 -0.14448637211E+02 -0.21025965892E+02  0.38328089821E+02  0.00000000000E+00 0. -1.
         -5    1    5    5    0  502  0.13873611997E+01  0.34714400656E+02  0.45781333225E+01  0.35356239742E+02  0.47000000000E+01 0.  1.
         13    1    6    6    0    0  0.15674757562E+01  0.55820258959E+01 -0.76915138232E+02  0.77133355188E+02  0.00000000000E+00 0. -1.
        -14    1    6    6    0    0 -0.25103395285E+02 -0.89025080509E+02 -0.10469234136E+03  0.13970014944E+03  0.00000000000E+00 0.  1.
</event>
<event>
12    1  0.8493057E-002  0.1835754E+03  0.7818608E-02  0.1164580E+00
         21   -1    0    0  501  502  0.00000000000E+00  0.00000000000E+00  0.56852179323E+03  0.56852179323E+03  0.00000000000E+00 0. -1.
         21   -1    0    0  502  503 -0.00000000000E+00 -0.00000000000E+00 -0.81983871728E+02  0.81983871728E+02  0.00000000000E+00 0. -1.
         -6    2    1    2    0  503  0.57660554397E+02  0.26731575057E+02  0.71494251313E+02  0.19700596681E+03  0.17222254890E+03 0.  0.
        -24    2    3    3    0    0  0.54147715709E+02 -0.47836755911E+02  0.48602634274E+02  0.11878261895E+03  0.80788391335E+02 0.  0.
          6    2    1    2  501    0 -0.57660554397E+02 -0.26731575057E+02  0.41504367019E+03  0.45349969815E+03  0.17135171846E+03 0.  0.
         24    2    5    5    0    0 -0.31116349823E+02 -0.30591814492E+02  0.11832707239E+03  0.15553606672E+03  0.91027938846E+02 0.  0.
          5    1    5    5  501    0 -0.26544204575E+02  0.38602394352E+01  0.29671659780E+03  0.29796363143E+03  0.47000000000E+01 0. -1.
        -13    1    6    6    0    0  0.29592969102E+02 -0.36085958423E+01  0.60549643420E+02  0.67490926075E+02  0.00000000000E+00 0.  1.
         14    1    6    6    0    0 -0.60709318925E+02 -0.26983218649E+02  0.57777428972E+02  0.88045140647E+02  0.00000000000E+00 0. -1.
         -5    1    3    3    0  503  0.35128386882E+01  0.74568330968E+02  0.22891617040E+02  0.78223347855E+02  0.47000000000E+01 0.  1.
         11    1    4    4    0    0  0.22458254012E+02  0.90880501235E+01 -0.14373276958E+02  0.28170142328E+02  0.00000000000E+00 0. -1.
        -12    1    4    4    0    0  0.31689461698E+02 -0.56924806035E+02  0.62975911231E+02  0.90612476625E+02  0.00000000000E+00 0.  1.
</event>
<event>
12    1  0.8493057E-002  0.1779083E+03  0.7818608E-02  0.1173116E+00
         21   -1    0    0  501  502  0.00000000000E+00  0.00000000000E+00  0.18990569755E+02  0.18990569755E+02  0.00000000000E+00 0. -1.
         21   -1    0    0  502  503 -0.00000000000E+00 -0.00000000000E+00 -0.16021175485E+04  0.16021175485E+04  0.00000000000E+00 0. -1.
         -6    2    1    2    0  503 -0.31963622861E+02 -0.97536973741E+00 -0.61539863243E+03  0.63716223483E+03  0.16198028326E+03 0.  0.
        -24    2    3    3    0    0  0.31249748831E+02  0.34333347896E+02 -0.34145450608E+03  0.35377184992E+03  0.80050087383E+02 0.  0.
          6    2    1    2  501    0  0.31963622861E+02  0.97536973741E+00 -0.96772834630E+03  0.98394588341E+03  0.17501064171E+03 0.  0.
         24    2    5    5    0    0  0.62399120493E+02  0.14185189997E+02 -0.91759228439E+03  0.92364220548E+03  0.83931242847E+02 0.  0.
          5    1    5    5  501    0 -0.30435497632E+02 -0.13209820260E+02 -0.50136061909E+02  0.60303677924E+02  0.47000000000E+01 0. -1.
        -11    1    6    6    0    0 -0.18234627093E+02 -0.41394569581E-01 -0.79727770735E+02  0.81786433870E+02  0.00000000000E+00 0.  1.
         12    1    6    6    0    0  0.80633747586E+02  0.14226584567E+02 -0.83786451365E+03  0.84185577161E+03  0.00000000000E+00 0. -1.
         -5    1    3    3    0  503 -0.63213371693E+02 -0.35308717633E+02 -0.27394412634E+03  0.28339038491E+03  0.47000000000E+01 0.  1.
         13    1    4    4    0    0  0.54969718554E+02  0.88203857969E+01 -0.24422249392E+03  0.25048771567E+03  0.00000000000E+00 0. -1.
        -14    1    4    4    0    0 -0.23719969722E+02  0.25512962099E+02 -0.97232012162E+02  0.10328413425E+03  0.00000000000E+00 0.  1.
</event>
<event>
12    1  0.8493057E-002  0.1835502E+03  0.7818608E-02  0.1164436E+00
         21   -1    0    0  503  502  0.00000000000E+00  0.00000000000E+00  0.24197986045E+03  0.24197986045E+03  0.00000000000E+00 0. -1.
         21   -1    0    0  501  503 -0.00000000000E+00 -0.00000000000E+00 -0.31008627703E+03  0.31008627703E+03  0.00000000000E+00 0.  1.
          6    2    1    2  501    0  0.10926411425E+02  0.64395288335E+02 -0.23900275527E+03  0.30135193543E+03  0.17153580482E+03 0.  0.
         24    2    3    3    0    0  0.22109909566E+01 -0.24877863592E+02 -0.16589225872E+03  0.18553790815E+03  0.79248200486E+02 0.  0.
         -6    2    1    2    0  502 -0.10926411425E+02 -0.64395288335E+02  0.17089633868E+03  0.25071420205E+03  0.17142319828E+03 0.  0.
        -24    2    5    5    0    0 -0.14876843128E+01  0.30914029029E+02  0.98011665887E+02  0.13026827612E+03  0.80035284200E+02 0.  0.
          5    1    3    3  501    0  0.87154204684E+01  0.89273151927E+02 -0.73110496550E+02  0.11581402728E+03  0.47000000000E+01 0. -1.
        -11    1    4    4    0    0 -0.24073749237E+01  0.28325317371E+02 -0.73742358531E+02  0.79031984031E+02  0.00000000000E+00 0.  1.
         12    1    4    4    0    0  0.46183658803E+01 -0.53203180963E+02 -0.92149900187E+02  0.10650592412E+03  0.00000000000E+00 0. -1.
         -5    1    5    5    0  502 -0.94387271121E+01 -0.95309317364E+02  0.72884672796E+02  0.12044592594E+03  0.47000000000E+01 0.  1.
         13    1    6    6    0    0  0.18172204094E+02  0.19755023873E+02  0.10356763114E+03  0.10698945832E+03  0.00000000000E+00 0. -1.
        -14    1    6    6    0    0 -0.19659888407E+02  0.11159005156E+02 -0.55559652573E+01  0.23278817801E+02  0.00000000000E+00 0.  1.
</event>
<event>
12    1  0.8493057E-002  0.1996023E+03  0.7818608E-02  0.1151139E+00
         21   -1    0    0  503  502  0.00000000000E+00  0.00000000000E+00  0.26925947911E+03  0.26925947911E+03  0.00000000000E+00 0.  1.
         21   -1    0    0  501  503 -0.00000000000E+00 -0.00000000000E+00 -0.22178892098E+03  0.22178892098E+03  0.00000000000E+00 0. -1.
          6    2    1    2  501    0  0.17223986731E+02 -0.10128152707E+03 -0.12156923362E+03  0.22948479230E+03  0.16531659896E+03 0.  0.
         24    2    3    3    0    0  0.22696983956E+02 -0.10996486312E+03 -0.35385276268E+02  0.14256460748E+03  0.80406003064E+02 0.  0.
         -6    2    1    2    0  502 -0.17223986731E+02  0.10128152707E+03  0.16903979175E+03  0.26156360779E+03  0.17113286149E+03 0.  0.
        -24    2    5    5    0    0 -0.59007501055E+02  0.11954527226E+03  0.13017453519E+03  0.20146348612E+03  0.76610504011E+02 0.  0.
          5    1    3    3  501    0 -0.54729972248E+01  0.86833360521E+01 -0.86183957356E+02  0.86920184820E+02  0.47000000000E+01 0. -1.
        -11    1    4    4    0    0  0.78698680988E+01 -0.93873978717E+01  0.22468907503E+02  0.25591206831E+02  0.00000000000E+00 0.  1.
         12    1    4    4    0    0  0.14827115857E+02 -0.10057746525E+03 -0.57854183771E+02  0.11697340065E+03  0.00000000000E+00 0. -1.
         -5    1    5    5    0  502  0.41783514324E+02 -0.18263745196E+02  0.38865256561E+02  0.60100121675E+02  0.47000000000E+01 0.  1.
         11    1    6    6    0    0 -0.32021445022E+02  0.13020587747E+02  0.50498164374E+01  0.34934356908E+02  0.00000000000E+00 0. -1.
        -12    1    6    6    0    0 -0.26986056033E+02  0.10652468452E+03  0.12512471876E+03  0.16652912921E+03  0.00000000000E+00 0.  1.
</event>
<event>
12    1  0.8493057E-002  0.2182492E+03  0.7818608E-02  0.1135598E+00
         21   -1    0    0  501  502  0.00000000000E+00  0.00000000000E+00  0.82081140939E+02  0.82081140939E+02  0.00000000000E+00 0.  1.
         21   -1    0    0  502  503 -0.00000000000E+00 -0.00000000000E+00 -0.65506087609E+03  0.65506087609E+03  0.00000000000E+00 0.  1.
         -6    2    1    2    0  503 -0.11450143503E+03  0.67143313671E+02 -0.15614550679E+03  0.26662792916E+03  0.17055858267E+03 0.  0.
        -24    2    3    3    0    0 -0.19262877484E+02 -0.16521971496E+02 -0.34714053097E+02  0.91020552514E+02  0.80222450139E+02 0.  0.
          6    2    1    2  501    0  0.11450143503E+03 -0.67143313671E+02 -0.41683422836E+03  0.47051408787E+03  0.17324528784E+03 0.  0.
         24    2    5    5    0    0  0.11342504073E+03 -0.10767109011E+03 -0.37843633345E+03  0.41447706778E+03  0.64178483356E+02 0.  0.
          5    1    5    5  501    0  0.10763943000E+01  0.40527776438E+02 -0.38397894905E+02  0.56037020093E+02  0.47000000000E+01 0. -1.
        -13    1    6    6    0    0  0.10315937395E+03 -0.76791843324E+02 -0.24018363804E+03  0.27244636833E+03  0.00000000000E+00 0.  1.
         14    1    6    6    0    0  0.10265666784E+02 -0.30879246785E+02 -0.13825269541E+03  0.14203069944E+03  0.00000000000E+00 0. -1.
         -5    1    3    3    0  503 -0.95238557548E+02  0.83665285167E+02 -0.12143145369E+03  0.17560737665E+03  0.47000000000E+01 0.  1.
         11    1    4    4    0    0  0.20090801600E+02 -0.48667848222E+01 -0.44288447215E+02  0.48875274527E+02  0.00000000000E+00 0. -1.
        -12    1    4    4    0    0 -0.39353679084E+02 -0.11655186673E+02  0.95743941171E+01  0.42145277986E+02  0.00000000000E+00 0.  1.
</event>
<event>
12    1  0.8493057E-002  0.2575779E+03  0.7818608E-02  0.1108900E+00
         21   -1    0    0  501  502  0.00000000000E+00  0.00000000000E+00  0.74095117411E+03  0.74095117411E+03  0.00000000000E+00 0. -1.
         21   -1    0    0  502  503 -0.00000000000E+00 -0.00000000000E+00 -0.12084590164E+03  0.12084590164E+03  0.00000000000E+00 0. -1.
         -6    2    1    2    0  503 -0.67354760297E+02  0.17571656172E+03  0.87569334218E+02  0.27023902939E+03  0.17305424268E+03 0.  0.
        -24    2    3    3    0    0 -0.32467542414E+02  0.13731698714E+03  0.12856456673E+03  0.20394917806E+03  0.71807542406E+02 0.  0.
          6    2    1    2  501    0  0.67354760297E+02 -0.17571656172E+03  0.53253593825E+03  0.59155804637E+03  0.17587900071E+03 0.  0.
         24    2    5    5    0    0  0.11119937429E+03 -0.14298469572E+03  0.45877406969E+03  0.49959811770E+03  0.79465137820E+02 0.  0.
          5    1    5    5  501    0 -0.43844613989E+02 -0.32731865997E+02  0.73761868560E+02  0.91959928669E+02  0.47000000000E+01 0. -1.
        -11    1    6    6    0    0  0.90394682745E+01  0.83068935638E+01  0.12940389430E+02  0.17837324519E+02  0.00000000000E+00 0.  1.
         12    1    6    6    0    0  0.10215990601E+03 -0.15129158929E+03  0.44583368026E+03  0.48176079318E+03  0.00000000000E+00 0. -1.
         -5    1    3    3    0  503 -0.34887217883E+02  0.38399574580E+02 -0.40995232513E+02  0.66289851322E+02  0.47000000000E+01 0.  1.
         11    1    4    4    0    0 -0.31372211069E+02  0.12759708944E+03  0.78761531030E+02  0.15319468538E+03  0.00000000000E+00 0. -1.
        -12    1    4    4    0    0 -0.10953313443E+01  0.97198977052E+01  0.49803035700E+02  0.50754492679E+02  0.00000000000E+00 0.  1.
</event>
<event>
12    1  0.8493057E-002  0.2199103E+03  0.7818608E-02  0.1134637E+00
         21   -1    0    0  501  502  0.00000000000E+00  0.00000000000E+00  0.12722004585E+03  0.12722004585E+03  0.00000000000E+00 0. -1.
         21   -1    0    0  502  503 -0.00000000000E+00 -0.00000000000E+00 -0.14752667831E+04  0.14752667831E+04  0.00000000000E+00 0.  1.
         -6    2    1    2    0  503  0.56745544731E+02 -0.11850955710E+03 -0.13677634545E+04  0.13853293559E+04  0.17634053704E+03 0.  0.
        -24    2    3    3    0    0  0.10364788605E+03 -0.11125137106E+03 -0.11157895098E+04  0.11288815646E+04  0.79168205963E+02 0.  0.
          6    2    1    2  501    0 -0.56745544731E+02  0.11850955710E+03  0.19716717253E+02  0.21715747300E+03  0.17176742174E+03 0.  0.
         24    2    5    5    0    0 -0.28373200893E+02  0.97002970612E+02  0.76982965559E+02  0.14956282564E+03  0.78917976342E+02 0.  0.
          5    1    5    5  501    0 -0.28372343838E+02  0.21506586489E+02 -0.57266248306E+02  0.67594647365E+02  0.47000000000E+01 0. -1.
        -13    1    6    6    0    0  0.13268208616E+02  0.77483313705E+02  0.30924221553E+02  0.84474947418E+02  0.00000000000E+00 0.  1.
         14    1    6    6    0    0 -0.41641409509E+02  0.19519656906E+02  0.46058744007E+02  0.65087878219E+02  0.00000000000E+00 0. -1.
         -5    1    3    3    0  503 -0.46902341314E+02 -0.72581860459E+01 -0.25197394466E+03  0.25644779132E+03  0.47000000000E+01 0.  1.
         11    1    4    4    0    0  0.10439198142E+02 -0.43984190741E+02 -0.16195119902E+03  0.16814213260E+03  0.00000000000E+00 0. -1.
        -12    1    4    4    0    0  0.93208687903E+02 -0.67267180314E+02 -0.95383831079E+03  0.96073943199E+03  0.00000000000E+00 0.  1.
</event>
<event>
12    1  0.8493057E-002  0.1864827E+03  0.7818608E-02  0.1161874E+00
         21   -1    0    0  503  502  0.00000000000E+00  0.00000000000E+00  0.64158484352E+02  0.64158484352E+02  0.00000000000E+00 0. -1.
         21   -1    0    0  501  503 -0.00000000000E+00 -0.00000000000E+00 -0.53980251739E+03  0.53980251739E+03  0.00000000000E+00 0. -1.
          6    2    1    2  501    0 -0.52998463878E+02 -0.49557680087E+02 -0.24440835045E+03  0.30689914455E+03  0.17084157083E+03 0.  0.
         24    2    3    3    0    0 -0.57050902976E+02 -0.96196740112E+02 -0.20190179504E+03  0.24349156270E+03  0.77557642613E+02 0.  0.
         -6    2    1    2    0  502  0.52998463878E+02  0.49557680087E+02 -0.23123568259E+03  0.29706185720E+03  0.17178767496E+03 0.  0.
        -24    2    5    5    0    0  0.74815088494E+02 -0.18802806076E+02 -0.16786773599E+03  0.20121454198E+03  0.79729995205E+02 0.  0.
          5    1    3    3  501    0  0.40524390983E+01  0.46639060024E+02 -0.42506555408E+02  0.63407581843E+02  0.47000000000E+01 0. -1.
        -13    1    4    4    0    0  0.13463478065E+02 -0.39977631924E+02 -0.92835363653E+02  0.10197000069E+03  0.00000000000E+00 0.  1.
         14    1    4    4    0    0 -0.70514381041E+02 -0.56219108188E+02 -0.10906643139E+03  0.14152156202E+03  0.00000000000E+00 0. -1.
         -5    1    5    5    0  502 -0.21816624616E+02  0.68360486163E+02 -0.63367946604E+02  0.95847315220E+02  0.47000000000E+01 0.  1.
         11    1    6    6    0    0  0.52240577016E+02  0.18616587838E+02 -0.47022770753E+02  0.72710358265E+02  0.00000000000E+00 0. -1.
        -12    1    6    6    0    0  0.22574511477E+02 -0.37419393914E+02 -0.12084496523E+03  0.12850418371E+03  0.00000000000E+00 0.  1.
</event>
<event>
12    1  0.8493057E-002  0.1744780E+03  0.7818608E-02  0.1174089E+00
         21   -1    0    0  503  502  0.00000000000E+00  0.00000000000E+00  0.35678610990E+03  0.35678610990E+03  0.00000000000E+00 0.  1.
         21   -1    0    0  501  503 -0.00000000000E+00 -0.00000000000E+00 -0.13484584739E+03  0.13484584739E+03  0.00000000000E+00 0.  1.
          6    2    1    2  501    0 -0.85488216852E+01  0.38286197780E+01 -0.39713581707E+02  0.17894057029E+03  0.17422634256E+03 0.  0.
         24    2    3    3    0    0  0.31710996592E+02  0.30957591899E+02 -0.75135394468E+02  0.11866098075E+03  0.80443402775E+02 0.  0.
         -6    2    1    2    0  502  0.85488216852E+01 -0.38286197780E+01  0.26165384421E+03  0.31269138700E+03  0.17095446362E+03 0.  0.
        -24    2    5    5    0    0  0.15499684679E+02 -0.56647394359E+02  0.11699371544E+03  0.15846175203E+03  0.89294064151E+02 0.  0.
          5    1    3    3  501    0 -0.40259818277E+02 -0.27128972121E+02  0.35421812761E+02  0.60279589542E+02  0.47000000000E+01 0. -1.
        -13    1    4    4    0    0  0.55718473405E+02  0.37043993122E+02 -0.57950799334E+02  0.88516105023E+02  0.00000000000E+00 0.  1.
         14    1    4    4    0    0 -0.24007476813E+02 -0.60864012226E+01 -0.17184595135E+02  0.30144875729E+02  0.00000000000E+00 0. -1.
         -5    1    5    5    0  502 -0.69508629943E+01  0.52818774581E+02  0.14466012877E+03  0.15422963496E+03  0.47000000000E+01 0.  1.
         11    1    6    6    0    0  0.31568300359E+02 -0.66208306064E+02  0.11886066171E+03  0.13967087843E+03  0.00000000000E+00 0. -1.
        -12    1    6    6    0    0 -0.16068615680E+02  0.95609117042E+01 -0.18669462688E+01  0.18790873605E+02  0.00000000000E+00 0.  1.
</event>
<event>
12    1  0.8493057E-002  0.1975111E+03  0.7818608E-02  0.1151898E+00
         21   -1    0    0  503  502  0.00000000000E+00  0.00000000000E+00  0.79789251917E+02  0.79789251917E+02  0.00000000000E+00 0. -1.
         21   -1    0    0  501  503 -0.00000000000E+00 -0.00000000000E+00 -0.49188564949E+03  0.49188564949E+03  0.00000000000E+00 0.  1.
          6    2    1    2  501    0 -0.96203139160E+02 -0.16707880562E+02 -0.22987212942E+03  0.30294394272E+03  0.17146323015E+03 0.  0.
         24    2    3    3    0    0  0.18769897449E+02  0.21193515371E+01 -0.94289777715E+02  0.12412020854E+03  0.78475877084E+02 0.  0.
         -6    2    1    2    0  502  0.96203139160E+02  0.16707880562E+02 -0.18222426815E+03  0.26873095868E+03  0.17168706123E+03 0.  0.
        -24    2    5    5    0    0  0.12746385794E+03  0.40933295276E+02 -0.13226573832E+03  0.20484005198E+03  0.80886659074E+02 0.  0.
          5    1    3    3  501    0 -0.11497303661E+03 -0.18827232099E+02 -0.13558235170E+03  0.17882373419E+03  0.47000000000E+01 0. -1.
        -13    1    4    4    0    0  0.14240269146E+02 -0.33590828229E+02 -0.20090510034E+02  0.41650421365E+02  0.00000000000E+00 0.  1.
         14    1    4    4    0    0  0.45296283031E+01  0.35710179766E+02 -0.74199267681E+02  0.82469787170E+02  0.00000000000E+00 0. -1.
         -5    1    5    5    0  502 -0.31260718783E+02 -0.24225414714E+02 -0.49958529831E+02  0.63890906706E+02  0.47000000000E+01 0.  1.
         11    1    6    6    0    0  0.39502013988E+02  0.41413738238E+01  0.24532336655E+01  0.39794201106E+02  0.00000000000E+00 0. -1.
        -12    1    6    6    0    0  0.87961843955E+02  0.36791921452E+02 -0.13471897199E+03  0.16504585087E+03  0.00000000000E+00 0.  1.
</event>
<event>
12    1  0.8493057E-002  0.1872904E+03  0.7818608E-02  0.1161111E+00
         21   -1    0    0  501  502  0.00000000000E+00  0.00000000000E+00  0.13206480416E+03  0.13206480416E+03  0.00000000000E+00 0. -1.
         21   -1    0    0  502  503 -0.00000000000E+00 -0.00000000000E+00 -0.42847794184E+03  0.42847794184E+03  0.00000000000E+00 0.  1.
         -6    2    1    2    0  503  0.13284435036E+02 -0.69385325038E+02 -0.32179264524E+03  0.37232807275E+03  0.17345572255E+03 0.  0.
        -24    2    3    3    0    0 -0.28771392660E+02 -0.82321576621E+02 -0.13239849036E+03  0.17783314956E+03  0.80564469948E+02 0.  0.
          6    2    1    2  501    0 -0.13284435036E+02  0.69385325038E+02  0.25379507550E+02  0.18821467325E+03  0.17259734725E+03 0.  0.
         24    2    5    5    0    0  0.27492969025E+02  0.74377158640E+02 -0.38044002964E+02  0.11250241023E+03  0.70154266253E+02 0.  0.
          5    1    5    5  501    0 -0.40777404061E+02 -0.49918336011E+01  0.63423510515E+02  0.75712263014E+02  0.47000000000E+01 0. -1.
        -11    1    6    6    0    0  0.35248408138E+02  0.24503816688E+02  0.85946799748E+01  0.43780770121E+02  0.00000000000E+00 0.  1.
         12    1    6    6    0    0 -0.77554391131E+01  0.49873341952E+02 -0.46638682939E+02  0.68721640111E+02  0.00000000000E+00 0. -1.
         -5    1    3    3    0  503  0.42055827695E+02  0.12936251582E+02 -0.18939415488E+03  0.19449492320E+03  0.47000000000E+01 0.  1.
         11    1    4    4    0    0  0.10268463867E+02  0.11389791564E+02 -0.80893566300E+01  0.17338004290E+02  0.00000000000E+00 0. -1.
        -12    1    4    4    0    0 -0.39039856527E+02 -0.93711368185E+02 -0.12430913373E+03  0.16049514527E+03  0.00000000000E+00 0.  1.
</event>
<event>
12    1  0.8493057E-002  0.2040273E+03  0.7818608E-02  0.1147558E+00
         21   -1    0    0  503  502  0.00000000000E+00  0.00000000000E+00  0.18398643456E+03  0.18398643456E+03  0.00000000000E+00 0.  1.
         21   -1    0    0  501  503 -0.00000000000E+00 -0.00000000000E+00 -0.23644093870E+03  0.23644093870E+03  0.00000000000E+00 0. -1.
          6    2    1    2  501    0  0.77946758609E+02  0.70028718222E+02  0.29437421274E+02  0.20057870322E+03  0.16848007556E+03 0.  0.
         24    2    3    3    0    0  0.43034598517E+02 -0.10413262895E+02  0.62479882069E+02  0.10675085307E+03  0.74374701710E+02 0.  0.
         -6    2    1    2    0  502 -0.77946758609E+02 -0.70028718222E+02 -0.81891925408E+02  0.21984867004E+03  0.17506407889E+03 0.  0.
        -24    2    5    5    0    0 -0.10484788039E+03 -0.36068218661E+02 -0.10035342812E+03  0.17252105689E+03  0.86015755047E+02 0.  0.
          5    1    3    3  501    0  0.34912160092E+02  0.80441981117E+02 -0.33042460795E+02  0.93827850149E+02  0.47000000000E+01 0. -1.
        -11    1    4    4    0    0 -0.13170445821E+02 -0.16991903305E+02  0.40864083697E+02  0.46174221785E+02  0.00000000000E+00 0.  1.
         12    1    4    4    0    0  0.56205044338E+02  0.65786404108E+01  0.21615798372E+02  0.60576631286E+02  0.00000000000E+00 0. -1.
         -5    1    5    5    0  502  0.26901121782E+02 -0.33960499561E+02  0.18461502713E+02  0.47327613145E+02  0.47000000000E+01 0.  1.
         11    1    6    6    0    0 -0.40710227812E+02 -0.53190398704E+02 -0.23541359807E+02  0.70998146344E+02  0.00000000000E+00 0. -1.
        -12    1    6    6    0    0 -0.64137652579E+02  0.17122180043E+02 -0.76812068314E+02  0.10152291055E+03  0.00000000000E+00 0.  1.
</event>
<event>
12    1  0.8493057E-002  0.1802655E+03  0.7818608E-02  0.1167797E+00
         21   -1    0    0  503  502  0.00000000000E+00  0.00000000000E+00  0.69868487987E+03  0.69868487987E+03  0.00000000000E+00 0.  1.
         21   -1    0    0  501  503 -0.00000000000E+00 -0.00000000000E+00 -0.88085043290E+02  0.88085043290E+02  0.00000000000E+00 0.  1.
          6    2    1    2  501    0 -0.10375370778E+02 -0.53707098621E+02  0.33711224914E+02  0.18237259238E+03  0.17067868937E+03 0.  0.
         24    2    3    3    0    0  0.22288518155E+02  0.20993055178E+01 -0.34528908092E+02  0.88244540576E+02  0.78061951822E+02 0.  0.
         -6    2    1    2    0  502  0.10375370778E+02  0.53707098621E+02  0.57688861166E+03  0.60439733078E+03  0.17176601069E+03 0.  0.
        -24    2    5    5    0    0  0.10382535110E+02  0.90036193194E+02  0.53550678037E+03  0.54913116460E+03  0.81013646912E+02 0.  0.
          5    1    3    3  501    0 -0.32663888933E+02 -0.55806404139E+02  0.68240133005E+02  0.94128051801E+02  0.47000000000E+01 0. -1.
        -13    1    4    4    0    0  0.18113635651E+02 -0.24795439947E+02  0.13102527449E+02  0.33385533757E+02  0.00000000000E+00 0.  1.
         14    1    4    4    0    0  0.41748825037E+01  0.26894745465E+02 -0.47631435540E+02  0.54859006819E+02  0.00000000000E+00 0. -1.
         -5    1    5    5    0  502 -0.71643318738E-02 -0.36329094573E+02  0.41381831290E+02  0.55266166184E+02  0.47000000000E+01 0.  1.
         11    1    6    6    0    0  0.13546232341E+02 -0.12794552254E+02  0.87952862775E+02  0.89904989007E+02  0.00000000000E+00 0. -1.
        -12    1    6    6    0    0 -0.31636972316E+01  0.10283074545E+03  0.44755391760E+03  0.45922617559E+03  0.00000000000E+00 0.  1.
</event>
<event>
12    1  0.8493057E-002  0.1948278E+03  0.7818608E-02  0.1154483E+00
         21   -1    0    0  501  502  0.00000000000E+00  0.00000000000E+00  0.15332501024E+03  0.15332501024E+03  0.00000000000E+00 0.  1.
         21   -1    0    0  502  503 -0.00000000000E+00 -0.00000000000E+00 -0.25897419625E+03  0.25897419625E+03  0.00000000000E+00 0. -1.
         -6    2    1    2    0  503  0.84700418769E+02 -0.30700448398E+02 -0.99503806308E+02  0.21876674454E+03  0.17274606385E+03 0.  0.
        -24    2    3    3    0    0  0.10030576639E+03 -0.63208831258E+02 -0.11128032541E+03  0.18054242986E+03  0.78457982618E+02 0.  0.
          6    2    1    2  501    0 -0.84700418769E+02  0.30700448398E+02 -0.61453797012E+01  0.19353246194E+03  0.17117350748E+03 0.  0.
         24    2    5    5    0    0  0.67413286423E+01 -0.11050260011E+02 -0.40255139013E+02  0.87276730319E+02  0.76349182576E+02 0.  0.
          5    1    5    5  501    0 -0.91441747411E+02  0.41750708409E+02  0.34109759312E+02  0.10625573162E+03  0.47000000000E+01 0. -1.
        -11    1    6    6    0    0  0.28156921987E+02 -0.68752420628E+01  0.11444322282E+02  0.31161734896E+02  0.00000000000E+00 0.  1.
         12    1    6    6    0    0 -0.21415593345E+02 -0.41750179480E+01 -0.51699461295E+02  0.56114995423E+02  0.00000000000E+00 0. -1.
         -5    1    3    3    0  503 -0.15605347624E+02  0.32508382860E+02  0.11776519104E+02  0.38224314681E+02  0.47000000000E+01 0.  1.
         11    1    4    4    0    0  0.61979381095E+02 -0.38362917911E+02 -0.11341325976E+03  0.13481737515E+03  0.00000000000E+00 0. -1.
        -12    1    4    4    0    0  0.38326385298E+02 -0.24845913347E+02  0.21329343480E+01  0.45725054718E+02  0.00000000000E+00 0.  1.
</event>
<event>
12    1  0.8493057E-002  0.2210056E+03  0.7818608E-02  0.1133518E+00
         21   -1    0    0  501  502  0.00000000000E+00  0.00000000000E+00  0.18252744173E+03  0.18252744173E+03  0.00000000000E+00 0.  1.
         21   -1    0    0  502  503 -0.00000000000E+00 -0.00000000000E+00 -0.44030384941E+03  0.44030384941E+03  0.00000000000E+00 0. -1.
         -6    2    1    2    0  503  0.12303925063E+03  0.65066798722E+02 -0.32568212860E+03  0.39358905754E+03  0.17167163958E+03 0.  0.
        -24    2    3    3    0    0  0.24598125135E+02  0.83212734886E+02 -0.14218899782E+03  0.18451550773E+03  0.79365196933E+02 0.  0.
          6    2    1    2  501    0 -0.12303925063E+03 -0.65066798722E+02  0.67905720919E+02  0.22924223360E+03  0.16902209690E+03 0.  0.
         24    2    5    5    0    0  0.63217695426E+01 -0.24442218213E+02  0.29167938090E+02  0.88148874794E+02  0.79259502355E+02 0.  0.
          5    1    5    5  501    0 -0.12936102017E+03 -0.40624580509E+02  0.38737782829E+02  0.14109335881E+03  0.47000000000E+01 0. -1.
        -13    1    6    6    0    0 -0.29043420338E+02  0.12867404202E+02  0.11799561598E+02  0.33886870757E+02  0.00000000000E+00 0.  1.
         14    1    6    6    0    0  0.35365189881E+02 -0.37309622415E+02  0.17368376492E+02  0.54262004036E+02  0.00000000000E+00 0. -1.
         -5    1    3    3    0  503  0.98441125490E+02 -0.18145936164E+02 -0.18349313078E+03  0.20907354981E+03  0.47000000000E+01 0.  1.
         13    1    4    4    0    0  0.47257204501E+02  0.67591807382E+02 -0.73326736093E+02  0.11035717479E+03  0.00000000000E+00 0. -1.
        -14    1    4    4    0    0 -0.22659079365E+02  0.15620927505E+02 -0.68862261724E+02  0.74158332934E+02  0.00000000000E+00 0.  1.
</event>
<event>
12    1  0.8493057E-002  0.3292547E+03  0.7818608E-02  0.1071613E+00
         21   -1    0    0  501  502  0.00000000000E+00  0.00000000000E+00  0.29415466144E+03  0.29415466144E+03  0.00000000000E+00 0.  1.
         21   -1    0    0  502  503 -0.00000000000E+00 -0.00000000000E+00 -0.64020760785E+03  0.64020760785E+03  0.00000000000E+00 0.  1.
         -6    2    1    2    0  503 -0.24195434099E+03  0.14218485944E+03 -0.47837396635E+03  0.58073254575E+03  0.17219233614E+03 0.  0.
        -24    2    3    3    0    0 -0.13622664269E+03  0.10064116434E+03 -0.40294990154E+03  0.44429536480E+03  0.79645501405E+02 0.  0.
          6    2    1    2  501    0  0.24195434099E+03 -0.14218485944E+03  0.13232101994E+03  0.35362972354E+03  0.16966641291E+03 0.  0.
         24    2    5    5    0    0  0.12273993887E+03 -0.76316765608E+02  0.18033319283E+01  0.16492986571E+03  0.79430896328E+02 0.  0.
          5    1    5    5  501    0  0.11921440212E+03 -0.65868093834E+02  0.13051768801E+03  0.18869985782E+03  0.47000000000E+01 0. -1.
        -13    1    6    6    0    0  0.42642978258E+02 -0.49738437451E+02  0.34958297702E+02  0.74259129627E+02  0.00000000000E+00 0.  1.
         14    1    6    6    0    0  0.80096960614E+02 -0.26578328156E+02 -0.33154965773E+02  0.90670736087E+02  0.00000000000E+00 0. -1.
         -5    1    3    3    0  503 -0.10572769830E+03  0.41543695105E+02 -0.75424064809E+02  0.13643718094E+03  0.47000000000E+01 0.  1.
         13    1    4    4    0    0 -0.21796882366E+02 -0.13077290350E+02 -0.65697811564E+02  0.70443750951E+02  0.00000000000E+00 0. -1.
        -14    1    4    4    0    0 -0.11442976032E+03  0.11371845469E+03 -0.33725208998E+03  0.37385161385E+03  0.00000000000E+00 0.  1.
</event>
<event>
12    1  0.8493057E-002  0.1816358E+03  0.7818608E-02  0.1166800E+00
         21   -1    0    0  501  502  0.00000000000E+00  0.00000000000E+00  0.20698283552E+03  0.20698283552E+03  0.00000000000E+00 0. -1.
         21   -1    0    0  502  503 -0.00000000000E+00 -0.00000000000E+00 -0.18610217660E+03  0.18610217660E+03  0.00000000000E+00 0. -1.
         -6    2    1    2    0  503 -0.25887388304E+02  0.42339689806E+02 -0.66910662661E+02  0.19134540764E+03  0.17225917113E+03 0.  0.
        -24    2    3    3    0    0 -0.67855408237E+02 -0.11464682837E+01 -0.51908428392E+01  0.10483652485E+03  0.79737577567E+02 0.  0.
          6    2    1    2  501    0  0.25887388304E+02 -0.42339689806E+02  0.87791321576E+02  0.20173960449E+03  0.17472477119E+03 0.  0.
         24    2    5    5    0    0 -0.25630149946E+02 -0.22942615722E+02 -0.10947411668E+02  0.88594871188E+02  0.80906966178E+02 0.  0.
          5    1    5    5  501    0  0.51517538250E+02 -0.19397074083E+02  0.98738733244E+02  0.11314473330E+03  0.47000000000E+01 0. -1.
        -13    1    6    6    0    0 -0.30356014945E+02  0.14422852877E+02 -0.31177390859E+02  0.45842513339E+02  0.00000000000E+00 0.  1.
         14    1    6    6    0    0  0.47258649990E+01 -0.37365468599E+02  0.20229979191E+02  0.42752357849E+02  0.00000000000E+00 0. -1.
         -5    1    3    3    0  503  0.41968019934E+02  0.43486158089E+02 -0.61719819822E+02  0.86508882789E+02  0.47000000000E+01 0.  1.
         13    1    4    4    0    0  0.41910541192E+01 -0.24452701913E+01 -0.28648343086E+02  0.29056356319E+02  0.00000000000E+00 0. -1.
        -14    1    4    4    0    0 -0.72046462357E+02  0.12988019076E+01  0.23457500247E+02  0.75780168529E+02  0.00000000000E+00 0.  1.
</event>
<event>
12    1  0.8493057E-002  0.2361243E+03  0.7818608E-02  0.1122418E+00
         21   -1    0    0  503  502  0.00000000000E+00  0.00000000000E+00  0.11310877088E+03  0.11310877088E+03  0.00000000000E+00 0.  1.
         21   -1    0    0  501  503 -0.00000000000E+00 -0.00000000000E+00 -0.49946936418E+03  0.49946936418E+03  0.00000000000E+00 0.  1.
          6    2    1    2  501    0  0.96314174323E+02 -0.12947215916E+03 -0.15763606595E+03  0.28390811190E+03  0.17238105041E+03 0.  0.
         24    2    3    3    0    0  0.33805986207E+02 -0.13495166584E+03 -0.15205534900E+03  0.22073744643E+03  0.79053110499E+02 0.  0.
         -6    2    1    2    0  502 -0.96314174323E+02  0.12947215916E+03 -0.22872452734E+03  0.32867002315E+03  0.17224869966E+03 0.  0.
        -24    2    5    5    0    0 -0.44929449290E+02 -0.35299265828E+01 -0.77762272499E+02  0.12096437285E+03  0.80958586200E+02 0.  0.
          5    1    3    3  501    0  0.62508188116E+02  0.54795066714E+01 -0.55807169456E+01  0.63170665475E+02  0.47000000000E+01 0. -1.
        -11    1    4    4    0    0  0.46079730385E+02 -0.13441475952E+03 -0.11855903891E+03  0.18505921981E+03  0.00000000000E+00 0.  1.
         12    1    4    4    0    0 -0.12273744178E+02 -0.53690631196E+00 -0.33496310095E+02  0.35678226616E+02  0.00000000000E+00 0. -1.
         -5    1    5    5    0  502 -0.51384725033E+02  0.13300208575E+03 -0.15096225484E+03  0.20770565030E+03  0.47000000000E+01 0.  1.
         13    1    6    6    0    0 -0.37984339293E+02 -0.37326033425E+02 -0.65341381523E+02  0.84294358898E+02  0.00000000000E+00 0. -1.
        -14    1    6    6    0    0 -0.69451099963E+01  0.33796106842E+02 -0.12420890976E+02  0.36670013951E+02  0.00000000000E+00 0.  1.
</event>
<event>
12    1  0.8493057E-002  0.1829030E+03  0.7818608E-02  0.1165067E+00
         21   -1    0    0  503  502  0.00000000000E+00  0.00000000000E+00  0.29652541660E+02  0.29652541660E+02  0.00000000000E+00 0. -1.
         21   -1    0    0  501  503 -0.00000000000E+00 -0.00000000000E+00 -0.11683142570E+04  0.11683142570E+04  0.00000000000E+00 0. -1.
          6    2    1    2  501    0 -0.60177709691E+02 -0.92995048973E+01 -0.68219771327E+03  0.70629117869E+03  0.17246933514E+03 0.  0.
         24    2    3    3    0    0 -0.10688144983E+03  0.75511320270E+01 -0.50527185770E+03  0.52247052784E+03  0.78709201303E+02 0.  0.
         -6    2    1    2    0  502  0.60177709691E+02  0.92995048973E+01 -0.45646400211E+03  0.49167562002E+03  0.17227214679E+03 0.  0.
        -24    2    5    5    0    0 -0.69912138278E+01 -0.44836909935E+01 -0.37931896480E+03  0.38835530470E+03  0.82873307365E+02 0.  0.
          5    1    3    3  501    0  0.46703740134E+02 -0.16850636924E+02 -0.17692585557E+03  0.18382065084E+03  0.47000000000E+01 0. -1.
        -11    1    4    4    0    0 -0.19781788199E+02  0.31331017956E+02 -0.86946802922E+02  0.94512953445E+02  0.00000000000E+00 0.  1.
         12    1    4    4    0    0 -0.87099661627E+02 -0.23779885929E+02 -0.41832505478E+03  0.42795757440E+03  0.00000000000E+00 0. -1.
         -5    1    5    5    0  502  0.67168923519E+02  0.13783195891E+02 -0.77145037309E+02  0.10332031532E+03  0.47000000000E+01 0.  1.
         13    1    6    6    0    0  0.51353179675E+01 -0.12824849428E+02 -0.65377822921E+01  0.15283679229E+02  0.00000000000E+00 0. -1.
        -14    1    6    6    0    0 -0.12126531795E+02  0.83411584342E+01 -0.37278118251E+03  0.37307162547E+03  0.00000000000E+00 0.  1.
</event>
<event>
12    1  0.8493057E-002  0.2144413E+03  0.7818608E-02  0.1138228E+00
         21   -1    0    0  503  502  0.00000000000E+00  0.00000000000E+00  0.18511951217E+03  0.18511951217E+03  0.00000000000E+00 0. -1.
         21   -1    0    0  501  503 -0.00000000000E+00 -0.00000000000E+00 -0.37326132595E+03  0.37326132595E+03  0.00000000000E+00 0. -1.
          6    2    1    2  501    0 -0.12408407545E+03  0.28356854330E+02 -0.25614883027E+03  0.33406178963E+03  0.17258066830E+03 0.  0.
         24    2    3    3    0    0 -0.77657770812E+02  0.76892473104E+02 -0.21532921631E+03  0.25532527372E+03  0.82952650466E+02 0.  0.
         -6    2    1    2    0  502  0.12408407545E+03 -0.28356854330E+02  0.68007016494E+02  0.22431904850E+03  0.17173558821E+03 0.  0.
        -24    2    5    5    0    0  0.12248584757E+03 -0.62993986688E+02  0.89329579443E+02  0.18334311701E+03  0.81632711446E+02 0.  0.
          5    1    3    3  501    0 -0.46426304639E+02 -0.48535618774E+02 -0.40819613967E+02  0.78736515903E+02  0.47000000000E+01 0. -1.
        -13    1    4    4    0    0  0.16415397561E+02  0.16782880245E+02 -0.22534668741E+02  0.32541383524E+02  0.00000000000E+00 0.  1.
         14    1    4    4    0    0 -0.94073168373E+02  0.60109592859E+02 -0.19279454757E+03  0.22278389020E+03  0.00000000000E+00 0. -1.
         -5    1    5    5    0  502  0.15982278808E+01  0.34637132358E+02 -0.21322562949E+02  0.40975931485E+02  0.47000000000E+01 0.  1.
         11    1    6    6    0    0  0.20424674726E+01  0.14418410315E+02  0.18679031831E+02  0.23684772736E+02  0.00000000000E+00 0. -1.
        -12    1    6    6    0    0  0.12044338010E+03 -0.77412397002E+02  0.70650547612E+02  0.15965834428E+03  0.00000000000E+00 0.  1.
</event>
<event>
12    1  0.8493057E-002  0.1876993E+03  0.7818608E-02  0.1161222E+00
         21   -1    0    0  501  502  0.00000000000E+00  0.00000000000E+00  0.64177026682E+02  0.64177026682E+02  0.00000000000E+00 0.  1.
         21   -1    0    0  502  503 -0.00000000000E+00 -0.00000000000E+00 -0.66285221570E+03  0.66285221570E+03  0.00000000000E+00 0. -1.
         -6    2    1    2    0  503  0.72745543316E+02 -0.19167019481E+02 -0.45738798925E+03  0.49440347846E+03  0.17196435122E+03 0.  0.
        -24    2    3    3    0    0  0.93289241346E+02 -0.39156205779E+02 -0.22291328253E+03  0.25813649136E+03  0.81902537466E+02 0.  0.
          6    2    1    2  501    0 -0.72745543316E+02  0.19167019481E+02 -0.14128719976E+03  0.23262576392E+03  0.16879983565E+03 0.  0.
         24    2    5    5    0    0 -0.39094865473E+02  0.50487711130E+02 -0.15448544363E+03  0.18456707599E+03  0.78242161025E+02 0.  0.
          5    1    5    5  501    0 -0.33650677844E+02 -0.31320691649E+02  0.13198243872E+02  0.48058687934E+02  0.47000000000E+01 0. -1.
        -13    1    6    6    0    0 -0.94867386867E+01  0.25876788931E+02 -0.23788509989E+01  0.27663429801E+02  0.00000000000E+00 0.  1.
         14    1    6    6    0    0 -0.29608126786E+02  0.24610922199E+02 -0.15210659263E+03  0.15690364618E+03  0.00000000000E+00 0. -1.
         -5    1    3    3    0  503 -0.20543698030E+02  0.19989186297E+02 -0.23447470672E+03  0.23626698709E+03  0.47000000000E+01 0.  1.
         13    1    4    4    0    0  0.32048198776E+02  0.24697981063E+02 -0.87212720167E+02  0.96141228785E+02  0.00000000000E+00 0. -1.
        -14    1    4    4    0    0  0.61241042570E+02 -0.63854186842E+02 -0.13570056236E+03  0.16199526258E+03  0.00000000000E+00 0.  1.
</event>
<event>
12    1  0.8493057E-002  0.2086692E+03  0.7818608E-02  0.1143511E+00
         21   -1    0    0  501  502  0.00000000000E+00  0.00000000000E+00  0.37095126362E+03  0.37095126362E+03  0.00000000000E+00 0. -1.
         21   -1    0    0  502  503 -0.00000000000E+00 -0.00000000000E+00 -0.10695313538E+04  0.10695313538E+04  0.00000000000E+00 0.  1.
         -6    2    1    2    0  503 -0.55731613489E+02 -0.96147359045E+02 -0.10301314931E+04  0.10510536259E+04  0.17661399758E+03 0.  0.
        -24    2    3    3    0    0 -0.78805572973E+02 -0.83746066244E+02 -0.47423753203E+03  0.49452295687E+03  0.80174784938E+02 0.  0.
          6    2    1    2  501    0  0.55731613489E+02  0.96147359045E+02  0.33155140290E+03  0.38942899151E+03  0.17140093135E+03 0.  0.
         24    2    5    5    0    0  0.12101777701E+02  0.64464911166E+02  0.77029480419E+02  0.12921592670E+03  0.80380576404E+02 0.  0.
          5    1    5    5  501    0  0.43629835789E+02  0.31682447879E+02  0.25452192248E+03  0.26021306481E+03  0.47000000000E+01 0. -1.
        -11    1    6    6    0    0  0.18538900020E+02 -0.14047183210E+02  0.28115432985E+02  0.36489611426E+02  0.00000000000E+00 0.  1.
         12    1    6    6    0    0 -0.64371223197E+01  0.78512094376E+02  0.48914047433E+02  0.92726315269E+02  0.00000000000E+00 0. -1.
         -5    1    3    3    0  503  0.23073959484E+02 -0.12401292801E+02 -0.55589396106E+03  0.55653066906E+03  0.47000000000E+01 0.  1.
         11    1    4    4    0    0 -0.18991886110E+02 -0.63872029881E+02 -0.14881603979E+03  0.16305379983E+03  0.00000000000E+00 0. -1.
        -12    1    4    4    0    0 -0.59813686864E+02 -0.19874036363E+02 -0.32542149224E+03  0.33146915704E+03  0.00000000000E+00 0.  1.
</event>
<event>
12    1  0.8493057E-002  0.1786709E+03  0.7818608E-02  0.1171177E+00
         21   -1    0    0  501  502  0.00000000000E+00  0.00000000000E+00  0.29297714054E+03  0.29297714054E+03  0.00000000000E+00 0. -1.
         21   -1    0    0  502  503 -0.00000000000E+00 -0.00000000000E+00 -0.13195057691E+03  0.13195057691E+03  0.00000000000E+00 0. -1.
         -6    2    1    2    0  503  0.24137993134E+02 -0.41057786549E+02  0.17986605083E+03  0.25352535181E+03  0.17220604873E+03 0.  0.
        -24    2    3    3    0    0 -0.23543535267E+01  0.21701972805E+02  0.16356875792E+03  0.18332333202E+03  0.79851029372E+02 0.  0.
          6    2    1    2  501    0 -0.24137993134E+02  0.41057786549E+02 -0.18839487193E+02  0.17140236564E+03  0.16357096356E+03 0.  0.
         24    2    5    5    0    0 -0.48338864235E+02  0.68045300796E+02  0.20736951848E+02  0.11752850728E+03  0.80100687237E+02 0.  0.
          5    1    5    5  501    0  0.24200871101E+02 -0.26987514246E+02 -0.39576439041E+02  0.53873858358E+02  0.47000000000E+01 0. -1.
        -11    1    6    6    0    0  0.11251909894E+01  0.51797908298E+02  0.36214915005E+02  0.63212415138E+02  0.00000000000E+00 0.  1.
         12    1    6    6    0    0 -0.49464055224E+02  0.16247392498E+02 -0.15477963157E+02  0.54316092143E+02  0.00000000000E+00 0. -1.
         -5    1    3    3    0  503  0.26492346660E+02 -0.62759759354E+02  0.16297292904E+02  0.70202019784E+02  0.47000000000E+01 0.  1.
         13    1    4    4    0    0 -0.35228846971E+02  0.18686215884E+02  0.13105539308E+03  0.13698818335E+03  0.00000000000E+00 0. -1.
        -14    1    4    4    0    0  0.32874493445E+02  0.30157569210E+01  0.32513364848E+02  0.46335148675E+02  0.00000000000E+00 0.  1.
</event>
<event>
12    1  0.8493057E-002  0.1727451E+03  0.7818608E-02  0.1175064E+00
         21   -1    0    0  503  502  0.00000000000E+00  0.00000000000E+00  0.38777270883E+02  0.38777270883E+02  0.00000000000E+00 0. -1.
         21   -1    0    0  501  503 -0.00000000000E+00 -0.00000000000E+00 -0.10842715576E+04  0.10842715576E+04  0.00000000000E+00 0. -1.
          6    2    1    2  501    0 -0.42130799728E+01 -0.73254551997E+00 -0.82547902168E+03  0.84332110403E+03  0.17250096409E+03 0.  0.
         24    2    3    3    0    0  0.55483215907E+02  0.13715221671E+02 -0.66248390972E+03  0.66907449075E+03  0.74224315305E+02 0.  0.
         -6    2    1    2    0  502  0.42130799728E+01  0.73254551997E+00 -0.22001526509E+03  0.27972772450E+03  0.17269220108E+03 0.  0.
        -24    2    5    5    0    0 -0.40248211001E+02  0.12993212762E+02 -0.48649448572E+02  0.10220177308E+03  0.79307575348E+02 0.  0.
          5    1    3    3  501    0 -0.59696295880E+02 -0.14447767191E+02 -0.16299511195E+03  0.17424661328E+03  0.47000000000E+01 0. -1.
        -13    1    4    4    0    0  0.27199058310E+02  0.18234764443E+01 -0.61064285328E+02  0.66872720760E+02  0.00000000000E+00 0.  1.
         14    1    4    4    0    0  0.28284157597E+02  0.11891745227E+02 -0.60141962440E+03  0.60220176999E+03  0.00000000000E+00 0. -1.
         -5    1    5    5    0  502  0.44461290974E+02 -0.12260667242E+02 -0.17136581652E+03  0.17752595142E+03  0.47000000000E+01 0.  1.
         13    1    6    6    0    0 -0.44046058057E+02 -0.98097674765E+01  0.33964673417E+01  0.45252875695E+02  0.00000000000E+00 0. -1.
        -14    1    6    6    0    0  0.37978470555E+01  0.22802980239E+02 -0.52045915914E+02  0.56948897385E+02  0.00000000000E+00 0.  1.
</event>
<event>
12    1  0.8493057E-002  0.2335590E+03  0.7818608E-02  0.1124437E+00
         21   -1    0    0  501  502  0.00000000000E+00  0.00000000000E+00  0.45335782786E+03  0.45335782786E+03  0.00000000000E+00 0. -1.
         21   -1    0    0  502  503 -0.00000000000E+00 -0.00000000000E+00 -0.10361100741E+04  0.10361100741E+04  0.00000000000E+00 0.  1.
         -6    2    1    2    0  503  0.15299968430E+03 -0.41666568775E+02 -0.99196341545E+03  0.10190884295E+04  0.17147828756E+03 0.  0.
        -24    2    3    3    0    0  0.28262148680E+02  0.29916430639E+02 -0.39237167222E+03  0.40247191398E+03  0.79588758728E+02 0.  0.
          6    2    1    2  501    0 -0.15299968430E+03  0.41666568775E+02  0.40921116918E+03  0.47037947255E+03  0.16928691877E+03 0.  0.
         24    2    5    5    0    0 -0.16009165657E+03  0.59373044402E+02  0.26728612301E+03  0.32710133716E+03  0.79993226674E+02 0.  0.
          5    1    5    5  501    0  0.70919722736E+01 -0.17706475627E+02  0.14192504617E+03  0.14327813539E+03  0.47000000000E+01 0. -1.
        -13    1    6    6    0    0 -0.39354744401E+02 -0.19818113856E+02  0.67137363718E+02  0.80305536240E+02  0.00000000000E+00 0.  1.
         14    1    6    6    0    0 -0.12073691217E+03  0.79191158258E+02  0.20014875929E+03  0.24679580092E+03  0.00000000000E+00 0. -1.
         -5    1    3    3    0  503  0.12473753562E+03 -0.71582999414E+02 -0.59959174324E+03  0.61661651547E+03  0.47000000000E+01 0.  1.
         11    1    4    4    0    0  0.26222177846E+02  0.20024524492E+02 -0.49719214978E+02  0.59670633734E+02  0.00000000000E+00 0. -1.
        -12    1    4    4    0    0  0.20399708340E+01  0.98919061474E+01 -0.34265245724E+03  0.34280128025E+03  0.00000000000E+00 0.  1.
</event>
<event>
12    1  0.8493057E-002  0.1830711E+03  0.7818608E-02  0.1165195E+00
         21   -1    0    0  503  502  0.00000000000E+00  0.00000000000E+00  0.12760985376E+04  0.12760985376E+04  0.00000000000E+00 0.  1.
         21   -1    0    0  501  503 -0.00000000000E+00 -0.00000000000E+00 -0.29527615415E+02  0.29527615415E+02  0.00000000000E+00 0.  1.
          6    2    1    2  501    0 -0.54760679770E+02 -0.25588327994E+02  0.40180118849E+03  0.44154187836E+03  0.17280492092E+03 0.  0.
         24    2    3    3    0    0  0.10348861557E+02 -0.59306213962E+02  0.29649853634E+03  0.31314060595E+03  0.80754758949E+02 0.  0.
         -6    2    1    2    0  502  0.54760679770E+02  0.25588327994E+02  0.84476973368E+03  0.86408427464E+03  0.17132494321E+03 0.  0.
        -24    2    5    5    0    0 -0.20893135098E+02 -0.29510215894E+02  0.37270372923E+03  0.38280706575E+03  0.79534922327E+02 0.  0.
          5    1    3    3  501    0 -0.65109541327E+02  0.33717885968E+02  0.10530265215E+03  0.12840127241E+03  0.47000000000E+01 0. -1.
        -13    1    4    4    0    0  0.22050042327E+02 -0.93833943512E+01  0.18025544672E+02  0.29986208778E+02  0.00000000000E+00 0.  1.
         14    1    4    4    0    0 -0.11701180770E+02 -0.49922819611E+02  0.27847299167E+03  0.28315439718E+03  0.00000000000E+00 0. -1.
         -5    1    5    5    0  502  0.75653814868E+02  0.55098543888E+02  0.47206600445E+03  0.48127720889E+03  0.47000000000E+01 0.  1.
         13    1    6    6    0    0 -0.41253886589E+02  0.95304084151E+01  0.21160951139E+03  0.21580383953E+03  0.00000000000E+00 0. -1.
        -14    1    6    6    0    0  0.20360751491E+02 -0.39040624309E+02  0.16109421784E+03  0.16700322622E+03  0.00000000000E+00 0.  1.
</event>
<event>
12    1  0.8493057E-002  0.1925643E+03  0.7818608E-02  0.1158949E+00
         21   -1    0    0  503  502  0.00000000000E+00  0.00000000000E+00  0.58752762211E+02  0.58752762211E+02  0.00000000000E+00 0.  1.
         21   -1    0    0  501  503 -0.00000000000E+00 -0.00000000000E+00 -0.59318307303E+03  0.59318307303E+03  0.00000000000E+00 0.  1.
          6    2    1    2  501    0  0.81663515729E+01  0.87627690360E+02 -0.24427807595E+03  0.30369837721E+03  0.15752975754E+03 0.  0.
         24    2    3    3    0    0  0.39999657890E+02  0.25676832158E+02 -0.20127701218E+03  0.22170783075E+03  0.79891515451E+02 0.  0.
         -6    2    1    2    0  502 -0.81663515729E+01 -0.87627690360E+02 -0.29015223486E+03  0.34823745803E+03  0.17127669533E+03 0.  0.
        -24    2    5    5    0    0  0.36464064420E+02 -0.36158482871E+01 -0.19463682113E+03  0.21334806668E+03  0.79317104467E+02 0.  0.
          5    1    3    3  501    0 -0.31833306317E+02  0.61950858203E+02 -0.43001063772E+02  0.81990546459E+02  0.47000000000E+01 0. -1.
        -13    1    4    4    0    0  0.51621373826E+02  0.34097147866E+02 -0.88259497413E+02  0.10778274728E+03  0.00000000000E+00 0.  1.
         14    1    4    4    0    0 -0.11621715935E+02 -0.84203157088E+01 -0.11301751477E+03  0.11392508347E+03  0.00000000000E+00 0. -1.
         -5    1    5    5    0  502 -0.44630415993E+02 -0.84011842073E+02 -0.95515413733E+02  0.13488939136E+03  0.47000000000E+01 0.  1.
         13    1    6    6    0    0  0.31244858405E+02  0.20501852230E+02 -0.33051857262E+02  0.49889802466E+02  0.00000000000E+00 0. -1.
        -14    1    6    6    0    0  0.52192060145E+01 -0.24117700517E+02 -0.16158496387E+03  0.16345826421E+03  0.00000000000E+00 0.  1.
</event>
<event>
12    1  0.8493057E-002  0.2489592E+03  0.7818608E-02  0.1114205E+00
         21   -1    0    0  501  502  0.00000000000E+00  0.00000000000E+00  0.48491133606E+03  0.48491133606E+03  0.00000000000E+00 0. -1.
         21   -1    0    0  502  503 -0.00000000000E+00 -0.00000000000E+00 -0.12969733518E+03  0.12969733518E+03  0.00000000000E+00 0.  1.
         -6    2    1    2    0  503 -0.13033255229E+03 -0.12199048024E+03  0.22103812721E+03  0.33179449308E+03  0.17135192004E+03 0.  0.
        -24    2    3    3    0    0 -0.78285010565E+02 -0.73587651309E+02  0.22418855951E+03  0.26049375205E+03  0.77799738655E+02 0.  0.
          6    2    1    2  501    0  0.13033255229E+03  0.12199048024E+03  0.13417587367E+03  0.28281417816E+03  0.17352937169E+03 0.  0.
         24    2    5    5    0    0  0.11310595367E+03  0.16288446274E+02  0.71242069006E+02  0.15850637690E+03  0.83609621951E+02 0.  0.
          5    1    5    5  501    0  0.17226598613E+02  0.10570203397E+03  0.62933804661E+02  0.12430780126E+03  0.47000000000E+01 0. -1.
        -11    1    6    6    0    0  0.61163000067E+02  0.41738610531E+02  0.10773552198E+02  0.74827091439E+02  0.00000000000E+00 0.  1.
         12    1    6    6    0    0  0.51942953607E+02 -0.25450164256E+02  0.60468516809E+02  0.83679285460E+02  0.00000000000E+00 0. -1.
         -5    1    3    3    0  503 -0.52047541722E+02 -0.48402828935E+02 -0.31504323025E+01  0.71300741033E+02  0.47000000000E+01 0.  1.
         13    1    4    4    0    0 -0.89201306702E+02 -0.68806595788E+02  0.22115707979E+03  0.24819684664E+03  0.00000000000E+00 0. -1.
        -14    1    4    4    0    0  0.10916296136E+02 -0.47810555206E+01  0.30314797209E+01  0.12296905404E+02  0.00000000000E+00 0.  1.
</event>
<event>
12    1  0.8493057E-002  0.1773189E+03  0.7818608E-02  0.1170801E+00
         21   -1    0    0  501  502  0.00000000000E+00  0.00000000000E+00  0.14596874343E+03  0.14596874343E+03  0.00000000000E+00 0.  1.
         21   -1    0    0  502  503 -0.00000000000E+00 -0.00000000000E+00 -0.31232021182E+03  0.31232021182E+03  0.00000000000E+00 0.  1.
         -6    2    1    2    0  503  0.34351048176E+02 -0.18523119718E+02 -0.21178767351E+03  0.27524128079E+03  0.17140782807E+03 0.  0.
        -24    2    3    3    0    0  0.88177244083E+02 -0.25372792534E+02 -0.15563226694E+03  0.19701278809E+03  0.78572458159E+02 0.  0.
          6    2    1    2  501    0 -0.34351048176E+02  0.18523119718E+02  0.45436205119E+02  0.18304767446E+03  0.17297081232E+03 0.  0.
         24    2    5    5    0    0  0.33506611839E+02  0.52284959296E+02  0.25830665265E+02  0.10461942044E+03  0.80134823022E+02 0.  0.
          5    1    5    5  501    0 -0.67857660014E+02 -0.33761839578E+02  0.19605539854E+02  0.78428254011E+02  0.47000000000E+01 0. -1.
        -11    1    6    6    0    0 -0.15145298837E+02  0.21059211678E+02  0.37544605925E+02  0.45634065208E+02  0.00000000000E+00 0.  1.
         12    1    6    6    0    0  0.48651910675E+02  0.31225747618E+02 -0.11713940660E+02  0.58985355237E+02  0.00000000000E+00 0. -1.
         -5    1    3    3    0  503 -0.53826195907E+02  0.68496728162E+01 -0.56155406573E+02  0.78228492705E+02  0.47000000000E+01 0.  1.
         13    1    4    4    0    0 -0.46981604349E+01  0.14181291579E+02 -0.51387480584E+01  0.15798369344E+02  0.00000000000E+00 0. -1.
        -14    1    4    4    0    0  0.92875404518E+02 -0.39554084113E+02 -0.15049351888E+03  0.18121441874E+03  0.00000000000E+00 0.  1.
</event>
<event>
12    1  0.8493057E-002  0.1928781E+03  0.7818608E-02  0.1155963E+00
         21   -1    0    0  503  502  0.00000000000E+00  0.00000000000E+00  0.99622446607E+02  0.99622446607E+02  0.00000000000E+00 0. -1.
         21   -1    0    0  501  503 -0.00000000000E+00 -0.00000000000E+00 -0.39399066027E+03  0.39399066027E+03  0.00000000000E+00 0. -1.
          6    2    1    2  501    0 -0.63284050232E+02 -0.58581290125E+02 -0.20453973481E+03  0.28113780836E+03  0.17252630410E+03 0.  0.
         24    2    3    3    0    0 -0.79844217406E+02 -0.98336718832E+02 -0.16111883903E+03  0.21980105398E+03  0.79423004940E+02 0.  0.
         -6    2    1    2    0  502  0.63284050232E+02  0.58581290125E+02 -0.89828478852E+02  0.21247529851E+03  0.17216259262E+03 0.  0.
        -24    2    5    5    0    0  0.40654796150E+02  0.10877938703E+03 -0.41867705122E+02  0.13930250377E+03  0.64548550185E+02 0.  0.
          5    1    3    3  501    0  0.16560167174E+02  0.39755428706E+02 -0.43420895774E+02  0.61336754383E+02  0.47000000000E+01 0. -1.
        -13    1    4    4    0    0  0.80842066065E+01  0.30278276425E+00 -0.39141663992E+02  0.39968937113E+02  0.00000000000E+00 0.  1.
         14    1    4    4    0    0 -0.87928424012E+02 -0.98639501596E+02 -0.12197717504E+03  0.17983211686E+03  0.00000000000E+00 0. -1.
         -5    1    5    5    0  502  0.22629254081E+02 -0.50198096910E+02 -0.47960773730E+02  0.73172794742E+02  0.47000000000E+01 0.  1.
         11    1    6    6    0    0  0.35358512853E+02  0.63118688978E+02 -0.55693456267E+02  0.91301447964E+02  0.00000000000E+00 0. -1.
        -12    1    6    6    0    0  0.52962832975E+01  0.45660698057E+02  0.13825751145E+02  0.48001055807E+02  0.00000000000E+00 0.  1.
</event>
<event>
12    1  0.8493057E-002  0.4178261E+03  0.7818608E-02  0.1037872E+00
         21   -1    0    0  503  502  0.00000000000E+00  0.00000000000E+00  0.47427957897E+03  0.47427957897E+03  0.00000000000E+00 0.  1.
         21   -1    0    0  501  503 -0.00000000000E+00 -0.00000000000E+00 -0.43461346692E+03  0.43461346692E+03  0.00000000000E+00 0. -1.
          6    2    1    2  501    0  0.31831259968E+03  0.20923338852E+03 -0.15935197233E+03  0.44608982780E+03  0.16882405453E+03 0.  0.
         24    2    3    3    0    0  0.29198921790E+03  0.23194003017E+03 -0.14976312905E+03  0.40972297588E+03  0.79937733099E+02 0.  0.
         -6    2    1    2    0  502 -0.31831259968E+03 -0.20923338852E+03  0.19901808437E+03  0.46280321810E+03  0.17168895940E+03 0.  0.
        -24    2    5    5    0    0 -0.15901281935E+03 -0.42871526719E+02  0.56387549253E+02  0.19184519805E+03  0.80634854643E+02 0.  0.
          5    1    3    3  501    0  0.26323381782E+02 -0.22706641646E+02 -0.95888432828E+01  0.36366851923E+02  0.47000000000E+01 0. -1.
        -13    1    4    4    0    0  0.11388682714E+02  0.21289524208E+02  0.74124854563E+01  0.25256501650E+02  0.00000000000E+00 0.  1.
         14    1    4    4    0    0  0.28060053519E+03  0.21065050596E+03 -0.15717561450E+03  0.38446647423E+03  0.00000000000E+00 0. -1.
         -5    1    5    5    0  502 -0.15929978033E+03 -0.16636186181E+03  0.14263053512E+03  0.27095802004E+03  0.47000000000E+01 0.  1.
         13    1    6    6    0    0  0.75291848283E+01  0.57329266322E+01  0.13682332504E+00  0.94643432192E+01  0.00000000000E+00 0. -1.
        -14    1    6    6    0    0 -0.16654200418E+03 -0.48604453351E+02  0.56250725928E+02  0.18238085483E+03  0.00000000000E+00 0.  1.
</event>
<event>
12    1  0.8493057E-002  0.2512578E+03  0.7818608E-02  0.1112798E+00
         21   -1    0    0  501  502  0.00000000000E+00  0.00000000000E+00  0.13177938295E+04  0.13177938295E+04  0.00000000000E+00 0. -1.
         21   -1    0    0  502  503 -0.00000000000E+00 -0.00000000000E+00 -0.28427455570E+03  0.28427455570E+03  0.00000000000E+00 0.  1.
         -6    2    1    2    0  503  0.96183753800E+02  0.15201330732E+03 -0.21451225298E+03  0.32899603929E+03  0.17281066833E+03 0.  0.
        -24    2    3    3    0    0  0.44631372459E+02  0.29913966016E+01 -0.75956033083E+02  0.11903153284E+03  0.79989242943E+02 0.  0.
          6    2    1    2  501    0 -0.96183753800E+02 -0.15201330732E+03  0.12480315268E+04  0.12730723459E+04  0.17541706299E+03 0.  0.
         24    2    5    5    0    0 -0.96851010438E+02 -0.16157313764E+03  0.12453442674E+04  0.12620656684E+04  0.80258395312E+02 0.  0.
          5    1    5    5  501    0  0.66725663749E+00  0.95598303126E+01  0.26872594111E+01  0.11006677526E+02  0.47000000000E+01 0. -1.
        -11    1    6    6    0    0 -0.87579804177E+02 -0.12532145232E+03  0.75672903341E+03  0.77201976562E+03  0.00000000000E+00 0.  1.
         12    1    6    6    0    0 -0.92712062607E+01 -0.36251685320E+02  0.48861523400E+03  0.49004590280E+03  0.00000000000E+00 0. -1.
         -5    1    3    3    0  503  0.51552381341E+02  0.14902191072E+03 -0.13855621990E+03  0.20996450645E+03  0.47000000000E+01 0.  1.
         11    1    4    4    0    0 -0.20797679425E+02  0.69755586367E+01 -0.51327001821E+01  0.22528792664E+02  0.00000000000E+00 0. -1.
        -12    1    4    4    0    0  0.65429051884E+02 -0.39841620350E+01 -0.70823332900E+02  0.96502740172E+02  0.00000000000E+00 0.  1.
</event>
<event>
12    1  0.8493057E-002  0.2916901E+03  0.7818608E-02  0.1089523E+00
         21   -1    0    0  503  502  0.00000000000E+00  0.00000000000E+00  0.19419557277E+03  0.19419557277E+03  0.00000000000E+00 0. -1.
         21   -1    0    0  501  503 -0.00000000000E+00 -0.00000000000E+00 -0.45616380751E+03  0.45616380751E+03  0.00000000000E+00 0.  1.
          6    2    1    2  501    0  0.21689912177E+03  0.90381998798E+02 -0.65156010337E+02  0.29848131259E+03  0.17213847203E+03 0.  0.
         24    2    3    3    0    0  0.26891889051E+02  0.13895932427E+02 -0.25505408516E+02  0.89801828555E+02  0.80607517723E+02 0.  0.
         -6    2    1    2    0  502 -0.21689912177E+03 -0.90381998798E+02 -0.19681222441E+03  0.35187806769E+03  0.17282646820E+03 0.  0.
        -24    2    5    5    0    0 -0.18023505440E+03 -0.57640165107E+01 -0.14428401845E+03  0.24564361384E+03  0.83695927739E+02 0.  0.
          5    1    3    3  501    0  0.19000723272E+03  0.76486066371E+02 -0.39650601821E+02  0.20867948404E+03  0.47000000000E+01 0. -1.
        -13    1    4    4    0    0  0.46049329107E+02  0.27707594630E+02  0.17077022391E+01  0.53769580231E+02  0.00000000000E+00 0.  1.
         14    1    4    4    0    0 -0.19157440055E+02 -0.13811662202E+02 -0.27213110755E+02  0.36032248323E+02  0.00000000000E+00 0. -1.
         -5    1    5    5    0  502 -0.36664067374E+02 -0.84617982287E+02 -0.52528205955E+02  0.10623445384E+03  0.47000000000E+01 0.  1.
         11    1    6    6    0    0 -0.10699406403E+03 -0.30909534622E+02 -0.12172955043E+03  0.16498852238E+03  0.00000000000E+00 0. -1.
        -12    1    6    6    0    0 -0.73240990370E+02  0.25145518111E+02 -0.22554468022E+02  0.80655091465E+02  0.00000000000E+00 0.  1.
</event>
<event>
12    1  0.8493057E-002  0.2252093E+03  0.7818608E-02  0.1130351E+00
         21   -1    0    0  501  502  0.00000000000E+00  0.00000000000E+00  0.11639185254E+04  0.11639185254E+04  0.00000000000E+00 0.  1.
         21   -1    0    0  502  503 -0.00000000000E+00 -0.00000000000E+00 -0.56655463651E+02  0.56655463651E+02  0.00000000000E+00 0. -1.
         -6    2    1    2    0  503  0.11687837716E+03 -0.84762412563E+02  0.25541031029E+03  0.33945404352E+03  0.17073195197E+03 0.  0.
        -24    2    3    3    0    0  0.13809703182E+03 -0.58084092485E+02  0.25300462191E+03  0.30495996570E+03  0.80899258214E+02 0.  0.
          6    2    1    2  501    0 -0.11687837716E+03  0.84762412563E+02  0.85185275145E+03  0.88111994552E+03  0.17284104439E+03 0.  0.
         24    2    5    5    0    0  0.10429122052E+02  0.36710073864E+02  0.37682209824E+03  0.38696163274E+03  0.79297007385E+02 0.  0.
          5    1    5    5  501    0 -0.12730749921E+03  0.48052338699E+02  0.47503065320E+03  0.49415831278E+03  0.47000000000E+01 0. -1.
        -13    1    6    6    0    0  0.30207481860E+02  0.47875290839E+02  0.17649346047E+03  0.18534960756E+03  0.00000000000E+00 0.  1.
         14    1    6    6    0    0 -0.19778359808E+02 -0.11165216975E+02  0.20032863777E+03  0.20161202518E+03  0.00000000000E+00 0. -1.
         -5    1    3    3    0  503 -0.21218654657E+02 -0.26678320078E+02  0.24056883881E+01  0.34494077814E+02  0.47000000000E+01 0.  1.
         13    1    4    4    0    0  0.50270475447E+02 -0.64640565757E+02  0.13101890573E+03  0.15450397115E+03  0.00000000000E+00 0. -1.
        -14    1    4    4    0    0  0.87826556369E+02  0.65564732716E+01  0.12198571617E+03  0.15045599455E+03  0.00000000000E+00 0.  1.
</event>
<event>
12    1  0.8493057E-002  0.2076039E+03  0.7818608E-02  0.1143751E+00
         21   -1    0    0  503  502  0.00000000000E+00  0.00000000000E+00  0.29744750894E+03  0.29744750894E+03  0.00000000000E+00 0.  1.
         21   -1    0    0  501  503 -0.00000000000E+00 -0.00000000000E+00 -0.14402204267E+03  0.14402204267E+03  0.00000000000E+00 0.  1.
          6    2    1    2  501    0 -0.88350402276E+02 -0.74220312300E+02  0.81349619581E+02  0.22170992460E+03  0.17094759933E+03 0.  0.
         24    2    3    3    0    0 -0.76099700466E+02  0.93575410644E+01  0.98998904057E+01  0.11097379198E+03  0.79614362336E+02 0.  0.
         -6    2    1    2    0  502  0.88350402276E+02  0.74220312300E+02  0.72075846691E+02  0.21975962702E+03  0.17258307464E+03 0.  0.
        -24    2    5    5    0    0 -0.67493674561E+00  0.40742891853E+02 -0.11867391158E+02  0.92815521806E+02  0.82543608711E+02 0.  0.
          5    1    3    3  501    0 -0.12250701810E+02 -0.83577853364E+02  0.71449729175E+02  0.11073613262E+03  0.47000000000E+01 0. -1.
        -13    1    4    4    0    0 -0.23269358873E+02  0.22545163756E+02  0.37804324033E+02  0.49788697379E+02  0.00000000000E+00 0.  1.
         14    1    4    4    0    0 -0.52830341593E+02 -0.13187622691E+02 -0.27904433627E+02  0.61185094599E+02  0.00000000000E+00 0. -1.
         -5    1    5    5    0  502  0.89025339022E+02  0.33477420447E+02  0.83943237850E+02  0.12694410521E+03  0.47000000000E+01 0.  1.
         11    1    6    6    0    0 -0.71168535165E+01  0.33912452765E+02  0.32474826449E+02  0.47490192771E+02  0.00000000000E+00 0. -1.
        -12    1    6    6    0    0  0.64419167709E+01  0.68304390884E+01 -0.44342217607E+02  0.45325329035E+02  0.00000000000E+00 0.  1.
</event>
<event>
12    1  0.8493057E-002  0.2328302E+03  0.7818608E-02  0.1124741E+00
         21   -1    0    0  501  502  0.00000000000E+00  0.00000000000E+00  0.31907914069E+03  0.31907914069E+03  0.00000000000E+00 0. -1.
         21   -1    0    0  502  503 -0.00000000000E+00 -0.00000000000E+00 -0.39264653188E+03  0.39264653188E+03  0.00000000000E+00 0.  1.
         -6    2    1    2    0  503  0.14936549012E+03 -0.41761213471E+02 -0.30500020713E+03  0.38344065219E+03  0.17305362988E+03 0.  0.
        -24    2    3    3    0    0  0.36172702600E+02  0.28879479241E+02 -0.99764080103E+02  0.13860055652E+03  0.84349000310E+02 0.  0.
          6    2    1    2  501    0 -0.14936549012E+03  0.41761213471E+02  0.23143281594E+03  0.32828502038E+03  0.17365442039E+03 0.  0.
         24    2    5    5    0    0 -0.59198216153E+02  0.77367222884E+02  0.17623610653E+03  0.21663067908E+03  0.79872209809E+02 0.  0.
          5    1    5    5  501    0 -0.90167273971E+02 -0.35606009413E+02  0.55196709410E+02  0.11165434130E+03  0.47000000000E+01 0. -1.
        -13    1    6    6    0    0 -0.50584239546E+02  0.19253573990E+02  0.37153792228E+02  0.65649597705E+02  0.00000000000E+00 0.  1.
         14    1    6    6    0    0 -0.86139766073E+01  0.58113648894E+02  0.13908231430E+03  0.15098108137E+03  0.00000000000E+00 0. -1.
         -5    1    3    3    0  503  0.11319278752E+03 -0.70640692712E+02 -0.20523612702E+03  0.24484009568E+03  0.47000000000E+01 0.  1.
         11    1    4    4    0    0  0.54960565965E+02  0.21553555777E+02 -0.10246463111E+03  0.11825489506E+03  0.00000000000E+00 0. -1.
        -12    1    4    4    0    0 -0.18787863365E+02  0.73259234641E+01  0.27005510024E+01  0.20345661458E+02  0.00000000000E+00 0.  1.
</event>
<event>
12    1  0.8493057E-002  0.1881276E+03  0.7818608E-02  0.1160858E+00
         21   -1    0    0  503  502  0.00000000000E+00  0.00000000000E+00  0.15440074994E+03  0.15440074994E+03  0.00000000000E+00 0.  1.
         21   -1    0    0  501  503 -0.00000000000E+00 -0.00000000000E+00 -0.31752812294E+03  0.31752812294E+03  0.00000000000E+00 0.  1.
          6    2    1    2  501    0 -0.21756392263E+02 -0.65607551571E+02 -0.20902795462E+03  0.28121997419E+03  0.17496941631E+03 0.  0.
         24    2    3    3    0    0 -0.39473923646E+02 -0.22079947531E+01 -0.19417229701E+03  0.21357239267E+03  0.79669442659E+02 0.  0.
         -6    2    1    2    0  502  0.21756392263E+02  0.65607551571E+02  0.45900581628E+02  0.19070889869E+03  0.17171292677E+03 0.  0.
        -24    2    5    5    0    0 -0.45599885938E+02  0.34976466036E+02  0.57659832298E+02  0.11563892073E+03  0.82127954764E+02 0.  0.
          5    1    3    3  501    0  0.17717531383E+02 -0.63399556818E+02 -0.14855657607E+02  0.67647581523E+02  0.47000000000E+01 0. -1.
        -11    1    4    4    0    0  0.66789340744E+01 -0.32553546498E+02 -0.83849704878E+02  0.90194869910E+02  0.00000000000E+00 0.  1.
         12    1    4    4    0    0 -0.46152857721E+02  0.30345551745E+02 -0.11032259213E+03  0.12337752276E+03  0.00000000000E+00 0. -1.
         -5    1    5    5    0  502  0.67356278202E+02  0.30631085535E+02 -0.11759250670E+02  0.75069977958E+02  0.47000000000E+01 0.  1.
         11    1    6    6    0    0 -0.37959638983E+02 -0.26083061918E+01 -0.86648684715E+01  0.39023293025E+02  0.00000000000E+00 0. -1.
        -12    1    6    6    0    0 -0.76402469558E+01  0.37584772227E+02  0.66324700770E+02  0.76615627708E+02  0.00000000000E+00 0.  1.
</event>
<event>
12    1  0.8493057E-002  0.2001020E+03  0.7818608E-02  0.1150212E+00
         21   -1    0    0  501  502  0.00000000000E+00  0.00000000000E+00  0.74236571102E+03  0.74236571102E+03  0.00000000000E+00 0.  1.
         21   -1    0    0  502  503 -0.00000000000E+00 -0.00000000000E+00 -0.19974271734E+03  0.19974271734E+03  0.00000000000E+00 0. -1.
         -6    2    1    2    0  503 -0.10246107653E+03  0.15581592929E+00 -0.13164269723E+03  0.23952161182E+03  0.17187933649E+03 0.  0.
        -24    2    3    3    0    0 -0.38580669163E+02 -0.38391209769E+02 -0.12793272052E+03  0.16467220592E+03  0.88248520686E+02 0.  0.
          6    2    1    2  501    0  0.10246107653E+03 -0.15581592929E+00  0.67426569090E+03  0.70258681655E+03  0.16880674269E+03 0.  0.
         24    2    5    5    0    0  0.13456980235E+03  0.70312473241E+01  0.47441030382E+03  0.49998649597E+03  0.82236790047E+02 0.  0.
          5    1    5    5  501    0 -0.32108725827E+02 -0.71870632534E+01  0.19985538708E+03  0.20260032058E+03  0.47000000000E+01 0. -1.
        -13    1    6    6    0    0  0.34202250261E+02  0.34714420685E+02  0.21518195856E+03  0.22063127661E+03  0.00000000000E+00 0.  1.
         14    1    6    6    0    0  0.10036755209E+03 -0.27683173361E+02  0.25922834526E+03  0.27935521936E+03  0.00000000000E+00 0. -1.
         -5    1    3    3    0  503 -0.63880407365E+02  0.38547025698E+02 -0.37099767033E+01  0.74849405892E+02  0.47000000000E+01 0.  1.
         13    1    4    4    0    0  0.73731338915E+01  0.23892703284E+02 -0.20923175545E+02  0.32603736725E+02  0.00000000000E+00 0. -1.
        -14    1    4    4    0    0 -0.45953803054E+02 -0.62283913052E+02 -0.10700954498E+03  0.13206846920E+03  0.00000000000E+00 0.  1.
</event>
<event>
12    1  0.8493057E-002  0.2182444E+03  0.7818608E-02  0.1137556E+00
         21   -1    0    0  501  502  0.00000000000E+00  0.00000000000E+00  0.50987737981E+02  0.50987737981E+02  0.00000000000E+00 0.  1.
         21   -1    0    0  502  503 -0.00000000000E+00 -0.00000000000E+00 -0.11382344559E+04  0.11382344559E+04  0.00000000000E+00 0.  1.
         -6    2    1    2    0  503  0.12677826245E+02 -0.13264692761E+03 -0.81308663558E+03  0.83880192105E+03  0.15723501875E+03 0.  0.
        -24    2    3    3    0    0 -0.77266230128E+01 -0.13660562306E+02 -0.38660115769E+03  0.39553445154E+03  0.82101982692E+02 0.  0.
          6    2    1    2  501    0 -0.12677826245E+02  0.13264692761E+03 -0.27416008233E+03  0.35042027282E+03  0.17284294078E+03 0.  0.
         24    2    5    5    0    0 -0.49062574504E+02  0.14477368517E+03 -0.25411050359E+03  0.30688886160E+03  0.79006766828E+02 0.  0.
          5    1    5    5  501    0  0.36384748259E+02 -0.12126757563E+02 -0.20049578739E+02  0.43531411216E+02  0.47000000000E+01 0. -1.
        -13    1    6    6    0    0 -0.75807869988E+01  0.78781026804E+02 -0.19047858899E+03  0.20626684508E+03  0.00000000000E+00 0.  1.
         14    1    6    6    0    0 -0.41481787505E+02  0.65992658371E+02 -0.63631914604E+02  0.10062201653E+03  0.00000000000E+00 0. -1.
         -5    1    3    3    0  503  0.20404449258E+02 -0.11898636531E+03 -0.42648547788E+03  0.44326746951E+03  0.47000000000E+01 0.  1.
         11    1    4    4    0    0  0.15181078867E+02  0.16060145357E+02 -0.30408256435E+03  0.30488456728E+03  0.00000000000E+00 0. -1.
        -12    1    4    4    0    0 -0.22907701880E+02 -0.29720707663E+02 -0.82518593345E+02  0.90649884264E+02  0.00000000000E+00 0.  1.
</event>
<event>
12    1  0.8493057E-002  0.2022650E+03  0.7818608E-02  0.1149496E+00
         21   -1    0    0  503  502  0.00000000000E+00  0.00000000000E+00  0.13355985896E+03  0.13355985896E+03  0.00000000000E+00 0. -1.
         21   -1    0    0  501  503 -0.00000000000E+00 -0.00000000000E+00 -0.32017338687E+03  0.32017338687E+03  0.00000000000E+00 0. -1.
          6    2    1    2  501    0  0.68151082006E+02  0.81099499665E+02 -0.15906345575E+03  0.25731755831E+03  0.17230625072E+03 0.  0.
         24    2    3    3    0    0  0.90110570901E+02  0.67584309468E+02 -0.65022630972E+02  0.15969252954E+03  0.92661791354E+02 0.  0.
         -6    2    1    2    0  502 -0.68151082006E+02 -0.81099499665E+02 -0.27550072161E+02  0.19641568751E+03  0.16309021124E+03 0.  0.
        -24    2    5    5    0    0 -0.42798496680E+02  0.16125755536E+02  0.43925234395E+00  0.92007851996E+02  0.79834206807E+02 0.  0.
          5    1    3    3  501    0 -0.21959488895E+02  0.13515190198E+02 -0.94040824778E+02  0.97625028776E+02  0.47000000000E+01 0. -1.
        -13    1    4    4    0    0  0.95200637580E+01  0.38007267133E+02  0.15362539997E+02  0.42085527252E+02  0.00000000000E+00 0.  1.
         14    1    4    4    0    0  0.80590507143E+02  0.29577042334E+02 -0.80385170968E+02  0.11760700228E+03  0.00000000000E+00 0. -1.
         -5    1    5    5    0  502 -0.25352585326E+02 -0.97225255201E+02 -0.27989324505E+02  0.10440783552E+03  0.47000000000E+01 0.  1.
         13    1    6    6    0    0 -0.52774370738E+02 -0.11340599448E+02 -0.18642345236E+02  0.57107621545E+02  0.00000000000E+00 0. -1.
        -14    1    6    6    0    0  0.99758740580E+01  0.27466354983E+02  0.19081597580E+02  0.34900230450E+02  0.00000000000E+00 0.  1.
</event>
<event>
12    1  0.8493057E-002  0.2734693E+03  0.7818608E-02  0.1099346E+00
         21   -1    0    0  503  502  0.00000000000E+00  0.00000000000E+00  0.11328415048E+03  0.11328415048E+03  0.00000000000E+00 0.  1.
         21   -1    0    0  501  503 -0.00000000000E+00 -0.00000000000E+00 -0.70655665113E+03  0.70655665113E+03  0.00000000000E+00 0.  1.
          6    2    1    2  501    0 -0.13420732642E+03  0.16486420901E+03 -0.40224184359E+03  0.48625699855E+03  0.17162620437E+03 0.  0.
         24    2    3    3    0    0 -0.72083907863E+01  0.55591748186E+02 -0.17356176214E+03  0.20273297841E+03  0.88513117064E+02 0.  0.
         -6    2    1    2    0  502  0.13420732642E+03 -0.16486420901E+03 -0.19103065706E+03  0.33358380305E+03  0.17202798564E+03 0.  0.
        -24    2    5    5    0    0  0.80910495857E+02 -0.44750753720E+02 -0.15415281946E+03  0.19701931574E+03  0.80649741030E+02 0.  0.
          5    1    3    3  501    0 -0.12699893563E+03  0.10927246082E+03 -0.22868008145E+03  0.28352402014E+03  0.47000000000E+01 0. -1.
        -13    1    4    4    0    0 -0.94472164921E+01  0.79674267639E+02 -0.12602977983E+03  0.14940128590E+03  0.00000000000E+00 0.  1.
         14    1    4    4    0    0  0.22388257057E+01 -0.24082519454E+02 -0.47531982310E+02  0.53331692511E+02  0.00000000000E+00 0. -1.
         -5    1    5    5    0  502  0.53296830561E+02 -0.12011345529E+03 -0.36877837603E+02  0.13656448731E+03  0.47000000000E+01 0.  1.
         13    1    6    6    0    0  0.12491020849E+02  0.22646355346E+02 -0.24117301113E+02  0.35362794365E+02  0.00000000000E+00 0. -1.
        -14    1    6    6    0    0  0.68419475008E+02 -0.67397109067E+02 -0.13003551834E+03  0.16165652137E+03  0.00000000000E+00 0.  1.
</event>
<event>
12    1  0.8493057E-002  0.2234706E+03  0.7818608E-02  0.1132149E+00
         21   -1    0    0  503  502  0.00000000000E+00  0.00000000000E+00  0.26563459452E+03  0.26563459452E+03  0.00000000000E+00 0. -1.
         21   -1    0    0  501  503 -0.00000000000E+00 -0.00000000000E+00 -0.31906914150E+03  0.31906914150E+03  0.00000000000E+00 0. -1.
          6    2    1    2  501    0  0.11613528587E+03  0.19902365855E+02 -0.21659238194E+03  0.30800971686E+03  0.18459202846E+03 0.  0.
         24    2    3    3    0    0  0.76927977840E+02 -0.33471619568E+02 -0.49368977866E+02  0.12808820009E+03  0.83252795367E+02 0.  0.
         -6    2    1    2    0  502 -0.11613528587E+03 -0.19902365855E+02  0.16315783496E+03  0.27669401915E+03  0.18988310176E+03 0.  0.
        -24    2    5    5    0    0 -0.76334612416E+02 -0.89637135643E+02  0.91030698520E+02  0.16865955458E+03  0.79357848621E+02 0.  0.
          5    1    3    3  501    0  0.39207308035E+02  0.53373985423E+02 -0.16722340408E+03  0.17992151676E+03  0.47000000000E+01 0. -1.
        -13    1    4    4    0    0 -0.47874588939E+01  0.17539286095E+02 -0.20767864846E+02  0.27601639981E+02  0.00000000000E+00 0.  1.
         14    1    4    4    0    0  0.81715436734E+02 -0.51010905663E+02 -0.28601113020E+02  0.10048656011E+03  0.00000000000E+00 0. -1.
         -5    1    5    5    0  502 -0.39800673459E+02  0.69734769789E+02  0.72127136443E+02  0.10803446458E+03  0.47000000000E+01 0.  1.
         11    1    6    6    0    0 -0.43494974864E+02 -0.65071371575E+01  0.59266859904E+02  0.73801872302E+02  0.00000000000E+00 0. -1.
        -12    1    6    6    0    0 -0.32839637551E+02 -0.83129998486E+02  0.31763838616E+02  0.94857682274E+02  0.00000000000E+00 0.  1.
</event>
<event>
12    1  0.8493057E-002  0.2335922E+03  0.7818608E-02  0.1125266E+00
         21   -1    0    0  501  502  0.00000000000E+00  0.00000000000E+00  0.28695194340E+03  0.28695194340E+03  0.00000000000E+00 0.  1.
         21   -1    0    0  502  503 -0.00000000000E+00 -0.00000000000E+00 -0.25433012400E+03  0.25433012400E+03  0.00000000000E+00 0.  1.
         -6    2    1    2    0  503 -0.50317187540E+02  0.13966623601E+03 -0.12521260142E+03  0.25936540517E+03  0.17191201528E+03 0.  0.
        -24    2    3    3    0    0  0.14077549587E+02  0.60212078200E+02 -0.12079593929E+03  0.15688983604E+03  0.78734299638E+02 0.  0.
          6    2    1    2  501    0  0.50317187540E+02 -0.13966623601E+03  0.15783442082E+03  0.28191666223E+03  0.18035194260E+03 0.  0.
         24    2    5    5    0    0 -0.32734412794E+02 -0.26382417945E+02  0.81181869995E+02  0.12182763917E+03  0.80522691786E+02 0.  0.
          5    1    5    5  501    0  0.83051600334E+02 -0.11328381807E+03  0.76652550827E+02  0.16008902305E+03  0.47000000000E+01 0. -1.
        -13    1    6    6    0    0 -0.34568451454E+02 -0.47716180549E+01  0.91412893721E+02  0.97847142591E+02  0.00000000000E+00 0.  1.
         14    1    6    6    0    0  0.18340386599E+01 -0.21610799890E+02 -0.10231023727E+02  0.23980496579E+02  0.00000000000E+00 0. -1.
         -5    1    3    3    0  503 -0.64394737127E+02  0.79454157813E+02 -0.44166621302E+01  0.10247556913E+03  0.47000000000E+01 0.  1.
         13    1    4    4    0    0 -0.80270159061E+01  0.16183063574E+02  0.74241920018E+01  0.19530569830E+02  0.00000000000E+00 0. -1.
        -14    1    4    4    0    0  0.22104565493E+02  0.44029014626E+02 -0.12822013130E+03  0.13735926621E+03  0.00000000000E+00 0.  1.
</event>
<event>
12    1  0.8493057E-002  0.1882513E+03  0.7818608E-02  0.1160069E+00
         21   -1    0    0  503  502  0.00000000000E+00  0.00000000000E+00  0.23619865514E+03  0.23619865514E+03  0.00000000000E+00 0. -1.
         21   -1    0    0  501  503 -0.00000000000E+00 -0.00000000000E+00 -0.29693435650E+03  0.29693435650E+03  0.00000000000E+00 0. -1.
          6    2    1    2  501    0 -0.37005124439E+02 -0.64246123973E+02 -0.21791094325E+03  0.28796478530E+03  0.17303639705E+03 0.  0.
         24    2    3    3    0    0 -0.33878499065E+02 -0.10826485509E+03 -0.19284349569E+03  0.23699527086E+03  0.78160815205E+02 0.  0.
         -6    2    1    2    0  502  0.37005124439E+02  0.64246123973E+02  0.15717524189E+03  0.24516822634E+03  0.17293483994E+03 0.  0.
        -24    2    5    5    0    0  0.48812968286E+02  0.10093867643E+03  0.78417367727E+02  0.15735785495E+03  0.77723154088E+02 0.  0.
          5    1    3    3  501    0 -0.31266253733E+01  0.44018731115E+02 -0.25067447560E+02  0.50969514441E+02  0.47000000000E+01 0. -1.
        -13    1    4    4    0    0  0.23930923934E+02 -0.36940472226E+02 -0.44870265037E+02  0.62854023683E+02  0.00000000000E+00 0.  1.
         14    1    4    4    0    0 -0.57809423000E+02 -0.71324382862E+02 -0.14797323065E+03  0.17414124718E+03  0.00000000000E+00 0. -1.
         -5    1    5    5    0  502 -0.11807843847E+02 -0.36692552452E+02  0.78757874160E+02  0.87810371392E+02  0.47000000000E+01 0.  1.
         13    1    6    6    0    0  0.15749268527E+02  0.10179482035E+03  0.64063064220E+02  0.12130251896E+03  0.00000000000E+00 0. -1.
        -14    1    6    6    0    0  0.33063699759E+02 -0.85614392059E+00  0.14354303507E+02  0.36055335990E+02  0.00000000000E+00 0.  1.
</event>
<event>
12    1  0.8493057E-002  0.2210249E+03  0.7818608E-02  0.1133206E+00
         21   -1    0    0  503  502  0.00000000000E+00  0.00000000000E+00  0.15064106573E+03  0.15064106573E+03  0.00000000000E+00 0.  1.
         21   -1    0    0  501  503 -0.00000000000E+00 -0.00000000000E+00 -0.79773857624E+03  0.79773857624E+03  0.00000000000E+00 0.  1.
          6    2    1    2  501    0  0.16085113803E+02 -0.13781021643E+03 -0.68897734240E+03  0.72342206315E+03  0.17146228877E+03 0.  0.
         24    2    3    3    0    0 -0.36741643077E+02 -0.12265531206E+03 -0.36957189323E+03  0.39928896035E+03  0.80336888668E+02 0.  0.
         -6    2    1    2    0  502 -0.16085113803E+02  0.13781021643E+03  0.41879831889E+02  0.22495757882E+03  0.17205117062E+03 0.  0.
        -24    2    5    5    0    0 -0.15838290607E+02  0.11279512816E+03  0.94257078489E+02  0.16672286817E+03  0.77061829334E+02 0.  0.
          5    1    3    3  501    0  0.52826756880E+02 -0.15154904369E+02 -0.31940544917E+03  0.32413310280E+03  0.47000000000E+01 0. -1.
        -13    1    4    4    0    0 -0.16515095977E+02 -0.10083206521E+03 -0.34758557996E+03  0.36229213235E+03  0.00000000000E+00 0.  1.
         14    1    4    4    0    0 -0.20226547100E+02 -0.21823246852E+02 -0.21986313270E+02  0.36996827998E+02  0.00000000000E+00 0. -1.
         -5    1    5    5    0  502 -0.24682319622E+00  0.25015088274E+02 -0.52377246600E+02  0.58234710650E+02  0.47000000000E+01 0.  1.
         11    1    6    6    0    0 -0.40009950395E+01 -0.11730273450E+02  0.73572966201E+01  0.14413087458E+02  0.00000000000E+00 0. -1.
        -12    1    6    6    0    0 -0.11837295567E+02  0.12452540161E+03  0.86899781869E+02  0.15230978071E+03  0.00000000000E+00 0.  1.
</event>
<event>
12    1  0.8493057E-002  0.2486569E+03  0.7818608E-02  0.1114389E+00
         21   -1    0    0  501  502  0.00000000000E+00  0.00000000000E+00  0.54238560340E+03  0.54238560340E+03  0.00000000000E+00 0. -1.
         21   -1    0    0  502  503 -0.00000000000E+00 -0.00000000000E+00 -0.26071419036E+03  0.26071419036E+03  0.00000000000E+00 0. -1.
         -6    2    1    2    0  503 -0.14103263749E+03 -0.10890699492E+03 -0.16089789462E+03  0.29617292270E+03  0.17343393344E+03 0.  0.
        -24    2    3    3    0    0 -0.89998761989E+02 -0.13438366663E+03 -0.15208699600E+03  0.23826576265E+03  0.86494926338E+02 0.  0.
          6    2    1    2  501    0  0.14103263749E+03  0.10890699492E+03  0.44256930765E+03  0.50692687106E+03  0.17133686744E+03 0.  0.
         24    2    5    5    0    0 -0.29123616591E-01  0.30233213519E+02  0.14145850181E+03  0.16519921382E+03  0.79788623651E+02 0.  0.
          5    1    5    5  501    0  0.14106176111E+03  0.78673781403E+02  0.30111080584E+03  0.34172765724E+03  0.47000000000E+01 0. -1.
        -11    1    6    6    0    0  0.38779077124E+02  0.54474548266E+01  0.60721262044E+02  0.72253465321E+02  0.00000000000E+00 0.  1.
         12    1    6    6    0    0 -0.38808200741E+02  0.24785758692E+02  0.80737239766E+02  0.92945748497E+02  0.00000000000E+00 0. -1.
         -5    1    3    3    0  503 -0.51033875503E+02  0.25476671713E+02 -0.88108986208E+01  0.57907160049E+02  0.47000000000E+01 0.  1.
         13    1    4    4    0    0  0.15999869250E+02 -0.91227075803E+01 -0.87699486434E+01  0.20399304126E+02  0.00000000000E+00 0. -1.
        -14    1    4    4    0    0 -0.10599863124E+03 -0.12526095905E+03 -0.14331704735E+03  0.21786645852E+03  0.00000000000E+00 0.  1.
</event>
<event>
12    1  0.8493057E-002  0.1967883E+03  0.7818608E-02  0.1152639E+00
         21   -1    0    0  501  502  0.00000000000E+00  0.00000000000E+00  0.31360677718E+03  0.31360677718E+03  0.00000000000E+00 0.  1.
         21   -1    0    0  502  503 -0.00000000000E+00 -0.00000000000E+00 -0.12887869892E+03  0.12887869892E+03  0.00000000000E+00 0.  1.
         -6    2    1    2    0  503 -0.89922353251E+02  0.30704695840E+02  0.45010084704E+02  0.20114182947E+03  0.17147396268E+03 0.  0.
        -24    2    3    3    0    0 -0.23796370888E+02 -0.28242084830E+02  0.65666891114E+02  0.11005855907E+03  0.80230064274E+02 0.  0.
          6    2    1    2  501    0  0.89922353251E+02 -0.30704695840E+02  0.13971799356E+03  0.24134364663E+03  0.17232768229E+03 0.  0.
         24    2    5    5    0    0  0.80572284065E+02 -0.58204972391E+02  0.35462468580E+02  0.13301547166E+03  0.80968001408E+02 0.  0.
          5    1    5    5  501    0  0.93500691857E+01  0.27500276551E+02  0.10425552498E+03  0.10832817497E+03  0.47000000000E+01 0. -1.
        -13    1    6    6    0    0  0.27123101521E+02 -0.56385946791E+02  0.47060010279E+02  0.78292286971E+02  0.00000000000E+00 0.  1.
         14    1    6    6    0    0  0.53449182544E+02 -0.18190255996E+01 -0.11597541699E+02  0.54723184686E+02  0.00000000000E+00 0. -1.
         -5    1    3    3    0  503 -0.66125982362E+02  0.58946780670E+02 -0.20656806410E+02  0.91083270395E+02  0.47000000000E+01 0.  1.
         13    1    4    4    0    0  0.26709536971E+02 -0.11172206331E+02  0.51474240883E+01  0.29406011873E+02  0.00000000000E+00 0. -1.
        -14    1    4    4    0    0 -0.50505907860E+02 -0.17069878499E+02  0.60519467025E+02  0.80652547199E+02  0.00000000000E+00 0.  1.
</event>
<event>
12    1  0.8493057E-002  0.2081275E+03  0.7818608E-02  0.1143291E+00
         21   -1    0    0  503  502  0.00000000000E+00  0.00000000000E+00  0.67024585645E+02  0.67024585645E+02  0.00000000000E+00 0. -1.
         21   -1    0    0  501  503 -0.00000000000E+00 -0.00000000000E+00 -0.69556873235E+03  0.69556873235E+03  0.00000000000E+00 0.  1.
          6    2    1    2  501    0  0.11611226121E+03 -0.74977729081E+01 -0.20994212576E+03  0.29562265291E+03  0.17256530053E+03 0.  0.
         24    2    3    3    0    0  0.72459692594E+02  0.41550363571E+02 -0.19663062370E+03  0.22846200576E+03  0.80959533941E+02 0.  0.
         -6    2    1    2    0  502 -0.11611226121E+03  0.74977729081E+01 -0.41860202094E+03  0.46697066508E+03  0.17115979756E+03 0.  0.
        -24    2    5    5    0    0 -0.55842087453E+02  0.69183132767E+02 -0.24358162938E+03  0.27179944556E+03  0.81475664113E+02 0.  0.
          5    1    3    3  501    0  0.43652568618E+02 -0.49048136479E+02 -0.13311502057E+02  0.67160647153E+02  0.47000000000E+01 0. -1.
        -13    1    4    4    0    0  0.76591966120E+02  0.45115857229E+02 -0.10895364034E+03  0.14061531065E+03  0.00000000000E+00 0.  1.
         14    1    4    4    0    0 -0.41322735264E+01 -0.35654936575E+01 -0.87676983364E+02  0.87846695108E+02  0.00000000000E+00 0. -1.
         -5    1    5    5    0  502 -0.60270173759E+02 -0.61685359859E+02 -0.17502039156E+03  0.19517121952E+03  0.47000000000E+01 0.  1.
         11    1    6    6    0    0 -0.20843890490E+02 -0.66364676539E+01 -0.10607295306E+02  0.24311009592E+02  0.00000000000E+00 0. -1.
        -12    1    6    6    0    0 -0.34998196963E+02  0.75819600421E+02 -0.23297433408E+03  0.24748843597E+03  0.00000000000E+00 0.  1.
</event>
<event>
12    1  0.8493057E-002  0.2091518E+03  0.7818608E-02  0.1142434E+00
         21   -1    0    0  503  502  0.00000000000E+00  0.00000000000E+00  0.44151313624E+03  0.44151313624E+03  0.00000000000E+00 0.  1.
         21   -1    0    0  501  503 -0.00000000000E+00 -0.00000000000E+00 -0.10111620668E+03  0.10111620668E+03  0.00000000000E+00 0. -1.
          6    2    1    2  501    0  0.42234832049E+02  0.11120250222E+03  0.21323935867E+03  0.29868966602E+03  0.17203114533E+03 0.  0.
         24    2    3    3    0    0  0.43149501675E+02  0.14406939150E+03  0.17862934578E+03  0.25072080087E+03  0.91294072934E+02 0.  0.
         -6    2    1    2    0  502 -0.42234832049E+02 -0.11120250222E+03  0.12715757089E+03  0.24393967689E+03  0.17084419976E+03 0.  0.
        -24    2    5    5    0    0 -0.64689965535E+02 -0.13798998672E+03  0.11254275709E+03  0.20576265334E+03  0.80289284841E+02 0.  0.
          5    1    3    3  501    0 -0.91466962680E+00 -0.32866889281E+02  0.34610012891E+02  0.47968865150E+02  0.47000000000E+01 0. -1.
        -13    1    4    4    0    0  0.45009822845E+02  0.71930327237E+02  0.15146740843E+03  0.17361518351E+03  0.00000000000E+00 0.  1.
         14    1    4    4    0    0 -0.18603211694E+01  0.72139064268E+02  0.27161937353E+02  0.77105617364E+02  0.00000000000E+00 0. -1.
         -5    1    5    5    0  502  0.22455133486E+02  0.26787484493E+02  0.14614813792E+02  0.38177023555E+02  0.47000000000E+01 0.  1.
         13    1    6    6    0    0 -0.72346285233E+02 -0.62084909199E+02  0.53713012195E+02  0.10942398556E+03  0.00000000000E+00 0. -1.
        -14    1    6    6    0    0  0.76563196982E+01 -0.75905077517E+02  0.58829744900E+02  0.96338667778E+02  0.00000000000E+00 0.  1.
</event>
<event>
12    1  0.8493057E-002  0.1906184E+03  0.7818608E-02  0.1158143E+00
         21   -1    0    0  503  502  0.00000000000E+00  0.00000000000E+00  0.59492262863E+02  0.59492262863E+02  0.00000000000E+00 0.  1.
         21   -1    0    0  501  503 -0.00000000000E+00 -0.00000000000E+00 -0.89427845654E+03  0.89427845654E+03  0.00000000000E+00 0.  1.
          6    2    1    2  501    0 -0.79192009408E+02 -0.31291731231E+01 -0.68671902207E+03  0.71240120012E+03  0.17219549524E+03 0.  0.
         24    2    3    3    0    0  0.14080615618E+02  0.65199874289E+01 -0.41954273374E+03  0.42920842492E+03  0.89235601740E+02 0.  0.
         -6    2    1    2    0  502  0.79192009408E+02  0.31291731231E+01 -0.14806717161E+03  0.24136951928E+03  0.17336144742E+03 0.  0.
        -24    2    5    5    0    0  0.12092638942E+03  0.27725494851E+01 -0.13198511392E+03  0.19639610230E+03  0.80749489251E+02 0.  0.
          5    1    3    3  501    0 -0.93272625026E+02 -0.96491605520E+01 -0.26717628833E+03  0.28319277520E+03  0.47000000000E+01 0. -1.
        -11    1    4    4    0    0  0.11756797348E+01  0.15879953255E+01 -0.41449524761E+03  0.41449995687E+03  0.00000000000E+00 0.  1.
         12    1    4    4    0    0  0.12904935883E+02  0.49319921034E+01 -0.50474861284E+01  0.14708468053E+02  0.00000000000E+00 0. -1.
         -5    1    5    5    0  502 -0.41734380012E+02  0.35662363798E+00 -0.16082057686E+02  0.44973416979E+02  0.47000000000E+01 0.  1.
         13    1    6    6    0    0  0.11064576662E+02 -0.17236522781E+02  0.35457453742E+01  0.20786892133E+02  0.00000000000E+00 0. -1.
        -14    1    6    6    0    0  0.10986181276E+03  0.20009072266E+02 -0.13553085929E+03  0.17560921017E+03  0.00000000000E+00 0.  1.
</event>
<event>
12    1  0.8493057E-002  0.2334093E+03  0.7818608E-02  0.1125289E+00
         21   -1    0    0  501  502  0.00000000000E+00  0.00000000000E+00  0.87494207987E+02  0.87494207987E+02  0.00000000000E+00 0.  1.
         21   -1    0    0  502  503 -0.00000000000E+00 -0.00000000000E+00 -0.61646294633E+03  0.61646294633E+03  0.00000000000E+00 0. -1.
         -6    2    1    2    0  503 -0.65768071226E+02  0.13565627193E+03 -0.22448646678E+03  0.32384267469E+03  0.17819046238E+03 0.  0.
        -24    2    3    3    0    0 -0.10312749932E+03  0.93473606308E+02 -0.10461704757E+03  0.19130637096E+03  0.79251528289E+02 0.  0.
          6    2    1    2  501    0  0.65768071226E+02 -0.13565627193E+03 -0.30448227157E+03  0.38011447962E+03  0.17043914050E+03 0.  0.
         24    2    5    5    0    0 -0.43804505870E+01 -0.17195923994E+02 -0.15616047423E+03  0.17769137148E+03  0.82905015754E+02 0.  0.
          5    1    5    5  501    0  0.70148521813E+02 -0.11846034793E+03 -0.14832179734E+03  0.20242310815E+03  0.47000000000E+01 0. -1.
        -11    1    6    6    0    0  0.18820422638E+02  0.20974866290E+02 -0.20450768089E+02  0.34819351510E+02  0.00000000000E+00 0.  1.
         12    1    6    6    0    0 -0.23200873225E+02 -0.38170790284E+02 -0.13570970614E+03  0.14287201997E+03  0.00000000000E+00 0. -1.
         -5    1    3    3    0  503  0.37359428092E+02  0.42182665620E+02 -0.11986941921E+03  0.13253630374E+03  0.47000000000E+01 0.  1.
         13    1    4    4    0    0 -0.34950584557E+02  0.35912200456E+02 -0.86935704186E+02  0.10034463695E+03  0.00000000000E+00 0. -1.
        -14    1    4    4    0    0 -0.68176914761E+02  0.57561405851E+02 -0.17681343380E+02  0.90961734007E+02  0.00000000000E+00 0.  1.
</event>
<event>
12    1  0.8493057E-002  0.1747919E+03  0.7818608E-02  0.1173408E+00
         21   -1    0    0  501  502  0.00000000000E+00  0.00000000000E+00  0.72767197208E+02  0.72767197208E+02  0.00000000000E+00 0.  1.
         21   -1    0    0  502  503 -0.00000000000E+00 -0.00000000000E+00 -0.61070337308E+03  0.61070337308E+03  0.00000000000E+00 0.  1.
         -6    2    1    2    0  503  0.13707150631E+02  0.28977989160E+02 -0.76705539053E+02  0.19088205822E+03  0.17182726965E+03 0.  0.
        -24    2    3    3    0    0 -0.45013920755E+02  0.57076969742E+02 -0.60775942059E+02  0.12369903213E+03  0.79521706970E+02 0.  0.
          6    2    1    2  501    0 -0.13707150631E+02 -0.28977989160E+02 -0.46123063681E+03  0.49258851206E+03  0.16994743907E+03 0.  0.
         24    2    5    5    0    0 -0.41539752767E+02  0.78295682513E+01 -0.42257103703E+03  0.43220552870E+03  0.80302456402E+02 0.  0.
          5    1    5    5  501    0  0.27832602136E+02 -0.36807557411E+02 -0.38659599781E+02  0.60382983360E+02  0.47000000000E+01 0. -1.
        -11    1    6    6    0    0  0.81772729543E+01 -0.27663606729E+02 -0.16391851757E+03  0.16643744570E+03  0.00000000000E+00 0.  1.
         12    1    6    6    0    0 -0.49717025721E+02  0.35493174980E+02 -0.25865251947E+03  0.26576808300E+03  0.00000000000E+00 0. -1.
         -5    1    3    3    0  503  0.58721071386E+02 -0.28098980582E+02 -0.15929596994E+02  0.67183026092E+02  0.47000000000E+01 0.  1.
         11    1    4    4    0    0 -0.50468577432E+01 -0.15374198544E+02 -0.32415567875E+02  0.36229901940E+02  0.00000000000E+00 0. -1.
        -12    1    4    4    0    0 -0.39967063012E+02  0.72451168286E+02 -0.28360374184E+02  0.87469130187E+02  0.00000000000E+00 0.  1.
</event>
<event>
12    1  0.8493057E-002  0.2358083E+03  0.7818608E-02  0.1124718E+00
         21   -1    0    0  503  502  0.00000000000E+00  0.00000000000E+00  0.67854518327E+02  0.67854518327E+02  0.00000000000E+00 0.  1.
         21   -1    0    0  501  503 -0.00000000000E+00 -0.00000000000E+00 -0.81161449142E+03  0.81161449142E+03  0.00000000000E+00 0. -1.
          6    2    1    2  501    0 -0.11648871959E+02 -0.16131683585E+03 -0.45158951650E+03  0.50401045790E+03  0.15470821732E+03 0.  0.
         24    2    3    3    0    0 -0.38435053923E+02 -0.98575411114E+02 -0.18000936938E+03  0.22395358469E+03  0.80978206837E+02 0.  0.
         -6    2    1    2    0  502  0.11648871959E+02  0.16131683585E+03 -0.29217045659E+03  0.37545855185E+03  0.17160049739E+03 0.  0.
        -24    2    5    5    0    0  0.22975050776E+02  0.48393731897E+02 -0.51297713998E+02  0.10914730940E+03  0.80074174624E+02 0.  0.
          5    1    3    3  501    0  0.26786181964E+02 -0.62741424738E+02 -0.27158014712E+03  0.28005687321E+03  0.47000000000E+01 0. -1.
        -11    1    4    4    0    0 -0.23880671158E+01  0.26759817355E+01  0.72242156649E+01  0.80655461546E+01  0.00000000000E+00 0.  1.
         12    1    4    4    0    0 -0.36046986808E+02 -0.10125139285E+03 -0.18723358505E+03  0.21588803853E+03  0.00000000000E+00 0. -1.
         -5    1    5    5    0  502 -0.11326178817E+02  0.11292310396E+03 -0.24087274259E+03  0.26631124245E+03  0.47000000000E+01 0.  1.
         13    1    6    6    0    0 -0.26031898609E+02  0.13627988944E+02 -0.37244295621E+02  0.47439639377E+02  0.00000000000E+00 0. -1.
        -14    1    6    6    0    0  0.49006949385E+02  0.34765742952E+02 -0.14053418376E+02  0.61707670019E+02  0.00000000000E+00 0.  1.
</event>
<event>
12    1  0.8493057E-002  0.1728331E+03  0.7818608E-02  0.1175195E+00
         21   -1    0    0  501  502  0.00000000000E+00  0.00000000000E+00  0.72084379038E+03  0.72084379038E+03  0.00000000000E+00 0. -1.
         21   -1    0    0  502  503 -0.00000000000E+00 -0.00000000000E+00 -0.64896574924E+02  0.64896574924E+02  0.00000000000E+00 0. -1.
         -6    2    1    2    0  503 -0.60174711080E+01 -0.14826822207E+02  0.91145862062E+02  0.19539411045E+03  0.17209080629E+03 0.  0.
        -24    2    3    3    0    0 -0.38085816979E+02  0.30096067699E+02  0.10339466491E+03  0.13866168572E+03  0.78614907033E+02 0.  0.
          6    2    1    2  501    0  0.60174711080E+01  0.14826822207E+02  0.56480135340E+03  0.59034625486E+03  0.17103241569E+03 0.  0.
         24    2    5    5    0    0  0.50168918004E+02  0.17406857285E+02  0.19174873357E+03  0.21465175929E+03  0.80547389321E+02 0.  0.
          5    1    5    5  501    0 -0.44151446896E+02 -0.25800350788E+01  0.37305261982E+03  0.37569449557E+03  0.47000000000E+01 0. -1.
        -11    1    6    6    0    0  0.36274651412E+02  0.48962030419E+02  0.13715394711E+03  0.15008109796E+03  0.00000000000E+00 0.  1.
         12    1    6    6    0    0  0.13894266592E+02 -0.31555173134E+02  0.54594786461E+02  0.64570661328E+02  0.00000000000E+00 0. -1.
         -5    1    3    3    0  503  0.32068345871E+02 -0.44922889906E+02 -0.12248802848E+02  0.56732424729E+02  0.47000000000E+01 0.  1.
         13    1    4    4    0    0  0.85171959053E+01  0.32967872561E+02  0.12129449679E+02  0.36146186477E+02  0.00000000000E+00 0. -1.
        -14    1    4    4    0    0 -0.46603012884E+02 -0.28718048620E+01  0.91265215231E+02  0.10251549924E+03  0.00000000000E+00 0.  1.
</event>
<event>
12    1  0.8493057E-002  0.2361511E+03  0.7818608E-02  0.1122465E+00
         21   -1    0    0  503  502  0.00000000000E+00  0.00000000000E+00  0.12875232448E+03  0.12875232448E+03  0.00000000000E+00 0. -1.
         21   -1    0    0  501  503 -0.00000000000E+00 -0.00000000000E+00 -0.11390006169E+04  0.11390006169E+04  0.00000000000E+00 0.  1.
          6    2    1    2  501    0  0.15975686219E+03 -0.27914317489E+02 -0.10042418670E+04  0.10315255114E+04  0.17100201471E+03 0.  0.
         24    2    3    3    0    0  0.15351001845E+03 -0.69024153232E+02 -0.89476486773E+03  0.91432335687E+03  0.83984360996E+02 0.  0.
         -6    2    1    2    0  502 -0.15975686219E+03  0.27914317489E+02 -0.60064254348E+01  0.23622743003E+03  0.17165621868E+03 0.  0.
        -24    2    5    5    0    0 -0.34663220982E+02 -0.27910993992E+02 -0.35568763191E+02  0.96010076296E+02  0.77280239136E+02 0.  0.
          5    1    3    3  501    0  0.62468437459E+01  0.41109835742E+02 -0.10947699927E+03  0.11720215451E+03  0.47000000000E+01 0. -1.
        -11    1    4    4    0    0  0.11079668569E+03 -0.76161921085E+01 -0.46350885326E+03  0.47662812442E+03  0.00000000000E+00 0.  1.
         12    1    4    4    0    0  0.42713332758E+02 -0.61407961123E+02 -0.43125601448E+03  0.43769523245E+03  0.00000000000E+00 0. -1.
         -5    1    5    5    0  502 -0.12509364121E+03  0.55825311481E+02  0.29562337756E+02  0.14021735373E+03  0.47000000000E+01 0.  1.
         11    1    6    6    0    0 -0.36543489501E+02  0.18529098896E+02 -0.73220446023E+01  0.41621706692E+02  0.00000000000E+00 0. -1.
        -12    1    6    6    0    0  0.18802685191E+01 -0.46440092888E+02 -0.28246718589E+02  0.54388369604E+02  0.00000000000E+00 0.  1.
</event>
<event>
12    1  0.8493057E-002  0.1846173E+03  0.7818608E-02  0.1163562E+00
         21   -1    0    0  501  502  0.00000000000E+00  0.00000000000E+00  0.11252867037E+04  0.11252867037E+04  0.00000000000E+00 0. -1.
         21   -1    0    0  502  503 -0.00000000000E+00 -0.00000000000E+00 -0.46854179789E+02  0.46854179789E+02  0.00000000000E+00 0. -1.
         -6    2    1    2    0  503 -0.63877069228E+02 -0.47155634984E+01  0.19022578681E+03  0.26508376213E+03  0.17315032332E+03 0.  0.
        -24    2    3    3    0    0  0.15145962323E+02 -0.40207041026E+02  0.10775182606E+03  0.14538276508E+03  0.87633817902E+02 0.  0.
          6    2    1    2  501    0  0.63877069228E+02  0.47155634984E+01  0.88820673714E+03  0.90705712140E+03  0.17244969431E+03 0.  0.
         24    2    5    5    0    0  0.69772133675E+02 -0.57558472858E+02  0.60333919963E+03  0.61536479837E+03  0.80464382337E+02 0.  0.
          5    1    5    5  501    0 -0.58950644464E+01  0.62274036356E+02  0.28486753751E+03  0.29169232304E+03  0.47000000000E+01 0. -1.
        -11    1    6    6    0    0  0.16105059704E+02 -0.40282263209E+02  0.10168744087E+03  0.11055482489E+03  0.00000000000E+00 0.  1.
         12    1    6    6    0    0  0.53667073970E+02 -0.17276209649E+02  0.50165175876E+03  0.50480997347E+03  0.00000000000E+00 0. -1.
         -5    1    3    3    0  503 -0.79023031551E+02  0.35491477528E+02  0.82473960749E+02  0.11970099705E+03  0.47000000000E+01 0.  1.
         11    1    4    4    0    0  0.37829944668E+02 -0.24335593536E+02  0.13225193386E+02  0.46885302243E+02  0.00000000000E+00 0. -1.
        -12    1    4    4    0    0 -0.22683982345E+02 -0.15871447490E+02  0.94526632676E+02  0.98497462838E+02  0.00000000000E+00 0.  1.
</event>
<event>
12    1  0.8493057E-002  0.1820175E+03  0.7818608E-02  0.1165869E+00
         21   -1    0    0  501  502  0.00000000000E+00  0.00000000000E+00  0.64141737239E+03  0.64141737239E+03  0.00000000000E+00 0.  1.
         21   -1    0    0  502  503 -0.00000000000E+00 -0.00000000000E+00 -0.52758560454E+02  0.52758560454E+02  0.00000000000E+00 0.  1.
         -6    2    1    2    0  503 -0.47236380378E+02 -0.31532087967E+02  0.24392981891E+03  0.30434463750E+03  0.17291140396E+03 0.  0.
        -24    2    3    3    0    0 -0.72769240869E+02  0.22700531000E+02  0.10167592573E+03  0.14990576918E+03  0.79517729059E+02 0.  0.
          6    2    1    2  501    0  0.47236380378E+02  0.31532087967E+02  0.34472899303E+03  0.38983129535E+03  0.17293007834E+03 0.  0.
         24    2    5    5    0    0  0.91414864596E+02  0.32567218024E+02  0.30577687967E+03  0.33073673471E+03  0.80436225574E+02 0.  0.
          5    1    5    5  501    0 -0.44178484219E+02 -0.10351300579E+01  0.38952113357E+02  0.59094560639E+02  0.47000000000E+01 0. -1.
        -11    1    6    6    0    0  0.48445684890E+02  0.15116643095E+02  0.51640581229E+02  0.72403362578E+02  0.00000000000E+00 0.  1.
         12    1    6    6    0    0  0.42969179707E+02  0.17450574929E+02  0.25413629844E+03  0.25833337213E+03  0.00000000000E+00 0. -1.
         -5    1    3    3    0  503  0.25532860491E+02 -0.54232618966E+02  0.14225389318E+03  0.15443886832E+03  0.47000000000E+01 0.  1.
         11    1    4    4    0    0  0.15162937024E+02  0.12766958651E+02  0.90083197143E+01  0.21772912448E+02  0.00000000000E+00 0. -1.
        -12    1    4    4    0    0 -0.87932177893E+02  0.99335723491E+01  0.92667606020E+02  0.12813285673E+03  0.00000000000E+00 0.  1.
</event>
<event>
12    1  0.8493057E-002  0.1760530E+03  0.7818608E-02  0.1172076E+00
         21   -1    0    0  503  502  0.00000000000E+00  0.00000000000E+00  0.15891577117E+02  0.15891577117E+02  0.00000000000E+00 0.  1.
         21   -1    0    0  501  503 -0.00000000000E+00 -0.00000000000E+00 -0.22014105931E+04  0.22014105931E+04  0.00000000000E+00 0.  1.
          6    2    1    2  501    0  0.25212155871E+02 -0.18857146223E+02 -0.14843526000E+04  0.14947565972E+04  0.17321489268E+03 0.  0.
         24    2    3    3    0    0  0.75538144177E+02  0.19474938931E+02 -0.10321718755E+04  0.10381478463E+04  0.79289883568E+02 0.  0.
         -6    2    1    2    0  502 -0.25212155871E+02  0.18857146223E+02 -0.70116641603E+03  0.72254557305E+03  0.17159987584E+03 0.  0.
        -24    2    5    5    0    0 -0.31644720314E+02 -0.36292456559E+01 -0.16567523574E+03  0.18652326952E+03  0.79549271443E+02 0.  0.
          5    1    3    3  501    0 -0.50325988306E+02 -0.38332085154E+02 -0.45218072446E+03  0.45660875092E+03  0.47000000000E+01 0. -1.
        -13    1    4    4    0    0 -0.14168006810E+02 -0.48339329325E+01 -0.25486258689E+03  0.25530185570E+03  0.00000000000E+00 0.  1.
         14    1    4    4    0    0  0.89706150987E+02  0.24308871864E+02 -0.77730928863E+03  0.78284599058E+03  0.00000000000E+00 0. -1.
         -5    1    5    5    0  502  0.64325644429E+01  0.22486391879E+02 -0.53549118029E+03  0.53602230352E+03  0.47000000000E+01 0.  1.
         11    1    6    6    0    0 -0.45640479449E+01 -0.22475328186E+02 -0.14666109682E+03  0.14844341761E+03  0.00000000000E+00 0. -1.
        -12    1    6    6    0    0 -0.27080672369E+02  0.18846082530E+02 -0.19014138918E+02  0.38079851910E+02  0.00000000000E+00 0.  1.
</event>
<event>
12    1  0.8493057E-002  0.1803476E+03  0.7818608E-02  0.1167591E+00
         21   -1    0    0  501  502  0.00000000000E+00  0.00000000000E+00  0.50917893958E+02  0.50917893958E+02  0.00000000000E+00 0.  1.
         21   -1    0    0  502  503 -0.00000000000E+00 -0.00000000000E+00 -0.72591069299E+03  0.72591069299E+03  0.00000000000E+00 0.  1.
         -6    2    1    2    0  503  0.21920766149E+02 -0.49654281506E+02 -0.47388581798E+03  0.50704341233E+03  0.17198600480E+03 0.  0.
        -24    2    3    3    0    0 -0.17675716404E+02  0.32493555857E+02 -0.22360672760E+03  0.24062670548E+03  0.80826855906E+02 0.  0.
          6    2    1    2  501    0 -0.21920766149E+02  0.49654281506E+02 -0.20110698106E+03  0.26978517462E+03  0.17144665338E+03 0.  0.
         24    2    5    5    0    0 -0.60255170781E+02  0.80676684590E+02 -0.15666740985E+03  0.20323533194E+03  0.81366515206E+02 0.  0.
          5    1    5    5  501    0  0.38334404632E+02 -0.31022403084E+02 -0.44439571208E+02  0.66549842681E+02  0.47000000000E+01 0. -1.
        -11    1    6    6    0    0  0.87913410851E+01  0.54694159856E+02 -0.60503761100E+02  0.82033187843E+02  0.00000000000E+00 0.  1.
         12    1    6    6    0    0 -0.69046511867E+02  0.25982524734E+02 -0.96163648749E+02  0.12120214409E+03  0.00000000000E+00 0. -1.
         -5    1    3    3    0  503  0.39596482553E+02 -0.82147837363E+02 -0.25027909037E+03  0.26641670686E+03  0.47000000000E+01 0.  1.
         13    1    4    4    0    0 -0.36191938419E+02  0.15924491275E+02 -0.20699574956E+03  0.21073843068E+03  0.00000000000E+00 0. -1.
        -14    1    4    4    0    0  0.18516222015E+02  0.16569064582E+02 -0.16610978046E+02  0.29888274800E+02  0.00000000000E+00 0.  1.
</event>
<event>
12    1  0.8493057E-002  0.1853164E+03  0.7818608E-02  0.1162936E+00
         21   -1    0    0  501  502  0.00000000000E+00  0.00000000000E+00  0.15136494060E+03  0.15136494060E+03  0.00000000000E+00 0. -1.
         21   -1    0    0  502  503 -0.00000000000E+00 -0.00000000000E+00 -0.33649316467E+03  0.33649316467E+03  0.00000000000E+00 0. -1.
         -6    2    1    2    0  503  0.63255488031E+02  0.26608748520E+02 -0.23251381757E+03  0.29732950878E+03  0.17214203195E+03 0.  0.
        -24    2    3    3    0    0  0.34190474543E+02 -0.41599581860E+02 -0.18403152872E+03  0.20861776393E+03  0.82184269188E+02 0.  0.
          6    2    1    2  501    0 -0.63255488031E+02 -0.26608748520E+02  0.47385593499E+02  0.19052859649E+03  0.17130811232E+03 0.  0.
         24    2    5    5    0    0 -0.27940481576E+02  0.36711629242E+02 -0.15143188682E+02  0.94671627406E+02  0.81271068898E+02 0.  0.
          5    1    5    5  501    0 -0.35315006456E+02 -0.63320377762E+02  0.62528782181E+02  0.95856969084E+02  0.47000000000E+01 0. -1.
        -13    1    6    6    0    0  0.35617945803E+01 -0.19169260617E+02 -0.22876975939E+02  0.30058325990E+02  0.00000000000E+00 0.  1.
         14    1    6    6    0    0 -0.31502276156E+02  0.55880889859E+02  0.77337872564E+01  0.64613301415E+02  0.00000000000E+00 0. -1.
         -5    1    3    3    0  503  0.29065013488E+02  0.68208330380E+02 -0.48482288853E+02  0.88711744852E+02  0.47000000000E+01 0.  1.
         11    1    4    4    0    0  0.43870034121E+02  0.10291230989E+02 -0.94263295598E+02  0.10447994174E+03  0.00000000000E+00 0. -1.
        -12    1    4    4    0    0 -0.96795595774E+01 -0.51890812849E+02 -0.89768233121E+02  0.10413782219E+03  0.00000000000E+00 0.  1.
</event>
<event>
12    1  0.8493057E-002  0.3886646E+03  0.7818608E-02  0.1047825E+00
         21   -1    0    0  503  502  0.00000000000E+00  0.00000000000E+00  0.81949795884E+03  0.81949795884E+03  0.00000000000E+00 0. -1.
         21   -1    0    0  501  503 -0.00000000000E+00 -0.00000000000E+00 -0.19716132726E+03  0.19716132726E+03  0.00000000000E+00 0.  1.
          6    2    1    2  501    0  0.25858191221E+03  0.23313313772E+03  0.18001497720E+03  0.42783959555E+03  0.17153909838E+03 0.  0.
         24    2    3    3    0    0  0.59634415657E+02  0.12488100788E+03  0.92753318658E+02  0.18507362377E+03  0.80607310053E+02 0.  0.
         -6    2    1    2    0  502 -0.25858191221E+03 -0.23313313772E+03  0.44232165437E+03  0.58881969055E+03  0.17275565641E+03 0.  0.
        -24    2    5    5    0    0 -0.14817524938E+03 -0.21387874660E+03  0.27140809564E+03  0.38438413265E+03  0.79929870990E+02 0.  0.
          5    1    3    3  501    0  0.19894749656E+03  0.10825212984E+03  0.87261658546E+02  0.24276597178E+03  0.47000000000E+01 0. -1.
        -11    1    4    4    0    0  0.48614343013E+02  0.75702859322E+02  0.13244820397E+02  0.90937904768E+02  0.00000000000E+00 0.  1.
         12    1    4    4    0    0  0.11020072644E+02  0.49178148558E+02  0.79508498261E+02  0.94135719004E+02  0.00000000000E+00 0. -1.
         -5    1    5    5    0  502 -0.11040666284E+03 -0.19254391121E+02  0.17091355873E+03  0.20443555790E+03  0.47000000000E+01 0.  1.
         13    1    6    6    0    0 -0.10712005080E+03 -0.95659252605E+02  0.17514870255E+03  0.22650047659E+03  0.00000000000E+00 0. -1.
        -14    1    6    6    0    0 -0.41055198578E+02 -0.11821949400E+03  0.96259393094E+02  0.15788365606E+03  0.00000000000E+00 0.  1.
</event>
<event>
12    1  0.8493057E-002  0.2051361E+03  0.7818608E-02  0.1148361E+00
         21   -1    0    0  503  502  0.00000000000E+00  0.00000000000E+00  0.15280486228E+04  0.15280486228E+04  0.00000000000E+00 0.  1.
         21   -1    0    0  501  503 -0.00000000000E+00 -0.00000000000E+00 -0.29152415766E+02  0.29152415766E+02  0.00000000000E+00 0. -1.
          6    2    1    2  501    0 -0.21186754461E+02  0.10847786178E+03  0.10383991582E+04  0.10584675906E+04  0.17281349316E+03 0.  0.
         24    2    3    3    0    0 -0.80272246921E+02  0.59159044672E+02  0.68162063226E+03  0.69345190908E+03  0.79532620324E+02 0.  0.
         -6    2    1    2    0  502  0.21186754461E+02 -0.10847786178E+03  0.46049704883E+03  0.49873344802E+03  0.15640075169E+03 0.  0.
        -24    2    5    5    0    0  0.48120541473E+02 -0.88665625095E+02  0.44074179695E+03  0.45961422535E+03  0.82551347541E+02 0.  0.
          5    1    3    3  501    0  0.59085492460E+02  0.49318817112E+02  0.35677852597E+03  0.36501568149E+03  0.47000000000E+01 0. -1.
        -13    1    4    4    0    0 -0.36840643896E+02  0.57366712912E+02  0.56308415309E+03  0.56719655875E+03  0.00000000000E+00 0.  1.
         14    1    4    4    0    0 -0.43431603024E+02  0.17923317599E+01  0.11853647917E+03  0.12625535033E+03  0.00000000000E+00 0. -1.
         -5    1    5    5    0  502 -0.26933787012E+02 -0.19812236688E+02  0.19755251884E+02  0.39119222672E+02  0.47000000000E+01 0.  1.
         13    1    6    6    0    0  0.58829609037E+02 -0.29032092795E+02  0.28614578583E+03  0.29356974650E+03  0.00000000000E+00 0. -1.
        -14    1    6    6    0    0 -0.10709067564E+02 -0.59633532300E+02  0.15459601112E+03  0.16604447885E+03  0.00000000000E+00 0.  1.
</event>
<event>
12    1  0.8493057E-002  0.1954010E+03  0.7818608E-02  0.1154194E+00
         21   -1    0    0  503  502  0.00000000000E+00  0.00000000000E+00  0.24416192223E+03  0.24416192223E+03  0.00000000000E+00 0. -1.
         21   -1    0    0  501  503 -0.00000000000E+00 -0.00000000000E+00 -0.19000680699E+03  0.19000680699E+03  0.00000000000E+00 0. -1.
          6    2    1    2  501    0  0.88560431405E+02  0.67418901624E+01 -0.66900357516E+02  0.20430797368E+03  0.17139920414E+03 0.  0.
         24    2    3    3    0    0 -0.19626758613E+02 -0.16240704384E+01 -0.29964908828E+02  0.89587553745E+02  0.82098640467E+02 0.  0.
         -6    2    1    2    0  502 -0.88560431405E+02 -0.67418901624E+01  0.12105547276E+03  0.22986075553E+03  0.17404923544E+03 0.  0.
        -24    2    5    5    0    0 -0.60434226051E+02  0.63297476487E+02  0.61791663440E+02  0.13378325867E+03  0.80130421329E+02 0.  0.
          5    1    3    3  501    0  0.10818719002E+03  0.83659606008E+01 -0.36935448688E+02  0.11472041994E+03  0.47000000000E+01 0. -1.
        -13    1    4    4    0    0 -0.10657791298E+02 -0.10353444779E+02  0.27240258757E+02  0.31029244775E+02  0.00000000000E+00 0.  1.
         14    1    4    4    0    0 -0.89689673143E+01  0.87293743403E+01 -0.57205167585E+02  0.58558308970E+02  0.00000000000E+00 0. -1.
         -5    1    5    5    0  502 -0.28126205354E+02 -0.70039366649E+02  0.59263809317E+02  0.96077496860E+02  0.47000000000E+01 0.  1.
         11    1    6    6    0    0 -0.13701161869E+02  0.65822049731E+02  0.17793047129E+02  0.69547513209E+02  0.00000000000E+00 0. -1.
        -12    1    6    6    0    0 -0.46733064182E+02 -0.25245732450E+01  0.43998616312E+02  0.64235745463E+02  0.00000000000E+00 0.  1.
</event>
<event>
12    1  0.8493057E-002  0.1893362E+03  0.7818608E-02  0.1159466E+00
         21   -1    0    0  503  502  0.00000000000E+00  0.00000000000E+00  0.10005821233E+03  0.10005821233E+03  0.00000000000E+00 0. -1.
         21   -1    0    0  501  503 -0.00000000000E+00 -0.00000000000E+00 -0.36608764015E+03  0.36608764015E+03  0.00000000000E+00 0. -1.
          6    2    1    2  501    0  0.79728993724E+01  0.74307613983E+02 -0.17433404676E+03  0.25737242258E+03  0.17396268400E+03 0.  0.
         24    2    3    3    0    0 -0.28639151522E+01  0.10414040229E+03 -0.18181934109E+03  0.22442471494E+03  0.80341486693E+02 0.  0.
         -6    2    1    2    0  502 -0.79728993724E+01 -0.74307613983E+02 -0.91695381063E+02  0.20877342990E+03  0.17202649070E+03 0.  0.
        -24    2    5    5    0    0 -0.20079331104E+02 -0.58132232208E+02 -0.13013851007E+03  0.16509079224E+03  0.80848017416E+02 0.  0.
          5    1    3    3  501    0  0.10836814525E+02 -0.29832788309E+02  0.74852943287E+01  0.32947707637E+02  0.47000000000E+01 0. -1.
        -13    1    4    4    0    0  0.12331614274E+02 -0.99132295174E+01 -0.30150799289E+02  0.34050132567E+02  0.00000000000E+00 0.  1.
         14    1    4    4    0    0 -0.15195529426E+02  0.11405363181E+03 -0.15166854180E+03  0.19037458237E+03  0.00000000000E+00 0. -1.
         -5    1    5    5    0  502  0.12106431731E+02 -0.16175381775E+02  0.38443129007E+02  0.43682637657E+02  0.47000000000E+01 0.  1.
         13    1    6    6    0    0  0.72128056818E+01 -0.29061947172E+02 -0.10259118738E+01  0.29961205490E+02  0.00000000000E+00 0. -1.
        -14    1    6    6    0    0 -0.27292136785E+02 -0.29070285037E+02 -0.12911259820E+03  0.13512958675E+03  0.00000000000E+00 0.  1.
</event>
<event>
12    1  0.8493057E-002  0.1849306E+03  0.7818608E-02  0.1163694E+00
         21   -1    0    0  501  502  0.00000000000E+00  0.00000000000E+00  0.42571387848E+03  0.42571387848E+03  0.00000000000E+00 0.  1.
         21   -1    0    0  502  503 -0.00000000000E+00 -0.00000000000E+00 -0.88441266330E+02  0.88441266330E+02  0.00000000000E+00 0.  1.
         -6    2    1    2    0  503 -0.55835104006E+02  0.35489267545E+02  0.84833374723E+02  0.20122558982E+03  0.17005290230E+03 0.  0.
        -24    2    3    3    0    0 -0.78761958465E+02  0.60206773981E+02  0.20607207072E+02  0.12853661960E+03  0.79175146734E+02 0.  0.
          6    2    1    2  501    0  0.55835104006E+02 -0.35489267545E+02  0.25243923743E+03  0.31292955500E+03  0.17269131665E+03 0.  0.
         24    2    5    5    0    0  0.79119305884E+02  0.27338118904E+02  0.13550846032E+03  0.17808026438E+03  0.79641700345E+02 0.  0.
          5    1    5    5  501    0 -0.23284201878E+02 -0.62827386449E+02  0.11693077711E+03  0.13484929062E+03  0.47000000000E+01 0. -1.
        -11    1    6    6    0    0 -0.11725509313E+02 -0.83226417350E+01  0.35701674653E+02  0.38488485383E+02  0.00000000000E+00 0.  1.
         12    1    6    6    0    0  0.90844815197E+02  0.35660760639E+02  0.99806785666E+02  0.13959177899E+03  0.00000000000E+00 0. -1.
         -5    1    3    3    0  503  0.22926854459E+02 -0.24717506436E+02  0.64226167652E+02  0.72688970216E+02  0.47000000000E+01 0.  1.
         13    1    4    4    0    0 -0.73763642241E+02  0.93440280246E+01  0.27669292867E+01  0.74404581002E+02  0.00000000000E+00 0. -1.
        -14    1    4    4    0    0 -0.49983162240E+01  0.50862745956E+02  0.17840277785E+02  0.54132038598E+02  0.00000000000E+00 0.  1.
</event>
<event>
12    1  0.8493057E-002  0.2264179E+03  0.7818608E-02  0.1129273E+00
         21   -1    0    0  501  502  0.00000000000E+00  0.00000000000E+00  0.95906223605E+02  0.95906223605E+02  0.00000000000E+00 0.  1.
         21   -1    0    0  502  503 -0.00000000000E+00 -0.00000000000E+00 -0.66027923611E+03  0.66027923611E+03  0.00000000000E+00 0.  1.
         -6    2    1    2    0  503  0.86953642832E+02  0.11739229212E+03 -0.44768345242E+03  0.50146697338E+03  0.17235650718E+03 0.  0.
        -24    2    3    3    0    0  0.15025114183E+02  0.12959253929E+03 -0.29856237152E+03  0.33538944319E+03  0.79539981269E+02 0.  0.
          6    2    1    2  501    0 -0.86953642832E+02 -0.11739229212E+03 -0.11668956008E+03  0.25471848634E+03  0.17298314252E+03 0.  0.
         24    2    5    5    0    0 -0.26199929966E+02 -0.47689792657E+02 -0.12949524493E+03  0.16125444179E+03  0.79203686053E+02 0.  0.
          5    1    5    5  501    0 -0.60753712866E+02 -0.69702499467E+02  0.12805684843E+02  0.93464044547E+02  0.47000000000E+01 0. -1.
        -13    1    6    6    0    0 -0.28281306638E+02 -0.65028780382E+02 -0.71559481294E+02  0.10074390277E+03  0.00000000000E+00 0.  1.
         14    1    6    6    0    0  0.20813766723E+01  0.17338987726E+02 -0.57935763633E+02  0.60510539015E+02  0.00000000000E+00 0. -1.
         -5    1    3    3    0  503  0.71928528649E+02 -0.12200247166E+02 -0.14912108090E+03  0.16607753019E+03  0.47000000000E+01 0.  1.
         13    1    4    4    0    0  0.61634541982E+01 -0.71591726409E+01 -0.56014147244E+02  0.56805163604E+02  0.00000000000E+00 0. -1.
        -14    1    4    4    0    0  0.88616599844E+01  0.13675171193E+03 -0.24254822428E+03  0.27858427959E+03  0.00000000000E+00 0.  1.
</event>
<event>
12    1  0.8493057E-002  0.1868761E+03  0.7818608E-02  0.1161315E+00
         21   -1    0    0  503  502  0.00000000000E+00  0.00000000000E+00  0.14971684107E+03  0.14971684107E+03  0.00000000000E+00 0.  1.
         21   -1    0    0  501  503 -0.00000000000E+00 -0.00000000000E+00 -0.34295303452E+03  0.34295303452E+03  0.00000000000E+00 0.  1.
          6    2    1    2  501    0  0.59071410704E+02  0.43334164090E+02 -0.23594825714E+03  0.30097479856E+03  0.17189231507E+03 0.  0.
         24    2    3    3    0    0  0.79646291313E+02 -0.21164273961E+02 -0.17849929264E+03  0.21205996433E+03  0.79473094738E+02 0.  0.
         -6    2    1    2    0  502 -0.59071410704E+02 -0.43334164090E+02  0.42712063695E+02  0.19169507703E+03  0.17191684279E+03 0.  0.
        -24    2    5    5    0    0 -0.80086289597E+02  0.21736196995E+02  0.25580364294E+01  0.11225822833E+03  0.75558521926E+02 0.  0.
          5    1    3    3  501    0 -0.20574880609E+02  0.64498438051E+02 -0.57448964498E+02  0.88914834224E+02  0.47000000000E+01 0. -1.
        -13    1    4    4    0    0  0.85219295120E+02  0.72465937780E+01 -0.13222343891E+03  0.15747342373E+03  0.00000000000E+00 0.  1.
         14    1    4    4    0    0 -0.55730038075E+01 -0.28410867739E+02 -0.46275853731E+02  0.54586540609E+02  0.00000000000E+00 0. -1.
         -5    1    5    5    0  502  0.21014878893E+02 -0.65070361085E+02  0.40154027265E+02  0.79436848706E+02  0.47000000000E+01 0.  1.
         13    1    6    6    0    0  0.43834427910E+01 -0.13055142788E+02 -0.13749268010E+02  0.19460053822E+02  0.00000000000E+00 0. -1.
        -14    1    6    6    0    0 -0.84469732388E+02  0.34791339783E+02  0.16307304440E+02  0.92798174506E+02  0.00000000000E+00 0.  1.
</event>
<event>
12    1  0.8493057E-002  0.2188333E+03  0.7818608E-02  0.1134798E+00
         21   -1    0    0  503  502  0.00000000000E+00  0.00000000000E+00  0.38414896033E+03  0.38414896033E+03  0.00000000000E+00 0.  1.
         21   -1    0    0  501  503 -0.00000000000E+00 -0.00000000000E+00 -0.12577937465E+03  0.12577937465E+03  0.00000000000E+00 0.  1.
          6    2    1    2  501    0  0.13351281634E+03  0.18712856137E+02  0.15451772187E+03  0.26770276796E+03  0.17208487003E+03 0.  0.
         24    2    3    3    0    0  0.16065183346E+02  0.46169129600E+02  0.42045666779E+02  0.10271838499E+03  0.79959676564E+02 0.  0.
         -6    2    1    2    0  502 -0.13351281634E+03 -0.18712856137E+02  0.10385186381E+03  0.24222556701E+03  0.17237219202E+03 0.  0.
        -24    2    5    5    0    0 -0.18285479329E+02 -0.26267583115E+02  0.88157989702E+02  0.12559452149E+03  0.83533274819E+02 0.  0.
          5    1    3    3  501    0  0.11744763300E+03 -0.27456273463E+02  0.11247205509E+03  0.16498438297E+03  0.47000000000E+01 0. -1.
        -13    1    4    4    0    0  0.13116533476E+02  0.60334494805E+02  0.38381624143E+01  0.61862963108E+02  0.00000000000E+00 0.  1.
         14    1    4    4    0    0  0.29486498703E+01 -0.14165365205E+02  0.38207504365E+02  0.40855421883E+02  0.00000000000E+00 0. -1.
         -5    1    5    5    0  502 -0.11522733701E+03  0.75547269772E+01  0.15693874109E+02  0.11663104552E+03  0.47000000000E+01 0.  1.
         11    1    6    6    0    0  0.12546231068E+02  0.18315331745E+02  0.11227511565E+00  0.22200718381E+02  0.00000000000E+00 0. -1.
        -12    1    6    6    0    0 -0.30831710397E+02 -0.44582914859E+02  0.88045714587E+02  0.10339380310E+03  0.00000000000E+00 0.  1.
</event>
<event>
12    1  0.8493057E-002  0.1919045E+03  0.7818608E-02  0.1157916E+00
         21   -1    0    0  503  502  0.00000000000E+00  0.00000000000E+00  0.26273606465E+03  0.26273606465E+03  0.00000000000E+00 0. -1.
         21   -1    0    0  501  503 -0.00000000000E+00 -0.00000000000E+00 -0.14379918617E+04  0.14379918617E+04  0.00000000000E+00 0. -1.
          6    2    1    2  501    0 -0.45854386365E+02 -0.58787689627E+02 -0.13958806937E+04  0.14083194956E+04  0.17123747718E+03 0.  0.
         24    2    3    3    0    0 -0.55244499597E+02 -0.41739029376E+02 -0.44903236161E+03  0.46125947378E+03  0.79599868546E+02 0.  0.
         -6    2    1    2    0  502  0.45854386365E+02  0.58787689627E+02  0.22062489665E+03  0.29240843070E+03  0.17682965849E+03 0.  0.
        -24    2    5    5    0    0 -0.31252968709E+02  0.54770971085E+02  0.72022254867E+02  0.12487779655E+03  0.80191343347E+02 0.  0.
          5    1    3    3  501    0  0.93901132322E+01 -0.17048660251E+02 -0.94684833208E+03  0.94706002186E+03  0.47000000000E+01 0. -1.
        -11    1    4    4    0    0 -0.14335500167E+02 -0.59114187157E+02 -0.24438433015E+03  0.25184061330E+03  0.00000000000E+00 0.  1.
         12    1    4    4    0    0 -0.40908999430E+02  0.17375157782E+02 -0.20464803146E+03  0.20941886048E+03  0.00000000000E+00 0. -1.
         -5    1    5    5    0  502  0.77107355074E+02  0.40167185420E+01  0.14860264178E+03  0.16753063415E+03  0.47000000000E+01 0.  1.
         11    1    6    6    0    0  0.27233078575E+01  0.12066748386E+02  0.69131877069E+02  0.70229902814E+02  0.00000000000E+00 0. -1.
        -12    1    6    6    0    0 -0.33976276567E+02  0.42704222699E+02  0.28903777988E+01  0.54647893734E+02  0.00000000000E+00 0.  1.
</event>
<event>
12    1  0.8493057E-002  0.2449538E+03  0.7818608E-02  0.1118553E+00
         21   -1    0    0  501  502  0.00000000000E+00  0.00000000000E+00  0.41578697987E+03  0.41578697987E+03  0.00000000000E+00 0.  1.
         21   -1    0    0  502  503 -0.00000000000E+00 -0.00000000000E+00 -0.13781213571E+03  0.13781213571E+03  0.00000000000E+00 0. -1.
         -6    2    1    2    0  503 -0.14779562558E+03  0.86628771973E+02  0.11809783551E+03  0.26108757652E+03  0.15770711076E+03 0.  0.
        -24    2    3    3    0    0 -0.16029017578E+03  0.61723043411E+02  0.63886765461E+02  0.19995379522E+03  0.79983291258E+02 0.  0.
          6    2    1    2  501    0  0.14779562558E+03 -0.86628771973E+02  0.15987700864E+03  0.29251153907E+03  0.17508355583E+03 0.  0.
         24    2    5    5    0    0  0.69849106268E+02 -0.88857269996E+02  0.16356042691E+03  0.21430486642E+03  0.80000315264E+02 0.  0.
          5    1    5    5  501    0  0.77946519311E+02  0.22284980236E+01 -0.36834182715E+01  0.78206672645E+02  0.47000000000E+01 0. -1.
        -11    1    6    6    0    0  0.38590308281E+01 -0.69353523793E+02  0.76413475304E+02  0.10326578615E+03  0.00000000000E+00 0.  1.
         12    1    6    6    0    0  0.65990075440E+02 -0.19503746204E+02  0.87146951610E+02  0.11103908027E+03  0.00000000000E+00 0. -1.
         -5    1    3    3    0  503  0.12494550202E+02  0.24905728561E+02  0.54211070053E+02  0.61133781301E+02  0.47000000000E+01 0.  1.
         13    1    4    4    0    0 -0.14415000329E+03  0.78951951330E+02  0.47050557852E+02  0.17095727262E+03  0.00000000000E+00 0. -1.
        -14    1    4    4    0    0 -0.16140172493E+02 -0.17228907918E+02  0.16836207609E+02  0.28996522599E+02  0.00000000000E+00 0.  1.
</event>
<event>
12    1  0.8493057E-002  0.1819655E+03  0.7818608E-02  0.1166314E+00
         21   -1    0    0  503  502  0.00000000000E+00  0.00000000000E+00  0.51122384957E+03  0.51122384957E+03  0.00000000000E+00 0. -1.
         21   -1    0    0  501  503 -0.00000000000E+00 -0.00000000000E+00 -0.89465999051E+02  0.89465999051E+02  0.00000000000E+00 0. -1.
          6    2    1    2  501    0  0.10384617790E+02 -0.52636847829E+02  0.50503538342E+02  0.18723946803E+03  0.17213231239E+03 0.  0.
         24    2    3    3    0    0  0.67149145180E+02 -0.34968139533E+01  0.41356595832E+02  0.11145879070E+03  0.78685822103E+02 0.  0.
         -6    2    1    2    0  502 -0.10384617790E+02  0.52636847829E+02  0.37125431217E+03  0.41345038058E+03  0.17387632059E+03 0.  0.
        -24    2    5    5    0    0  0.56264598422E+02  0.56807251642E+02  0.19292325517E+03  0.22296792423E+03  0.78118781177E+02 0.  0.
          5    1    3    3  501    0 -0.56764527390E+02 -0.49140033876E+02  0.91469425109E+01  0.75780677329E+02  0.47000000000E+01 0. -1.
        -13    1    4    4    0    0  0.29952967604E+02  0.36821814772E+02  0.10847606872E+02  0.48689802692E+02  0.00000000000E+00 0.  1.
         14    1    4    4    0    0  0.37196177576E+02 -0.40318628725E+02  0.30508988960E+02  0.62768988011E+02  0.00000000000E+00 0. -1.
         -5    1    5    5    0  502 -0.66649216213E+02 -0.41704038131E+01  0.17833105700E+03  0.19048245636E+03  0.47000000000E+01 0.  1.
         13    1    6    6    0    0 -0.15694635469E+02  0.32015734213E+02  0.59765236340E+02  0.69593191438E+02  0.00000000000E+00 0. -1.
        -14    1    6    6    0    0  0.71959233891E+02  0.24791517430E+02  0.13315801883E+03  0.15337473279E+03  0.00000000000E+00 0.  1.
</event>
<event>
12    1  0.8493057E-002  0.1925905E+03  0.7818608E-02  0.1156448E+00
         21   -1    0    0  503  502  0.00000000000E+00  0.00000000000E+00  0.10639532911E+04  0.10639532911E+04  0.00000000000E+00 0.  1.
         21   -1    0    0  501  503 -0.00000000000E+00 -0.00000000000E+00 -0.41747262809E+02  0.41747262809E+02  0.00000000000E+00 0. -1.
          6    2    1    2  501    0 -0.32037585835E+02  0.80398382536E+02  0.28110163303E+03  0.33998075193E+03  0.17052412372E+03 0.  0.
         24    2    3    3    0    0 -0.71190708314E+02  0.87573481199E+02  0.15684827481E+03  0.20942258072E+03  0.80741590552E+02 0.  0.
         -6    2    1    2    0  502  0.32037585835E+02 -0.80398382536E+02  0.74110439523E+03  0.76571980194E+03  0.17204878275E+03 0.  0.
        -24    2    5    5    0    0 -0.30664381885E+02 -0.14244658269E+01  0.44575519286E+03  0.45359537545E+03  0.78158424043E+02 0.  0.
          5    1    3    3  501    0  0.39153122479E+02 -0.71750986631E+01  0.12425335822E+03  0.13055817121E+03  0.47000000000E+01 0. -1.
        -13    1    4    4    0    0 -0.20584167319E+01  0.66220495698E+02  0.80005093081E+02  0.10387591660E+03  0.00000000000E+00 0.  1.
         14    1    4    4    0    0 -0.69132291582E+02  0.21352985501E+02  0.76843181731E+02  0.10554666412E+03  0.00000000000E+00 0. -1.
         -5    1    5    5    0  502  0.62701967720E+02 -0.78973916709E+02  0.29534920237E+03  0.31212442650E+03  0.47000000000E+01 0.  1.
         11    1    6    6    0    0  0.78478076763E+01 -0.30550064386E+01  0.26670569662E+01  0.88337049150E+01  0.00000000000E+00 0. -1.
        -12    1    6    6    0    0 -0.38512189561E+02  0.16305406117E+01  0.44308813589E+03  0.44476167053E+03  0.00000000000E+00 0.  1.
</event>
<event>
12    1  0.8493057E-002  0.2745967E+03  0.7818608E-02  0.1098851E+00
         21   -1    0    0  501  502  0.00000000000E+00  0.00000000000E+00  0.72023392470E+02  0.72023392470E+02  0.00000000000E+00 0. -1.
         21   -1    0    0  502  503 -0.00000000000E+00 -0.00000000000E+00 -0.11468778879E+04  0.11468778879E+04  0.00000000000E+00 0. -1.
         -6    2    1    2    0  503 -0.14169550095E+03  0.15881507777E+03 -0.72043555279E+03  0.77055305214E+03  0.17153651658E+03 0.  0.
        -24    2    3    3    0    0 -0.49217343826E+02  0.20059896021E+02 -0.16897603002E+03  0.19441513005E+03  0.80122392078E+02 0.  0.
          6    2    1    2  501    0  0.14169550095E+03 -0.15881507777E+03 -0.35441894260E+03  0.44834822819E+03  0.17350361071E+03 0.  0.
         24    2    5    5    0    0  0.16941089521E+03 -0.13709762601E+03 -0.26708174687E+03  0.35406319996E+03  0.80822519025E+02 0.  0.
          5    1    5    5  501    0 -0.27715394262E+02 -0.21717451758E+02 -0.87337195730E+02  0.94285028228E+02  0.47000000000E+01 0. -1.
        -11    1    6    6    0    0  0.12648582930E+03 -0.51298257229E+02 -0.15529972998E+03  0.20675633567E+03  0.00000000000E+00 0.  1.
         12    1    6    6    0    0  0.42925065911E+02 -0.85799368782E+02 -0.11178201689E+03  0.14730686429E+03  0.00000000000E+00 0. -1.
         -5    1    3    3    0  503 -0.92478157123E+02  0.13875518175E+03 -0.55145952277E+03  0.57613792208E+03  0.47000000000E+01 0.  1.
         13    1    4    4    0    0  0.11955221067E+02  0.28832488334E+02 -0.81834423935E+02  0.87584888166E+02  0.00000000000E+00 0. -1.
        -14    1    4    4    0    0 -0.61172564893E+02 -0.87725923133E+01 -0.87141606081E+02  0.10683024189E+03  0.00000000000E+00 0.  1.
</event>
<event>
12    1  0.8493057E-002  0.1800198E+03  0.7818608E-02  0.1168439E+00
         21   -1    0    0  503  502  0.00000000000E+00  0.00000000000E+00  0.24141422193E+03  0.24141422193E+03  0.00000000000E+00 0.  1.
         21   -1    0    0  501  503 -0.00000000000E+00 -0.00000000000E+00 -0.19795677928E+03  0.19795677928E+03  0.00000000000E+00 0.  1.
          6    2    1    2  501    0  0.29212261582E+02  0.35053399338E+02 -0.10495048386E+03  0.20606426707E+03  0.17136446852E+03 0.  0.
         24    2    3    3    0    0  0.18683076835E+02  0.35263954803E+02 -0.14116813560E+03  0.16805484242E+03  0.81984045286E+02 0.  0.
         -6    2    1    2    0  502 -0.29212261582E+02 -0.35053399338E+02  0.14840792652E+03  0.23330673413E+03  0.17414081230E+03 0.  0.
        -24    2    5    5    0    0 -0.39535501657E+01 -0.84826244523E+02  0.71005724662E+02  0.13776339594E+03  0.82011084668E+02 0.  0.
          5    1    3    3  501    0  0.10529184747E+02 -0.21055546566E+00  0.36217651744E+02  0.38009424659E+02  0.47000000000E+01 0. -1.
        -13    1    4    4    0    0  0.12440639685E+02 -0.13196472577E+02 -0.10677216300E+03  0.10830148289E+03  0.00000000000E+00 0.  1.
         14    1    4    4    0    0  0.62424371497E+01  0.48460427380E+02 -0.34395972603E+02  0.59753359527E+02  0.00000000000E+00 0. -1.
         -5    1    5    5    0  502 -0.25258711416E+02  0.49772845185E+02  0.77402201856E+02  0.95543338190E+02  0.47000000000E+01 0.  1.
         11    1    6    6    0    0  0.21963256876E+02 -0.36227665236E+02  0.71008248456E+02  0.82686151983E+02  0.00000000000E+00 0. -1.
        -12    1    6    6    0    0 -0.25916807042E+02 -0.48598579287E+02 -0.25237939521E-02  0.55077243961E+02  0.00000000000E+00 0.  1.
</event>
<event>
12    1  0.8493057E-002  0.1843283E+03  0.7818608E-02  0.1163714E+00
         21   -1    0    0  501  502  0.00000000000E+00  0.00000000000E+00  0.12016979521E+03  0.12016979521E+03  0.00000000000E+00 0. -1.
         21   -1    0    0  502  503 -0.00000000000E+00 -0.00000000000E+00 -0.28287877198E+03  0.28287877198E+03  0.00000000000E+00 0.  1.
         -6    2    1    2    0  503  0.89944433605E+01 -0.65547275656E+02 -0.88613066637E+02  0.20438518007E+03  0.17188275334E+03 0.  0.
        -24    2    3    3    0    0 -0.35729313884E+02 -0.85989311555E+02 -0.25986499355E+02  0.12462135229E+03  0.78641196102E+02 0.  0.
          6    2    1    2  501    0 -0.89944433605E+01  0.65547275656E+02 -0.74095910138E+02  0.19866338712E+03  0.17204531998E+03 0.  0.
         24    2    5    5    0    0 -0.56749166293E+02  0.33870577218E+02 -0.91121313743E+02  0.13869772066E+03  0.81032586171E+02 0.  0.
          5    1    5    5  501    0  0.47754722932E+02  0.31676698438E+02  0.17025403606E+02  0.59965666462E+02  0.47000000000E+01 0. -1.
        -11    1    6    6    0    0 -0.36963875923E+02 -0.18190341684E+02 -0.13882166387E+02  0.43473338926E+02  0.00000000000E+00 0.  1.
         12    1    6    6    0    0 -0.19785290370E+02  0.52060918902E+02 -0.77239147357E+02  0.95224381732E+02  0.00000000000E+00 0. -1.
         -5    1    3    3    0  503  0.44723757245E+02  0.20442035899E+02 -0.62626567282E+02  0.79763827787E+02  0.47000000000E+01 0.  1.
         13    1    4    4    0    0 -0.33841729584E+01  0.14239600842E+02 -0.10852581708E+02  0.18220795496E+02  0.00000000000E+00 0. -1.
        -14    1    4    4    0    0 -0.32345140926E+02 -0.10022891240E+03 -0.15133917647E+02  0.10640055679E+03  0.00000000000E+00 0.  1.
</event>
<event>
12    1  0.8493057E-002  0.1845966E+03  0.7818608E-02  0.1163830E+00
         21   -1    0    0  501  502  0.00000000000E+00  0.00000000000E+00  0.53270706946E+03  0.53270706946E+03  0.00000000000E+00 0. -1.
         21   -1    0    0  502  503 -0.00000000000E+00 -0.00000000000E+00 -0.73454480292E+02  0.73454480292E+02  0.00000000000E+00 0. -1.
         -6    2    1    2    0  503 -0.30074074618E+02 -0.55965568345E+02  0.11828333039E+03  0.21924153704E+03  0.17331852328E+03 0.  0.
        -24    2    3    3    0    0 -0.89929276480E+01  0.38102788286E+02  0.66496090400E+02  0.10970944721E+03  0.77985495745E+02 0.  0.
          6    2    1    2  501    0  0.30074074618E+02  0.55965568345E+02  0.34096925878E+03  0.38692001271E+03  0.17149479874E+03 0.  0.
         24    2    5    5    0    0 -0.42851812929E+02  0.17853577916E+02  0.23439499802E+03  0.25219484080E+03  0.80660985078E+02 0.  0.
          5    1    5    5  501    0  0.72925887547E+02  0.38111990429E+02  0.10657426076E+03  0.13472517191E+03  0.47000000000E+01 0. -1.
        -13    1    6    6    0    0 -0.24478220975E+02  0.34079501238E+02  0.46200260996E+02  0.62410414378E+02  0.00000000000E+00 0.  1.
         14    1    6    6    0    0 -0.18373591954E+02 -0.16225923322E+02  0.18819473702E+03  0.18978442642E+03  0.00000000000E+00 0. -1.
         -5    1    3    3    0  503 -0.21081146970E+02 -0.94068356632E+02  0.51787239989E+02  0.10953208983E+03  0.47000000000E+01 0.  1.
         11    1    4    4    0    0 -0.29159867921E+02 -0.13294134344E+02  0.24734411219E+02  0.40482378925E+02  0.00000000000E+00 0. -1.
        -12    1    4    4    0    0  0.20166940273E+02  0.51396922630E+02  0.41761679181E+02  0.69227068289E+02  0.00000000000E+00 0.  1.
</event>
<event>
12    1  0.8493057E-002  0.2269176E+03  0.7818608E-02  0.1128866E+00
         21   -1    0    0  503  502  0.00000000000E+00  0.00000000000E+00  0.47414146627E+03  0.47414146627E+03  0.00000000000E+00 0. -1.
         21   -1    0    0  501  503 -0.00000000000E+00 -0.00000000000E+00 -0.17852622961E+03  0.17852622961E+03  0.00000000000E+00 0.  1.
          6    2    1    2  501    0 -0.14670858138E+03  0.15930804141E+02 -0.56532575512E+02  0.23385364126E+03  0.17237863866E+03 0.  0.
         24    2    3    3    0    0 -0.15753641494E+03 -0.41332456001E+01 -0.85817677058E+02  0.19644354577E+03  0.79941148526E+02 0.  0.
         -6    2    1    2    0  502  0.14670858138E+03 -0.15930804141E+02  0.35214781216E+03  0.41881405462E+03  0.17210442285E+03 0.  0.
        -24    2    5    5    0    0  0.13281384183E+03  0.27807179692E+02  0.17297984263E+03  0.23380236223E+03  0.79553521614E+02 0.  0.
          5    1    3    3  501    0  0.10827833565E+02  0.20064049741E+02  0.29285101546E+02  0.37410095486E+02  0.47000000000E+01 0. -1.
        -11    1    4    4    0    0 -0.39239910757E+01 -0.10211569669E+02 -0.31584347378E+02  0.33425212944E+02  0.00000000000E+00 0.  1.
         12    1    4    4    0    0 -0.15361242387E+03  0.60783240684E+01 -0.54233329680E+02  0.16301833283E+03  0.00000000000E+00 0. -1.
         -5    1    5    5    0  502  0.13894739551E+02 -0.43737983833E+02  0.17916796953E+03  0.18501169239E+03  0.47000000000E+01 0.  1.
         11    1    6    6    0    0  0.49697744061E+02 -0.15844930527E+02  0.10705163303E+03  0.11908391883E+03  0.00000000000E+00 0. -1.
        -12    1    6    6    0    0  0.83116097766E+02  0.43652110220E+02  0.65928209600E+02  0.11471844340E+03  0.00000000000E+00 0.  1.
</event>
<event>
12    1  0.8493057E-002  0.2323912E+03  0.7818608E-02  0.1125305E+00
         21   -1    0    0  501  502  0.00000000000E+00  0.00000000000E+00  0.35784112481E+03  0.35784112481E+03  0.00000000000E+00 0.  1.
         21   -1    0    0  502  503 -0.00000000000E+00 -0.00000000000E+00 -0.15235136478E+03  0.15235136478E+03  0.00000000000E+00 0.  1.
         -6    2    1    2    0  503 -0.15046842193E+03 -0.37022071669E+02  0.69311109939E+02  0.24250709806E+03  0.17318857600E+03 0.  0.
        -24    2    3    3    0    0 -0.13930933854E+03  0.18234012948E+02  0.86299410361E+02  0.18344397606E+03  0.80402320171E+02 0.  0.
          6    2    1    2  501    0  0.15046842193E+03  0.37022071669E+02  0.13617865009E+03  0.26768539153E+03  0.17058565094E+03 0.  0.
         24    2    5    5    0    0  0.34467600929E+02  0.70683476298E+02  0.80352568422E+02  0.13453914851E+03  0.73892339892E+02 0.  0.
          5    1    5    5  501    0  0.11600082100E+03 -0.33661404629E+02  0.55826081671E+02  0.13314624302E+03  0.47000000000E+01 0. -1.
        -11    1    6    6    0    0  0.30385466594E+02 -0.61034580109E+01  0.24282910378E+02  0.39372433456E+02  0.00000000000E+00 0.  1.
         12    1    6    6    0    0  0.40821343357E+01  0.76786934308E+02  0.56069658044E+02  0.95166715055E+02  0.00000000000E+00 0. -1.
         -5    1    3    3    0  503 -0.11159083386E+02 -0.55256084617E+02 -0.16988300422E+02  0.59063122001E+02  0.47000000000E+01 0.  1.
         13    1    4    4    0    0 -0.26080337901E+02  0.38363662309E+02  0.18499867474E+02  0.49941963391E+02  0.00000000000E+00 0. -1.
        -14    1    4    4    0    0 -0.11322900064E+03 -0.20129649361E+02  0.67799542887E+02  0.13350201267E+03  0.00000000000E+00 0.  1.
</event>
<event>
12    1  0.8493057E-002  0.2074252E+03  0.7818608E-02  0.1143676E+00
         21   -1    0    0  503  502  0.00000000000E+00  0.00000000000E+00  0.49869939952E+02  0.49869939952E+02  0.00000000000E+00 0.  1.
         21   -1    0    0  501  503 -0.00000000000E+00 -0.00000000000E+00 -0.90779350611E+03  0.90779350611E+03  0.00000000000E+00 0. -1.
          6    2    1    2  501    0  0.83718251094E+02 -0.81856071627E+02 -0.53721796148E+03  0.57587183078E+03  0.17121934855E+03 0.  0.
         24    2    3    3    0    0  0.93231942197E+02 -0.32667240756E+02 -0.49246962875E+03  0.50853272860E+03  0.79497529181E+02 0.  0.
         -6    2    1    2    0  502 -0.83718251094E+02  0.81856071627E+02 -0.32070560467E+03  0.38179161528E+03  0.17089058079E+03 0.  0.
        -24    2    5    5    0    0 -0.39666017650E+01  0.69509742629E+01 -0.21460033625E+03  0.22930713355E+03  0.80401537333E+02 0.  0.
          5    1    3    3  501    0 -0.95136911025E+01 -0.49188830871E+02 -0.44748332733E+02  0.67339102186E+02  0.47000000000E+01 0. -1.
        -11    1    4    4    0    0  0.48046181021E+01 -0.11874060649E+02 -0.23784227930E+03  0.23818695912E+03  0.00000000000E+00 0.  1.
         12    1    4    4    0    0  0.88427324095E+02 -0.20793180107E+02 -0.25462734945E+03  0.27034576947E+03  0.00000000000E+00 0. -1.
         -5    1    5    5    0  502 -0.79751649329E+02  0.74905097364E+02 -0.10610526843E+03  0.15248448173E+03  0.47000000000E+01 0.  1.
         13    1    6    6    0    0 -0.21290290858E+02 -0.29743357589E+02 -0.68230834592E+02  0.77416991640E+02  0.00000000000E+00 0. -1.
        -14    1    6    6    0    0  0.17323689093E+02  0.36694331851E+02 -0.14636950165E+03  0.15189014191E+03  0.00000000000E+00 0.  1.
</event>
<event>
12    1  0.8493057E-002  0.1990531E+03  0.7818608E-02  0.1150938E+00
         21   -1    0    0  503  502  0.00000000000E+00  0.00000000000E+00  0.57857249481E+02  0.57857249481E+02  0.00000000000E+00 0.  1.
         21   -1    0    0  501  503 -0.00000000000E+00 -0.00000000000E+00 -0.14437898421E+04  0.14437898421E+04  0.00000000000E+00 0.  1.
          6    2    1    2  501    0  0.20306521407E+02  0.94808773974E+02 -0.12411560976E+04  0.12570165515E+04  0.17384215173E+03 0.  0.
         24    2    3    3    0    0 -0.10517313143E+02 -0.99050983560E+01 -0.41790621703E+03  0.42654827415E+03  0.84196787946E+02 0.  0.
         -6    2    1    2    0  502 -0.20306521407E+02 -0.94808773974E+02 -0.14477649498E+03  0.24463054003E+03  0.17170558868E+03 0.  0.
        -24    2    5    5    0    0 -0.60949624010E+02 -0.61995549147E+01 -0.72043819767E+02  0.12291124191E+03  0.78508408936E+02 0.  0.
          5    1    3    3  501    0  0.30823834549E+02  0.10471387233E+03 -0.82324988061E+03  0.83046827739E+03  0.47000000000E+01 0. -1.
        -13    1    4    4    0    0  0.36951623790E+02 -0.50348012235E+01 -0.16270999705E+03  0.16692907135E+03  0.00000000000E+00 0.  1.
         14    1    4    4    0    0 -0.47468936933E+02 -0.48702971325E+01 -0.25519621998E+03  0.25961920280E+03  0.00000000000E+00 0. -1.
         -5    1    5    5    0  502  0.40643102603E+02 -0.88609219060E+02 -0.72732675209E+02  0.12171929812E+03  0.47000000000E+01 0.  1.
         11    1    6    6    0    0 -0.11717550817E+02  0.27710780699E+02 -0.51601931142E+02  0.59732299987E+02  0.00000000000E+00 0. -1.
        -12    1    6    6    0    0 -0.49232073193E+02 -0.33910335614E+02 -0.20441888625E+02  0.63178941926E+02  0.00000000000E+00 0.  1.
</event>
<event>
12    1  0.8493057E-002  0.2630211E+03  0.7818608E-02  0.1105711E+00
         21   -1    0    0  501  502  0.00000000000E+00  0.00000000000E+00  0.69417184300E+03  0.69417184300E+03  0.00000000000E+00 0. -1.
         21   -1    0    0  502  503 -0.00000000000E+00 -0.00000000000E+00 -0.20137739155E+03  0.20137739155E+03  0.00000000000E+00 0. -1.
         -6    2    1    2    0  503 -0.50621565119E+02 -0.19202475922E+03 -0.72733475276E+02  0.27289239356E+03  0.17246463124E+03 0.  0.
        -24    2    3    3    0    0 -0.71677299635E+02 -0.11364686198E+03  0.10475759499E+02  0.15656395558E+03  0.79682407897E+02 0.  0.
          6    2    1    2  501    0  0.50621565119E+02  0.19202475922E+03  0.56552792672E+03  0.62265684099E+03  0.16865246727E+03 0.  0.
         24    2    5    5    0    0  0.18441710098E+02  0.31685643170E+02  0.28361783210E+03  0.29671272514E+03  0.79090390827E+02 0.  0.
          5    1    5    5  501    0  0.32179855021E+02  0.16033911605E+03  0.28191009462E+03  0.32594411585E+03  0.47000000000E+01 0. -1.
        -13    1    6    6    0    0  0.38889495464E+02  0.24169706436E+02  0.81971525690E+02  0.93893016730E+02  0.00000000000E+00 0.  1.
         14    1    6    6    0    0 -0.20447785367E+02  0.75159367340E+01  0.20164630641E+03  0.20281970841E+03  0.00000000000E+00 0. -1.
         -5    1    3    3    0  503  0.21055734516E+02 -0.78377897240E+02 -0.83209234775E+02  0.11632843798E+03  0.47000000000E+01 0.  1.
         11    1    4    4    0    0 -0.40075457183E+02 -0.75495183710E+02 -0.32040878368E+02  0.91280791618E+02  0.00000000000E+00 0. -1.
        -12    1    4    4    0    0 -0.31601842452E+02 -0.38151678272E+02  0.42516637867E+02  0.65283163962E+02  0.00000000000E+00 0.  1.
</event>
<event>
12    1  0.8493057E-002  0.2175042E+03  0.7818608E-02  0.1136230E+00
         21   -1    0    0  503  502  0.00000000000E+00  0.00000000000E+00  0.64789152329E+03  0.64789152329E+03  0.00000000000E+00 0.  1.
         21   -1    0    0  501  503 -0.00000000000E+00 -0.00000000000E+00 -0.88467092389E+02  0.88467092389E+02  0.00000000000E+00 0. -1.
          6    2    1    2  501    0 -0.31978866671E+02 -0.13542253433E+03  0.43633638634E+03  0.48644117061E+03  0.16393187518E+03 0.  0.
         24    2    3    3    0    0 -0.66298781676E+02 -0.10889432399E+03  0.22508759113E+03  0.27073362325E+03  0.79867194950E+02 0.  0.
         -6    2    1    2    0  502  0.31978866671E+02  0.13542253433E+03  0.12308804457E+03  0.24991744507E+03  0.16717102595E+03 0.  0.
        -24    2    5    5    0    0  0.75744563117E+02  0.96781825942E+02  0.12361051070E+03  0.19134353022E+03  0.78922921421E+02 0.  0.
          5    1    3    3  501    0  0.34319915005E+02 -0.26528210343E+02  0.21124879521E+03  0.21570754736E+03  0.47000000000E+01 0. -1.
        -13    1    4    4    0    0 -0.45780320284E+01  0.73909323038E+01 -0.13584686175E+01  0.87994144440E+01  0.00000000000E+00 0.  1.
         14    1    4    4    0    0 -0.61720749647E+02 -0.11628525629E+03  0.22644605975E+03  0.26193420881E+03  0.00000000000E+00 0. -1.
         -5    1    5    5    0  502 -0.43765696446E+02  0.38640708392E+02 -0.52246613874E+00  0.58573914854E+02  0.47000000000E+01 0.  1.
         13    1    6    6    0    0  0.63215231671E+02  0.11051929660E+03  0.10494070487E+03  0.16499464227E+03  0.00000000000E+00 0. -1.
        -14    1    6    6    0    0  0.12529331446E+02 -0.13737470661E+02  0.18669805830E+02  0.26348887953E+02  0.00000000000E+00 0.  1.
</event>
<event>
12    1  0.8493057E-002  0.2175641E+03  0.7818608E-02  0.1137508E+00
         21   -1    0    0  503  502  0.00000000000E+00  0.00000000000E+00  0.40442931402E+03  0.40442931402E+03  0.00000000000E+00 0. -1.
         21   -1    0    0  501  503 -0.00000000000E+00 -0.00000000000E+00 -0.11959194453E+03  0.11959194453E+03  0.00000000000E+00 0. -1.
          6    2    1    2  501    0 -0.13278347507E+03  0.35640283765E+01  0.73948148105E+02  0.22102223322E+03  0.16043174693E+03 0.  0.
         24    2    3    3    0    0 -0.20013106889E+02 -0.12669927484E+02  0.41588068197E+02  0.10248969746E+03  0.90628467714E+02 0.  0.
         -6    2    1    2    0  502  0.13278347507E+03 -0.35640283765E+01  0.21088922139E+03  0.30299902533E+03  0.17230784110E+03 0.  0.
        -24    2    5    5    0    0  0.46601639875E+02 -0.64036184873E+02  0.10339113083E+03  0.15245959561E+03  0.79258163902E+02 0.  0.
          5    1    3    3  501    0 -0.11277036818E+03  0.16233955861E+02  0.32360079908E+02  0.11853253576E+03  0.47000000000E+01 0. -1.
        -11    1    4    4    0    0  0.21010874592E+02  0.14154158422E+02 -0.13537887958E+02  0.28724057202E+02  0.00000000000E+00 0.  1.
         12    1    4    4    0    0 -0.41023981481E+02 -0.26824085907E+02  0.55125956156E+02  0.73765640263E+02  0.00000000000E+00 0. -1.
         -5    1    5    5    0  502  0.86181835192E+02  0.60472156496E+02  0.10749809056E+03  0.15053942972E+03  0.47000000000E+01 0.  1.
         11    1    6    6    0    0  0.52124926089E+02 -0.25879411590E+02  0.21668326409E+02  0.62098858552E+02  0.00000000000E+00 0. -1.
        -12    1    6    6    0    0 -0.55232862144E+01 -0.38156773283E+02  0.81722804425E+02  0.90360737055E+02  0.00000000000E+00 0.  1.
</event>
<event>
12    1  0.8493057E-002  0.1846988E+03  0.7818608E-02  0.1163735E+00
         21   -1    0    0  503  502  0.00000000000E+00  0.00000000000E+00  0.34797668886E+02  0.34797668886E+02  0.00000000000E+00 0.  1.
         21   -1    0    0  501  503 -0.00000000000E+00 -0.00000000000E+00 -0.11555889116E+04  0.11555889116E+04  0.00000000000E+00 0. -1.
          6    2    1    2  501    0 -0.40179996453E+02 -0.48749104147E+02 -0.79591508760E+03  0.81667790105E+03  0.17172961345E+03 0.  0.
         24    2    3    3    0    0 -0.61848905995E+02  0.24641690930E+02 -0.39588098669E+03  0.40936337599E+03  0.80150594951E+02 0.  0.
         -6    2    1    2    0  502  0.40179996453E+02  0.48749104147E+02 -0.32487615516E+03  0.37370867948E+03  0.17355907828E+03 0.  0.
        -24    2    5    5    0    0  0.31830322513E+02  0.96482419947E+02 -0.27792629557E+03  0.30607314290E+03  0.78203044997E+02 0.  0.
          5    1    3    3  501    0  0.21668909542E+02 -0.73390795077E+02 -0.40003410091E+03  0.40731452507E+03  0.47000000000E+01 0. -1.
        -13    1    4    4    0    0 -0.77537820788E+02  0.11114684250E+02 -0.24903247273E+03  0.26106095520E+03  0.00000000000E+00 0.  1.
         14    1    4    4    0    0  0.15688914793E+02  0.13527006680E+02 -0.14684851397E+03  0.14830242079E+03  0.00000000000E+00 0. -1.
         -5    1    5    5    0  502  0.83496739400E+01 -0.47733315800E+02 -0.46949859592E+02  0.67635536576E+02  0.47000000000E+01 0.  1.
         13    1    6    6    0    0  0.46257374419E+02  0.26107763287E+02 -0.15308431007E+03  0.16203754498E+03  0.00000000000E+00 0. -1.
        -14    1    6    6    0    0 -0.14427051906E+02  0.70374656660E+02 -0.12484198550E+03  0.14403559792E+03  0.00000000000E+00 0.  1.
</event>
<event>
12    1  0.8493057E-002  0.1878691E+03  0.7818608E-02  0.1160566E+00
         21   -1    0    0  501  502  0.00000000000E+00  0.00000000000E+00  0.19883910656E+03  0.19883910656E+03  0.00000000000E+00 0.  1.
         21   -1    0    0  502  503 -0.00000000000E+00 -0.00000000000E+00 -0.31460655819E+03  0.31460655819E+03  0.00000000000E+00 0. -1.
         -6    2    1    2    0  503  0.42817944635E+02  0.61856050727E+02 -0.22772133229E+03  0.29474845078E+03  0.17134788199E+03 0.  0.
        -24    2    3    3    0    0  0.52591676202E+02  0.96476094322E+02 -0.21793914183E+03  0.25717379845E+03  0.81039323087E+02 0.  0.
          6    2    1    2  501    0 -0.42817944635E+02 -0.61856050727E+02  0.11195388067E+03  0.21869721397E+03  0.17214892567E+03 0.  0.
         24    2    5    5    0    0 -0.61440357672E+02 -0.89998437668E+02  0.12338353801E+03  0.18275955577E+03  0.79390940550E+02 0.  0.
          5    1    5    5  501    0  0.18622413037E+02  0.28142386941E+02 -0.11429657338E+02  0.35937658200E+02  0.47000000000E+01 0. -1.
        -11    1    6    6    0    0 -0.20324414106E+02 -0.78710144505E+02  0.43474116225E+02  0.92186590338E+02  0.00000000000E+00 0.  1.
         12    1    6    6    0    0 -0.41115943566E+02 -0.11288293163E+02  0.79909421782E+02  0.90572965434E+02  0.00000000000E+00 0. -1.
         -5    1    3    3    0  503 -0.97737315667E+01 -0.34620043595E+02 -0.97821904610E+01  0.37574652327E+02  0.47000000000E+01 0.  1.
         13    1    4    4    0    0  0.68330345607E+02  0.98838325261E+02 -0.18509184884E+03  0.22067406549E+03  0.00000000000E+00 0. -1.
        -14    1    4    4    0    0 -0.15738669406E+02 -0.23622309392E+01 -0.32847292990E+02  0.36499732964E+02  0.00000000000E+00 0.  1.
</event>
<event>
12    1  0.8493057E-002  0.2252153E+03  0.7818608E-02  0.1130549E+00
         21   -1    0    0  503  502  0.00000000000E+00  0.00000000000E+00  0.11436923366E+03  0.11436923366E+03  0.00000000000E+00 0.  1.
         21   -1    0    0  501  503 -0.00000000000E+00 -0.00000000000E+00 -0.43827647943E+03  0.43827647943E+03  0.00000000000E+00 0.  1.
          6    2    1    2  501    0  0.14233499157E+03 -0.14637062129E+02 -0.16767461925E+03  0.28077874177E+03  0.17392075918E+03 0.  0.
         24    2    3    3    0    0  0.27240848050E+02  0.22793038789E+02 -0.22543139482E+02  0.91747234477E+02  0.81533891584E+02 0.  0.
         -6    2    1    2    0  502 -0.14233499157E+03  0.14637062129E+02 -0.15623262651E+03  0.27186697133E+03  0.17038052442E+03 0.  0.
        -24    2    5    5    0    0 -0.12041225205E+02 -0.21133823305E+02 -0.49096581721E+02  0.99366989037E+02  0.82895684940E+02 0.  0.
          5    1    3    3  501    0  0.11509414352E+03 -0.37430100919E+02 -0.14513147977E+03  0.18903150729E+03  0.47000000000E+01 0. -1.
        -13    1    4    4    0    0  0.26206669970E+02 -0.26278432911E+02 -0.20996856264E+02  0.42640515477E+02  0.00000000000E+00 0.  1.
         14    1    4    4    0    0  0.10341780798E+01  0.49071471701E+02 -0.15462832186E+01  0.49106719000E+02  0.00000000000E+00 0. -1.
         -5    1    5    5    0  502 -0.13029376636E+03  0.35770885434E+02 -0.10713604479E+03  0.17249998229E+03  0.47000000000E+01 0.  1.
         13    1    6    6    0    0 -0.26836857999E+02 -0.10556022114E+02  0.15163989465E+02  0.32582098254E+02  0.00000000000E+00 0. -1.
        -14    1    6    6    0    0  0.14795632794E+02 -0.10577801191E+02 -0.64260571186E+02  0.66784890783E+02  0.00000000000E+00 0.  1.
</event>
<event>
12    1  0.8493057E-002  0.1782804E+03  0.7818608E-02  0.1170904E+00
         21   -1    0    0  503  502  0.00000000000E+00  0.00000000000E+00  0.13657582260E+03  0.13657582260E+03  0.00000000000E+00 0.  1.
         21   -1    0    0  501  503 -0.00000000000E+00 -0.00000000000E+00 -0.25892603097E+03  0.25892603097E+03  0.00000000000E+00 0.  1.
          6    2    1    2  501    0  0.13200007727E+02  0.64016517141E+01 -0.13154752251E+03  0.21698435713E+03  0.17193673026E+03 0.  0.
         24    2    3    3    0    0 -0.58428085585E+02 -0.16766902929E+02 -0.76554302512E+02  0.12363710264E+03  0.75700737754E+02 0.  0.
         -6    2    1    2    0  502 -0.13200007727E+02 -0.64016517141E+01  0.91973141419E+01  0.17851749645E+03  0.17767578507E+03 0.  0.
        -24    2    5    5    0    0 -0.23617511753E+02  0.58756763452E+02  0.34336009792E+02  0.10774894781E+03  0.80129458209E+02 0.  0.
          5    1    3    3  501    0  0.71628093312E+02  0.23168554643E+02 -0.54993219996E+02  0.93347254492E+02  0.47000000000E+01 0. -1.
        -11    1    4    4    0    0  0.10226393933E+02  0.51586499914E+00 -0.44959171931E+02  0.46110436892E+02  0.00000000000E+00 0.  1.
         12    1    4    4    0    0 -0.68654479519E+02 -0.17282767928E+02 -0.31595130580E+02  0.77526665746E+02  0.00000000000E+00 0. -1.
         -5    1    5    5    0  502  0.10417504026E+02 -0.65158415166E+02 -0.25138695650E+02  0.70768548636E+02  0.47000000000E+01 0.  1.
         13    1    6    6    0    0 -0.22536088390E+02  0.72881861312E+02  0.65589958464E+01  0.76568018224E+02  0.00000000000E+00 0. -1.
        -14    1    6    6    0    0 -0.10814233626E+01 -0.14125097860E+02  0.27777013946E+02  0.31180929585E+02  0.00000000000E+00 0.  1.
</event>
<event>
12    1  0.8493057E-002  0.2468548E+03  0.7818608E-02  0.1116731E+00
         21   -1    0    0  501  502  0.00000000000E+00  0.00000000000E+00  0.12426045005E+03  0.12426045005E+03  0.00000000000E+00 0.  1.
         21   -1    0    0  502  503 -0.00000000000E+00 -0.00000000000E+00 -0.59839241429E+03  0.59839241429E+03  0.00000000000E+00 0.  1.
         -6    2    1    2    0  503 -0.77986579755E+02  0.14530254557E+03 -0.40561483332E+03  0.47482701652E+03  0.18369149744E+03 0.  0.
        -24    2    3    3    0    0 -0.50508255371E+02  0.18102443292E+03 -0.31242863860E+03  0.37120815514E+03  0.69734575694E+02 0.  0.
          6    2    1    2  501    0  0.77986579755E+02 -0.14530254557E+03 -0.68517130912E+02  0.24782584782E+03  0.17183805530E+03 0.  0.
         24    2    5    5    0    0  0.27263959651E+02 -0.16215928230E+03 -0.59310141956E+02  0.19338512401E+03  0.82711286505E+02 0.  0.
          5    1    5    5  501    0  0.50722620104E+02  0.16856736735E+02 -0.92069889561E+01  0.54440723812E+02  0.47000000000E+01 0. -1.
        -11    1    6    6    0    0  0.50586690514E+02 -0.10344601983E+03 -0.60746152049E+02  0.13019288485E+03  0.00000000000E+00 0.  1.
         12    1    6    6    0    0 -0.23322730863E+02 -0.58713262473E+02  0.14360100929E+01  0.63192239160E+02  0.00000000000E+00 0. -1.
         -5    1    3    3    0  503 -0.27478324385E+02 -0.35721887353E+02 -0.93186194724E+02  0.10361886138E+03  0.47000000000E+01 0.  1.
         11    1    4    4    0    0 -0.37856110282E+01  0.46269444575E+00  0.29406408327E+01  0.48158390249E+01  0.00000000000E+00 0. -1.
        -12    1    4    4    0    0 -0.46722644342E+02  0.18056173848E+03 -0.31536927943E+03  0.36639231611E+03  0.00000000000E+00 0.  1.
</event>
<event>
12    1  0.8493057E-002  0.1801744E+03  0.7818608E-02  0.1169070E+00
         21   -1    0    0  503  502  0.00000000000E+00  0.00000000000E+00  0.13509763690E+03  0.13509763690E+03  0.00000000000E+00 0.  1.
         21   -1    0    0  501  503 -0.00000000000E+00 -0.00000000000E+00 -0.32132149267E+03  0.32132149267E+03  0.00000000000E+00 0.  1.
          6    2    1    2  501    0  0.11943092111E+02  0.33388024090E+02 -0.21414455790E+03  0.27985838396E+03  0.17665057542E+03 0.  0.
         24    2    3    3    0    0  0.75946480505E+02 -0.27705105725E+01 -0.13111816155E+03  0.16886583536E+03  0.74485934476E+02 0.  0.
         -6    2    1    2    0  502 -0.11943092111E+02 -0.33388024090E+02  0.27920702131E+02  0.17656074560E+03  0.17069485546E+03 0.  0.
        -24    2    5    5    0    0 -0.71207024591E+02 -0.75064974404E+01  0.85362326991E+01  0.10888567804E+03  0.81586982777E+02 0.  0.
          5    1    3    3  501    0 -0.64003388394E+02  0.36158534662E+02 -0.83026396350E+02  0.11099254860E+03  0.47000000000E+01 0. -1.
        -13    1    4    4    0    0  0.85953412581E+01  0.12379122772E+02 -0.83865403397E+02  0.85208734639E+02  0.00000000000E+00 0.  1.
         14    1    4    4    0    0  0.67351139246E+02 -0.15149633344E+02 -0.47252758149E+02  0.83657100720E+02  0.00000000000E+00 0. -1.
         -5    1    5    5    0  502  0.59263932480E+02 -0.25881526649E+02  0.19384469431E+02  0.67675067564E+02  0.47000000000E+01 0.  1.
         13    1    6    6    0    0 -0.37610042896E+02 -0.43555062940E+02 -0.50568173223E+01  0.57767899700E+02  0.00000000000E+00 0. -1.
        -14    1    6    6    0    0 -0.33596981695E+02  0.36048565499E+02  0.13593050021E+02  0.51117778340E+02  0.00000000000E+00 0.  1.
</event>
<event>
12    1  0.8493057E-002  0.4695096E+03  0.7818608E-02  0.1022135E+00
         21   -1    0    0  503  502  0.00000000000E+00  0.00000000000E+00  0.22753417404E+03  0.22753417404E+03  0.00000000000E+00 0. -1.
         21   -1    0    0  501  503 -0.00000000000E+00 -0.00000000000E+00 -0.18659332697E+04  0.18659332697E+04  0.00000000000E+00 0.  1.
          6    2    1    2  501    0 -0.69407916402E+02  0.43017169561E+03 -0.15454004683E+04  0.16148360692E+04  0.17195283196E+03 0.  0.
         24    2    3    3    0    0 -0.11388444182E+02  0.36895786779E+03 -0.11554020148E+04  0.12157943726E+04  0.83321880976E+02 0.  0.
         -6    2    1    2    0  502  0.69407916402E+02 -0.43017169561E+03 -0.92998627381E+02  0.47863137456E+03  0.17485451511E+03 0.  0.
        -24    2    5    5    0    0  0.11259611318E+03 -0.30735818380E+03 -0.85700985952E+02  0.34815637851E+03  0.81983333986E+02 0.  0.
          5    1    3    3  501    0 -0.58019472220E+02  0.61213827818E+02 -0.38999845346E+03  0.39904169654E+03  0.47000000000E+01 0. -1.
        -13    1    4    4    0    0  0.53611175385E+01  0.23808679897E+03 -0.85805189972E+03  0.89048701733E+03  0.00000000000E+00 0.  1.
         14    1    4    4    0    0 -0.16749561721E+02  0.13087106882E+03 -0.29735011508E+03  0.32530735529E+03  0.00000000000E+00 0. -1.
         -5    1    5    5    0  502 -0.43188196777E+02 -0.12281351181E+03 -0.72976414289E+01  0.13047499605E+03  0.47000000000E+01 0.  1.
         13    1    6    6    0    0  0.42539635449E+01 -0.12653613675E+03 -0.34781445307E+02  0.13129828273E+03  0.00000000000E+00 0. -1.
        -14    1    6    6    0    0  0.10834214963E+03 -0.18082204705E+03 -0.50919540645E+02  0.21685809578E+03  0.00000000000E+00 0.  1.
</event>
<event>
12    1  0.8493057E-002  0.2243343E+03  0.7818608E-02  0.1131495E+00
         21   -1    0    0  503  502  0.00000000000E+00  0.00000000000E+00  0.48829140217E+03  0.48829140217E+03  0.00000000000E+00 0.  1.
         21   -1    0    0  501  503 -0.00000000000E+00 -0.00000000000E+00 -0.10359051003E+03  0.10359051003E+03  0.00000000000E+00 0.  1.
          6    2    1    2  501    0 -0.10509246913E+03 -0.98030852578E+02  0.14800330534E+03  0.26875802166E+03  0.17225394246E+03 0.  0.
         24    2    3    3    0    0 -0.14107660664E+03 -0.67544378984E+02  0.12887336999E+03  0.21764708691E+03  0.79353997235E+02 0.  0.
         -6    2    1    2    0  502  0.10509246913E+03  0.98030852578E+02  0.23669758680E+03  0.32312389054E+03  0.16651974632E+03 0.  0.
        -24    2    5    5    0    0 -0.10234228060E+02  0.41583586444E+02  0.11197342215E+03  0.14405756711E+03  0.79878666042E+02 0.  0.
          5    1    3    3  501    0  0.35984137511E+02 -0.30486473594E+02  0.19129935348E+02  0.51110934750E+02  0.47000000000E+01 0. -1.
        -13    1    4    4    0    0 -0.45399849979E+02 -0.53344034607E+02  0.21817069571E+02  0.73367001649E+02  0.00000000000E+00 0.  1.
         14    1    4    4    0    0 -0.95676756660E+02 -0.14200344377E+02  0.10705630042E+03  0.14428008527E+03  0.00000000000E+00 0. -1.
         -5    1    5    5    0  502  0.11532669719E+03  0.56447266134E+02  0.12472416466E+03  0.17906632343E+03  0.47000000000E+01 0.  1.
         11    1    6    6    0    0 -0.29290347853E+02  0.78792640920E+01  0.55834901473E+01  0.30841249038E+02  0.00000000000E+00 0. -1.
        -12    1    6    6    0    0  0.19056119793E+02  0.33704322352E+02  0.10638993200E+03  0.11321631807E+03  0.00000000000E+00 0.  1.
</event>
<event>
12    1  0.8493057E-002  0.1810160E+03  0.7818608E-02  0.1167039E+00
         21   -1    0    0  501  502  0.00000000000E+00  0.00000000000E+00  0.14920220645E+03  0.14920220645E+03  0.00000000000E+00 0.  1.
         21   -1    0    0  502  503 -0.00000000000E+00 -0.00000000000E+00 -0.13077464085E+04  0.13077464085E+04  0.00000000000E+00 0.  1.
         -6    2    1    2    0  503  0.30976034460E+02  0.44613364870E+02 -0.12438606421E+04  0.12568343964E+04  0.17173682192E+03 0.  0.
        -24    2    3    3    0    0 -0.31553397442E+02 -0.83927132863E+01 -0.87696857298E+03  0.88086703804E+03  0.76071060130E+02 0.  0.
          6    2    1    2  501    0 -0.30976034460E+02 -0.44613364870E+02  0.85316440084E+02  0.20011421850E+03  0.17267581899E+03 0.  0.
         24    2    5    5    0    0 -0.39515498717E+02 -0.95111875768E+02  0.55926065912E+02  0.14087819782E+03  0.78174153154E+02 0.  0.
          5    1    5    5  501    0  0.85394642571E+01  0.50498510898E+02  0.29390374172E+02  0.59236020686E+02  0.47000000000E+01 0. -1.
        -11    1    6    6    0    0 -0.52151797183E+02 -0.76791751993E+02  0.14637623110E+02  0.93973629992E+02  0.00000000000E+00 0.  1.
         12    1    6    6    0    0  0.12636298466E+02 -0.18320123775E+02  0.41288442801E+02  0.46904567827E+02  0.00000000000E+00 0. -1.
         -5    1    3    3    0  503  0.62529431902E+02  0.53006078156E+02 -0.36689206911E+03  0.37596735836E+03  0.47000000000E+01 0.  1.
         13    1    4    4    0    0 -0.37282235325E+02  0.25743375971E+02 -0.60701223050E+03  0.60870069365E+03  0.00000000000E+00 0. -1.
        -14    1    4    4    0    0  0.57288378829E+01 -0.34136089257E+02 -0.26995634248E+03  0.27216634439E+03  0.00000000000E+00 0.  1.
</event>
<event>
12    1  0.8493057E-002  0.1914494E+03  0.7818608E-02  0.1157834E+00
         21   -1    0    0  501  502  0.00000000000E+00  0.00000000000E+00  0.10425224252E+03  0.10425224252E+03  0.00000000000E+00 0. -1.
         21   -1    0    0  502  503 -0.00000000000E+00 -0.00000000000E+00 -0.10842004349E+04  0.10842004349E+04  0.00000000000E+00 0.  1.
         -6    2    1    2    0  503  0.69730592832E+02 -0.51246150962E+02 -0.97902734039E+03  0.99700104534E+03  0.16741573288E+03 0.  0.
        -24    2    3    3    0    0  0.27151154652E+02 -0.57321838890E+02 -0.90870900597E+03  0.91443785321E+03  0.80134583300E+02 0.  0.
          6    2    1    2  501    0 -0.69730592832E+02  0.51246150962E+02 -0.92085199195E+00  0.19145163208E+03  0.17077574738E+03 0.  0.
         24    2    5    5    0    0 -0.73053409444E+02  0.97262923782E+02  0.90098018291E+01  0.14402492677E+03  0.76584110816E+02 0.  0.
          5    1    5    5  501    0  0.33228166125E+01 -0.46016772819E+02 -0.99306538211E+01  0.47426705307E+02  0.47000000000E+01 0. -1.
        -13    1    6    6    0    0 -0.29161332694E+02  0.54268275533E+02 -0.32715472645E+02  0.69754793414E+02  0.00000000000E+00 0.  1.
         14    1    6    6    0    0 -0.43892076750E+02  0.42994648249E+02  0.41725274474E+02  0.74270133360E+02  0.00000000000E+00 0. -1.
         -5    1    3    3    0  503  0.42579438180E+02  0.60756879276E+01 -0.70318334425E+02  0.82563192137E+02  0.47000000000E+01 0.  1.
         11    1    4    4    0    0 -0.23545560276E+02 -0.20339894239E+02 -0.15322587632E+03  0.15635304244E+03  0.00000000000E+00 0. -1.
        -12    1    4    4    0    0  0.50696714928E+02 -0.36981944652E+02 -0.75548312964E+03  0.75808481076E+03  0.00000000000E+00 0.  1.
</event>
<event>
12    1  0.8493057E-002  0.1891213E+03  0.7818608E-02  0.1159322E+00
         21   -1    0    0  501  502  0.00000000000E+00  0.00000000000E+00  0.22053359159E+03  0.22053359159E+03  0.00000000000E+00 0. -1.
         21   -1    0    0  502  503 -0.00000000000E+00 -0.00000000000E+00 -0.17729459414E+03  0.17729459414E+03  0.00000000000E+00 0.  1.
         -6    2    1    2    0  503 -0.59242939050E+02 -0.51158006806E+02 -0.36912650914E+02  0.19268996906E+03  0.17216275118E+03 0.  0.
        -24    2    3    3    0    0 -0.18089678424E+02 -0.16613848711E+02 -0.82015163541E+02  0.12238195840E+03  0.87450558924E+02 0.  0.
          6    2    1    2  501    0  0.59242939050E+02  0.51158006806E+02  0.80151648364E+02  0.20513821667E+03  0.17184450446E+03 0.  0.
         24    2    5    5    0    0  0.25478051543E+02  0.51651487397E+02 -0.20007996930E+02  0.99334834411E+02  0.78422459319E+02 0.  0.
          5    1    5    5  501    0  0.33764887507E+02 -0.49348059084E+00  0.10015964529E+03  0.10580338226E+03  0.47000000000E+01 0. -1.
        -13    1    6    6    0    0  0.35723026289E+02  0.61814342451E+02  0.37994480026E+01  0.71495337925E+02  0.00000000000E+00 0.  1.
         14    1    6    6    0    0 -0.10244974746E+02 -0.10162855054E+02 -0.23807444932E+02  0.27839496486E+02  0.00000000000E+00 0. -1.
         -5    1    3    3    0  503 -0.41153260626E+02 -0.34544158096E+02  0.45102512627E+02  0.70308010667E+02  0.47000000000E+01 0.  1.
         11    1    4    4    0    0  0.25439579931E+02 -0.24166237744E+02 -0.76950228164E+01  0.35922035714E+02  0.00000000000E+00 0. -1.
        -12    1    4    4    0    0 -0.43529258355E+02  0.75523890327E+01 -0.74320140725E+02  0.86459922683E+02  0.00000000000E+00 0.  1.
</event>
<event>
12    1  0.8493057E-002  0.1752777E+03  0.7818608E-02  0.1173350E+00
         21   -1    0    0  501  502  0.00000000000E+00  0.00000000000E+00  0.51623436948E+03  0.51623436948E+03  0.00000000000E+00 0. -1.
         21   -1    0    0  502  503 -0.00000000000E+00 -0.00000000000E+00 -0.59398294855E+02  0.59398294855E+02  0.00000000000E+00 0. -1.
         -6    2    1    2    0  503 -0.26029390100E+02 -0.12737292816E+02  0.18728036792E+03  0.25410110314E+03  0.16927393961E+03 0.  0.
        -24    2    3    3    0    0 -0.67985475717E+02 -0.43673690007E+02  0.15691973354E+03  0.19359298871E+03  0.79530034554E+02 0.  0.
          6    2    1    2  501    0  0.26029390100E+02  0.12737292816E+02  0.26955570670E+03  0.32153156120E+03  0.17286554906E+03 0.  0.
         24    2    5    5    0    0 -0.47887554063E+02  0.34669740030E+02  0.15517249591E+03  0.18350853490E+03  0.78113188315E+02 0.  0.
          5    1    5    5  501    0  0.73916944162E+02 -0.21932447214E+02  0.11438321080E+03  0.13802302629E+03  0.47000000000E+01 0. -1.
        -11    1    6    6    0    0 -0.85279335861E+01 -0.44477634728E+01 -0.71358402622E+01  0.11976162466E+02  0.00000000000E+00 0.  1.
         12    1    6    6    0    0 -0.39359620476E+02  0.39117503503E+02  0.16230833617E+03  0.17153237244E+03  0.00000000000E+00 0. -1.
         -5    1    3    3    0  503  0.41956085618E+02  0.30936397191E+02  0.30360634382E+02  0.60508114427E+02  0.47000000000E+01 0.  1.
         13    1    4    4    0    0 -0.29271904395E+02 -0.42917484245E+01  0.12776507184E+03  0.13114563307E+03  0.00000000000E+00 0. -1.
        -14    1    4    4    0    0 -0.38713571323E+02 -0.39381941582E+02  0.29154661699E+02  0.62447355638E+02  0.00000000000E+00 0.  1.
</event>
<event>
12    1  0.8493057E-002  0.1778706E+03  0.7818608E-02  0.1170112E+00
         21   -1    0    0  503  502  0.00000000000E+00  0.00000000000E+00  0.92579046083E+03  0.92579046083E+03  0.00000000000E+00 0. -1.
         21   -1    0    0  501  503 -0.00000000000E+00 -0.00000000000E+00 -0.59680025651E+02  0.59680025651E+02  0.00000000000E+00 0. -1.
          6    2    1    2  501    0 -0.65866330406E+01 -0.43639925250E+02  0.11044908208E+03  0.20937275290E+03  0.17230822126E+03 0.  0.
         24    2    3    3    0    0  0.23303786539E+02  0.91336299772E+01  0.12036673982E+03  0.14773724974E+03  0.81924680312E+02 0.  0.
         -6    2    1    2    0  502  0.65866330406E+01  0.43639925250E+02  0.75566135310E+03  0.77609773358E+03  0.17133529903E+03 0.  0.
        -24    2    5    5    0    0 -0.28942617806E+01  0.57973003900E+02  0.75104945015E+03  0.75769436001E+03  0.81585664690E+02 0.  0.
          5    1    3    3  501    0 -0.29890419579E+02 -0.52773555227E+02 -0.99176577388E+01  0.61635503154E+02  0.47000000000E+01 0. -1.
        -11    1    4    4    0    0 -0.13081127905E+02 -0.29341005387E+02  0.37298782122E+02  0.49226107425E+02  0.00000000000E+00 0.  1.
         12    1    4    4    0    0  0.36384914443E+02  0.38474635364E+02  0.83067957695E+02  0.98511142319E+02  0.00000000000E+00 0. -1.
         -5    1    5    5    0  502  0.94808948212E+01 -0.14333078650E+02  0.46119029521E+01  0.18403373578E+02  0.47000000000E+01 0.  1.
         11    1    6    6    0    0  0.24349904428E+02  0.11358150906E+02  0.78299398823E+02  0.82781165090E+02  0.00000000000E+00 0. -1.
        -12    1    6    6    0    0 -0.27244166208E+02  0.46614852995E+02  0.67275005133E+03  0.67491319492E+03  0.00000000000E+00 0.  1.
</event>
<event>
12    1  0.8493057E-002  0.1834867E+03  0.7818608E-02  0.1164681E+00
         21   -1    0    0  503  502  0.00000000000E+00  0.00000000000E+00  0.60155215315E+03  0.60155215315E+03  0.00000000000E+00 0.  1.
         21   -1    0    0  501  503 -0.00000000000E+00 -0.00000000000E+00 -0.56725300313E+02  0.56725300313E+02  0.00000000000E+00 0.  1.
          6    2    1    2  501    0  0.21168865167E+02  0.58851130352E+02  0.31608244107E+03  0.36503460761E+03  0.17155342842E+03 0.  0.
         24    2    3    3    0    0  0.38047061710E+02  0.99943937832E+02  0.26574862266E+03  0.29773620034E+03  0.81167388363E+02 0.  0.
         -6    2    1    2    0  502 -0.21168865167E+02 -0.58851130352E+02  0.22874441177E+03  0.29324284586E+03  0.17249865024E+03 0.  0.
        -24    2    5    5    0    0 -0.92231834141E+01  0.27886533451E+02  0.68991415853E+02  0.11100884426E+03  0.81856106563E+02 0.  0.
          5    1    3    3  501    0 -0.16878196543E+02 -0.41092807481E+02  0.50333818409E+02  0.67298407268E+02  0.47000000000E+01 0. -1.
        -13    1    4    4    0    0  0.36129864104E+02  0.96685150743E+02  0.27172291961E+03  0.29066601194E+03  0.00000000000E+00 0.  1.
         14    1    4    4    0    0  0.19171976055E+01  0.32587870898E+01 -0.59742969524E+01  0.70701884014E+01  0.00000000000E+00 0. -1.
         -5    1    5    5    0  502 -0.11945681753E+02 -0.86737663802E+02  0.15975299592E+03  0.18223400160E+03  0.47000000000E+01 0.  1.
         13    1    6    6    0    0  0.22816486556E+02  0.36991446307E+02  0.63950095557E+02  0.77321238224E+02  0.00000000000E+00 0. -1.
        -14    1    6    6    0    0 -0.32039669970E+02 -0.91049128567E+01  0.50413202962E+01  0.33687606033E+02  0.00000000000E+00 0.  1.
</event>
<event>
12    1  0.8493057E-002  0.2086205E+03  0.7818608E-02  0.1143046E+00
         21   -1    0    0  501  502  0.00000000000E+00  0.00000000000E+00  0.17036135712E+03  0.17036135712E+03  0.00000000000E+00 0.  1.
         21   -1    0    0  502  503 -0.00000000000E+00 -0.00000000000E+00 -0.51913361429E+03  0.51913361429E+03  0.00000000000E+00 0.  1.
         -6    2    1    2    0  503 -0.88972688024E+02 -0.71822637339E+02 -0.42154876102E+03  0.47034652853E+03  0.17449317621E+03 0.  0.
        -24    2    3    3    0    0 -0.34060076827E+02 -0.61549078703E+02 -0.11178645763E+03  0.15555180896E+03  0.82169186668E+02 0.  0.
          6    2    1    2  501    0  0.88972688024E+02  0.71822637339E+02  0.72776503841E+02  0.21914844288E+03  0.17220624279E+03 0.  0.
         24    2    5    5    0    0  0.12176070366E+03  0.73296120502E+02  0.31138420507E+02  0.16592208563E+03  0.79765575491E+02 0.  0.
          5    1    5    5  501    0 -0.32788015633E+02 -0.14734831626E+01  0.41638083334E+02  0.53226357245E+02  0.47000000000E+01 0. -1.
        -13    1    6    6    0    0  0.30256255811E+02 -0.47572120207E+01 -0.18530730455E+02  0.35797486688E+02  0.00000000000E+00 0.  1.
         14    1    6    6    0    0  0.91504447846E+02  0.78053332522E+02  0.49669150962E+02  0.13012459895E+03  0.00000000000E+00 0. -1.
         -5    1    3    3    0  503 -0.54912611196E+02 -0.10273558636E+02 -0.30976230338E+03  0.31479471958E+03  0.47000000000E+01 0.  1.
         11    1    4    4    0    0 -0.47365052111E+02 -0.14466966878E+02 -0.23958863165E+02  0.55016074163E+02  0.00000000000E+00 0. -1.
        -12    1    4    4    0    0  0.13304975283E+02 -0.47082111825E+02 -0.87827594468E+02  0.10053573480E+03  0.00000000000E+00 0.  1.
</event>
<event>
12    1  0.8493057E-002  0.2220331E+03  0.7818608E-02  0.1133731E+00
         21   -1    0    0  503  502  0.00000000000E+00  0.00000000000E+00  0.59913044062E+03  0.59913044062E+03  0.00000000000E+00 0.  1.
         21   -1    0    0  501  503 -0.00000000000E+00 -0.00000000000E+00 -0.79922122029E+02  0.79922122029E+02  0.00000000000E+00 0.  1.
          6    2    1    2  501    0 -0.13099508509E+03  0.50404745746E+02  0.24325008416E+03  0.32934679956E+03  0.17204173977E+03 0.  0.
         24    2    3    3    0    0 -0.37450838502E+02 -0.15658444613E+01  0.19298520829E+03  0.21102471344E+03  0.76701511670E+02 0.  0.
         -6    2    1    2    0  502  0.13099508509E+03 -0.50404745746E+02  0.27595823443E+03  0.34970576309E+03  0.16260634328E+03 0.  0.
        -24    2    5    5    0    0  0.99935665396E+02 -0.81201098606E+01  0.26752614020E+03  0.29635908375E+03  0.78774344973E+02 0.  0.
          5    1    3    3  501    0 -0.93544246591E+02  0.51970590208E+02  0.50264875876E+02  0.11832208612E+03  0.47000000000E+01 0. -1.
        -13    1    4    4    0    0 -0.43027666877E+02  0.19835998954E+02  0.17827327503E+03  0.18446194069E+03  0.00000000000E+00 0.  1.
         14    1    4    4    0    0  0.55768283757E+01 -0.21401843416E+02  0.14711933254E+02  0.26562772754E+02  0.00000000000E+00 0. -1.
         -5    1    5    5    0  502  0.31059419697E+02 -0.42284635886E+02  0.84320942288E+01  0.53346679344E+02  0.47000000000E+01 0.  1.
         13    1    6    6    0    0  0.18866359885E+02  0.13047033022E+02  0.15158904319E+03  0.15331471756E+03  0.00000000000E+00 0. -1.
        -14    1    6    6    0    0  0.81069305510E+02 -0.21167142883E+02  0.11593709701E+03  0.14304436619E+03  0.00000000000E+00 0.  1.
</event>
<event>
12    1  0.8493057E-002  0.1905343E+03  0.7818608E-02  0.1158093E+00
         21   -1    0    0  501  502  0.00000000000E+00  0.00000000000E+00  0.82599709378E+03  0.82599709378E+03  0.00000000000E+00 0.  1.
         21   -1    0    0  502  503 -0.00000000000E+00 -0.00000000000E+00 -0.10426809942E+03  0.10426809942E+03  0.00000000000E+00 0.  1.
         -6    2    1    2    0  503  0.74267126310E+02  0.37304253356E+02  0.69552007582E+01  0.19066120867E+03  0.17145293321E+03 0.  0.
        -24    2    3    3    0    0  0.72237161983E+02  0.56222596188E+02  0.57021081777E+02  0.13689591417E+03  0.84320220915E+02 0.  0.
          6    2    1    2  501    0 -0.74267126310E+02 -0.37304253356E+02  0.71477379360E+03  0.73960398453E+03  0.17089547843E+03 0.  0.
         24    2    5    5    0    0 -0.25007671474E+02  0.15278319331E+02  0.58524186190E+03  0.59130687677E+03  0.79227362168E+02 0.  0.
          5    1    5    5  501    0 -0.49259454836E+02 -0.52582572688E+02  0.12953193170E+03  0.14829710776E+03  0.47000000000E+01 0. -1.
        -13    1    6    6    0    0 -0.32168952795E+02  0.39768055505E+02  0.49150558373E+03  0.49415997269E+03  0.00000000000E+00 0.  1.
         14    1    6    6    0    0  0.71612813208E+01 -0.24489736174E+02  0.93736278171E+02  0.97146904085E+02  0.00000000000E+00 0. -1.
         -5    1    3    3    0  503  0.20299643261E+01 -0.18918342832E+02 -0.50065881019E+02  0.53765294502E+02  0.47000000000E+01 0.  1.
         11    1    4    4    0    0 -0.27916397703E+01 -0.16905287096E+02  0.18632924824E+02  0.25313393133E+02  0.00000000000E+00 0. -1.
        -12    1    4    4    0    0  0.75028801754E+02  0.73127883284E+02  0.38388156954E+02  0.11158252103E+03  0.00000000000E+00 0.  1.
</event>
<event>
12    1  0.8493057E-002  0.2195914E+03  0.7818608E-02  0.1134322E+00
         21   -1    0    0  501  502  0.00000000000E+00  0.00000000000E+00  0.35725489161E+03  0.35725489161E+03  0.00000000000E+00 0.  1.
         21   -1    0    0  502  503 -0.00000000000E+00 -0.00000000000E+00 -0.16325741771E+03  0.16325741771E+03  0.00000000000E+00 0.  1.
         -6    2    1    2    0  503 -0.37318835970E+02  0.12974732774E+03 -0.12290699899E+02  0.21922311018E+03  0.17228071906E+03 0.  0.
        -24    2    3    3    0    0  0.95764869211E+01  0.53596004095E+01  0.21635935181E+02  0.81947531195E+02  0.78274196000E+02 0.  0.
          6    2    1    2  501    0  0.37318835970E+02 -0.12974732774E+03  0.20628817380E+03  0.30128919914E+03  0.17318575661E+03 0.  0.
         24    2    5    5    0    0  0.47720914258E+02 -0.11440720157E+03  0.58498271894E+02  0.15226749666E+03  0.66310250309E+02 0.  0.
          5    1    5    5  501    0 -0.10402078288E+02 -0.15340126168E+02  0.14778990191E+03  0.14902170248E+03  0.47000000000E+01 0. -1.
        -13    1    6    6    0    0  0.23460584313E+02 -0.18740867072E+02  0.42875194140E+02  0.52344067357E+02  0.00000000000E+00 0.  1.
         14    1    6    6    0    0  0.24260329945E+02 -0.95666334497E+02  0.15623077754E+02  0.99923429302E+02  0.00000000000E+00 0. -1.
         -5    1    3    3    0  503 -0.46895322891E+02  0.12438772733E+03 -0.33926635080E+02  0.13727557899E+03  0.47000000000E+01 0.  1.
         11    1    4    4    0    0  0.41298569951E+02  0.38044168803E+00  0.27069038373E+02  0.49380658707E+02  0.00000000000E+00 0. -1.
        -12    1    4    4    0    0 -0.31722083030E+02  0.49791587215E+01 -0.54331031917E+01  0.32566872488E+02  0.00000000000E+00 0.  1.
</event>
<event>
12    1  0.8493057E-002  0.2645754E+03  0.7818608E-02  0.1104535E+00
         21   -1    0    0  503  502  0.00000000000E+00  0.00000000000E+00  0.38960834315E+03  0.38960834315E+03  0.00000000000E+00 0.  1.
         21   -1    0    0  501  503 -0.00000000000E+00 -0.00000000000E+00 -0.25921673025E+03  0.25921673025E+03  0.00000000000E+00 0. -1.
          6    2    1    2  501    0  0.71436105233E+02 -0.18680501829E+03 -0.11502728091E+03  0.28849857794E+03  0.17320774270E+03 0.  0.
         24    2    3    3    0    0  0.12098584840E+02 -0.59988882754E+02 -0.11183147018E+03  0.14837157567E+03  0.75913140729E+02 0.  0.
         -6    2    1    2    0  502 -0.71436105233E+02  0.18680501829E+03  0.24541889382E+03  0.36032649546E+03  0.17206254065E+03 0.  0.
        -24    2    5    5    0    0 -0.79381441954E+02  0.10377882121E+03  0.23032305921E+03  0.27543567146E+03  0.75793406350E+02 0.  0.
          5    1    3    3  501    0  0.59337520393E+02 -0.12681613554E+03 -0.31958107343E+01  0.14012700227E+03  0.47000000000E+01 0. -1.
        -11    1    4    4    0    0 -0.18285770711E+02 -0.30352988034E+02 -0.81811521356E+01  0.36367630434E+02  0.00000000000E+00 0.  1.
         12    1    4    4    0    0  0.30384355551E+02 -0.29635894720E+02 -0.10365031804E+03  0.11200394524E+03  0.00000000000E+00 0. -1.
         -5    1    5    5    0  502  0.79453367211E+01  0.83026197081E+02  0.15095834607E+02  0.84890824003E+02  0.47000000000E+01 0.  1.
         11    1    6    6    0    0 -0.22025370257E+02  0.31515885422E+02  0.15165674745E+02  0.41332380277E+02  0.00000000000E+00 0. -1.
        -12    1    6    6    0    0 -0.57356071696E+02  0.72262935791E+02  0.21515738447E+03  0.23410329118E+03  0.00000000000E+00 0.  1.
</event>
<event>
12    1  0.8493057E-002  0.2026804E+03  0.7818608E-02  0.1148291E+00
         21   -1    0    0  503  502  0.00000000000E+00  0.00000000000E+00  0.72046084254E+03  0.72046084254E+03  0.00000000000E+00 0. -1.
         21   -1    0    0  501  503 -0.00000000000E+00 -0.00000000000E+00 -0.71975386232E+02  0.71975386232E+02  0.00000000000E+00 0. -1.
          6    2    1    2  501    0 -0.91347834679E+01  0.10030358971E+03  0.50877614047E+03  0.54626956081E+03  0.17150223783E+03 0.  0.
         24    2    3    3    0    0  0.56376535986E+02  0.35476915598E+02  0.24552599501E+03  0.26731264705E+03  0.82073818573E+02 0.  0.
         -6    2    1    2    0  502  0.91347834679E+01 -0.10030358971E+03  0.13970931584E+03  0.24616666796E+03  0.17588371473E+03 0.  0.
        -24    2    5    5    0    0  0.37516263140E+02 -0.57932449215E+01  0.17124246924E+02  0.88728099688E+02  0.78347968416E+02 0.  0.
          5    1    3    3  501    0 -0.65511319453E+02  0.64826674107E+02  0.26325014546E+03  0.27895691377E+03  0.47000000000E+01 0. -1.
        -11    1    4    4    0    0  0.47008172489E+01  0.49125400566E+02  0.87038268861E+02  0.10005529926E+03  0.00000000000E+00 0.  1.
         12    1    4    4    0    0  0.51675718737E+02 -0.13648484968E+02  0.15848772615E+03  0.16725734779E+03  0.00000000000E+00 0. -1.
         -5    1    5    5    0  502 -0.28381479672E+02 -0.94510344784E+02  0.12258506891E+03  0.15743856827E+03  0.47000000000E+01 0.  1.
         11    1    6    6    0    0  0.16980150883E+02 -0.42017763109E+02  0.11049338576E+02  0.46646605703E+02  0.00000000000E+00 0. -1.
        -12    1    6    6    0    0  0.20536112258E+02  0.36224518187E+02  0.60749083478E+01  0.42081493985E+02  0.00000000000E+00 0.  1.
</event>
<event>
12    1  0.8493057E-002  0.1956572E+03  0.7818608E-02  0.1154268E+00
         21   -1    0    0  501  502  0.00000000000E+00  0.00000000000E+00  0.10007666719E+03  0.10007666719E+03  0.00000000000E+00 0. -1.
         21   -1    0    0  502  503 -0.00000000000E+00 -0.00000000000E+00 -0.37574874655E+03  0.37574874655E+03  0.00000000000E+00 0. -1.
         -6    2    1    2    0  503 -0.66343416279E+02  0.55751789956E+02 -0.14721313145E+03  0.24485394926E+03  0.17541960960E+03 0.  0.
        -24    2    3    3    0    0  0.20409173779E+02  0.64346753784E+02 -0.59330444686E+02  0.12097763224E+03  0.80984237603E+02 0.  0.
          6    2    1    2  501    0  0.66343416279E+02 -0.55751789956E+02 -0.12845894791E+03  0.23097146448E+03  0.17127873523E+03 0.  0.
         24    2    5    5    0    0  0.15535402322E+02 -0.29080650369E+02  0.24709892915E+01  0.87941598985E+02  0.81489791341E+02 0.  0.
          5    1    5    5  501    0  0.50808013957E+02 -0.26671139588E+02 -0.13092993720E+03  0.14302986550E+03  0.47000000000E+01 0. -1.
        -13    1    6    6    0    0 -0.13589566753E+02 -0.43486405792E+02 -0.18604169601E+02  0.49212386041E+02  0.00000000000E+00 0.  1.
         14    1    6    6    0    0  0.29124969075E+02  0.14405755424E+02  0.21075158892E+02  0.38729212944E+02  0.00000000000E+00 0. -1.
         -5    1    3    3    0  503 -0.86752590058E+02 -0.85949638276E+01 -0.87882686760E+02  0.12387631701E+03  0.47000000000E+01 0.  1.
         13    1    4    4    0    0 -0.25807132434E+02  0.43582255309E+02 -0.46391942935E+02  0.68685030622E+02  0.00000000000E+00 0. -1.
        -14    1    4    4    0    0  0.46216306213E+02  0.20764498475E+02 -0.12938501751E+02  0.52292601622E+02  0.00000000000E+00 0.  1.
</event>
<event>
12    1  0.8493057E-002  0.2202903E+03  0.7818608E-02  0.1133758E+00
         21   -1    0    0  501  502  0.00000000000E+00  0.00000000000E+00  0.91917005499E+03  0.91917005499E+03  0.00000000000E+00 0.  1.
         21   -1    0    0  502  503 -0.00000000000E+00 -0.00000000000E+00 -0.10014256552E+03  0.10014256552E+03  0.00000000000E+00 0. -1.
         -6    2    1    2    0  503  0.11560311377E+03 -0.75218809095E+02  0.58395752499E+02  0.22742344865E+03  0.17114149682E+03 0.  0.
        -24    2    3    3    0    0  0.13033537147E+02 -0.83889393320E+02  0.46793569396E+02  0.12372967964E+03  0.76890129954E+02 0.  0.
          6    2    1    2  501    0 -0.11560311377E+03  0.75218809095E+02  0.76063173698E+03  0.79188917185E+03  0.17177273370E+03 0.  0.
         24    2    5    5    0    0 -0.14567810033E+03  0.81555457999E+02  0.58335179170E+03  0.61190326425E+03  0.79075219142E+02 0.  0.
          5    1    5    5  501    0  0.30074986556E+02 -0.63366489038E+01  0.17727994528E+03  0.17998590760E+03  0.47000000000E+01 0. -1.
        -13    1    6    6    0    0 -0.10059307897E+03  0.28786401385E+02  0.24335994854E+03  0.26489939410E+03  0.00000000000E+00 0.  1.
         14    1    6    6    0    0 -0.45085021355E+02  0.52769056614E+02  0.33999184315E+03  0.34700387015E+03  0.00000000000E+00 0. -1.
         -5    1    3    3    0  503  0.10256957663E+03  0.86705842254E+01  0.11602183102E+02  0.10369376902E+03  0.47000000000E+01 0.  1.
         11    1    4    4    0    0  0.29838209870E+02 -0.96111384925E+01 -0.48416418605E+01  0.31719619280E+02  0.00000000000E+00 0. -1.
        -12    1    4    4    0    0 -0.16804672723E+02 -0.74278254828E+02  0.51635211257E+02  0.92010060358E+02  0.00000000000E+00 0.  1.
</event>
<event>
12    1  0.8493057E-002  0.2861668E+03  0.7818608E-02  0.1092384E+00
         21   -1    0    0  501  502  0.00000000000E+00  0.00000000000E+00  0.71631467363E+02  0.71631467363E+02  0.00000000000E+00 0. -1.
         21   -1    0    0  502  503 -0.00000000000E+00 -0.00000000000E+00 -0.17543352012E+04  0.17543352012E+04  0.00000000000E+00 0. -1.
         -6    2    1    2    0  503 -0.21287783075E+03  0.83334567925E+02 -0.13805341569E+04  0.14098815515E+04  0.17213311643E+03 0.  0.
        -24    2    3    3    0    0 -0.20381700756E+03  0.10958583131E+03 -0.13275352152E+04  0.13498631779E+04  0.78933037673E+02 0.  0.
          6    2    1    2  501    0  0.21287783075E+03 -0.83334567925E+02 -0.30216957693E+03  0.41608511709E+03  0.17192658434E+03 0.  0.
         24    2    5    5    0    0  0.48318525124E+02 -0.52045340982E+02 -0.17596053842E+03  0.20630048420E+03  0.80959133606E+02 0.  0.
          5    1    5    5  501    0  0.16455930563E+03 -0.31289226944E+02 -0.12620903852E+03  0.20978463289E+03  0.47000000000E+01 0. -1.
        -13    1    6    6    0    0  0.64397803597E+02 -0.47691144158E+02 -0.98058441354E+02  0.12663719935E+03  0.00000000000E+00 0.  1.
         14    1    6    6    0    0 -0.16079278474E+02 -0.43541968239E+01 -0.77902097061E+02  0.79663284848E+02  0.00000000000E+00 0. -1.
         -5    1    3    3    0  503 -0.90608231979E+01 -0.26251263385E+02 -0.52998941747E+02  0.60018373626E+02  0.47000000000E+01 0.  1.
         13    1    4    4    0    0 -0.69398854690E+02  0.70196604504E+02 -0.41106355220E+03  0.42274934449E+03  0.00000000000E+00 0. -1.
        -14    1    4    4    0    0 -0.13441815287E+03  0.39389226806E+02 -0.91647166299E+03  0.92711383340E+03  0.00000000000E+00 0.  1.
</event>
<event>
12    1  0.8493057E-002  0.2026919E+03  0.7818608E-02  0.1147622E+00
         21   -1    0    0  503  502  0.00000000000E+00  0.00000000000E+00  0.48711259190E+03  0.48711259190E+03  0.00000000000E+00 0. -1.
         21   -1    0    0  501  503 -0.00000000000E+00 -0.00000000000E+00 -0.12168146332E+03  0.12168146332E+03  0.00000000000E+00 0. -1.
          6    2    1    2  501    0 -0.10648493003E+03 -0.79018329041E+00  0.13690842929E+02  0.20315372282E+03  0.17246544930E+03 0.  0.
         24    2    3    3    0    0 -0.13391886520E+03  0.25607380506E+02  0.31379383058E+02  0.16091124865E+03  0.79484362409E+02 0.  0.
         -6    2    1    2    0  502  0.10648493003E+03  0.79018329041E+00  0.35174028565E+03  0.40564033240E+03  0.17170668596E+03 0.  0.
        -24    2    5    5    0    0  0.13733193112E+02 -0.45213204908E+02  0.20395542651E+03  0.22513645150E+03  0.82799585143E+02 0.  0.
          5    1    3    3  501    0  0.27433935162E+02 -0.26397563797E+02 -0.17688540129E+02  0.42242474179E+02  0.47000000000E+01 0. -1.
        -11    1    4    4    0    0 -0.34900999752E+02 -0.34198150914E+01  0.44760993036E+02  0.56862302245E+02  0.00000000000E+00 0.  1.
         12    1    4    4    0    0 -0.99017865444E+02  0.29027195598E+02 -0.13381609978E+02  0.10404894640E+03  0.00000000000E+00 0. -1.
         -5    1    5    5    0  502  0.92751736923E+02  0.46003388198E+02  0.14778485914E+03  0.18050388090E+03  0.47000000000E+01 0.  1.
         11    1    6    6    0    0  0.22088152721E+02  0.78117799872E+01  0.13858150392E+03  0.14054801181E+03  0.00000000000E+00 0. -1.
        -12    1    6    6    0    0 -0.83549596090E+01 -0.53024984895E+02  0.65373922595E+02  0.84588439687E+02  0.00000000000E+00 0.  1.
</event>
<event>
12    1  0.8493057E-002  0.2741144E+03  0.7818608E-02  0.1099053E+00
         21   -1    0    0  503  502  0.00000000000E+00  0.00000000000E+00  0.14464664339E+03  0.14464664339E+03  0.00000000000E+00 0. -1.
         21   -1    0    0  501  503 -0.00000000000E+00 -0.00000000000E+00 -0.56158814672E+03  0.56158814672E+03  0.00000000000E+00 0.  1.
          6    2    1    2  501    0 -0.12588726408E+03  0.17103909431E+03 -0.30653721481E+03  0.41072195141E+03  0.17212054575E+03 0.  0.
         24    2    3    3    0    0 -0.69788598222E+02  0.36519814993E+02 -0.20183031575E+03  0.23120002649E+03  0.80708305415E+02 0.  0.
         -6    2    1    2    0  502  0.12588726408E+03 -0.17103909431E+03 -0.11040428852E+03  0.29551283870E+03  0.17331115335E+03 0.  0.
        -24    2    5    5    0    0  0.12056864366E+03 -0.12120158602E+03 -0.14252284955E+03  0.23579887955E+03  0.77857091306E+02 0.  0.
          5    1    3    3  501    0 -0.56098665857E+02  0.13451927931E+03 -0.10470689906E+03  0.17952192492E+03  0.47000000000E+01 0. -1.
        -13    1    4    4    0    0 -0.32105194473E+02  0.48730418290E+02 -0.17194792981E+03  0.18158052689E+03  0.00000000000E+00 0.  1.
         14    1    4    4    0    0 -0.37683403749E+02 -0.12210603297E+02 -0.29882385938E+02  0.49619499597E+02  0.00000000000E+00 0. -1.
         -5    1    5    5    0  502  0.53186204195E+01 -0.49837508284E+02  0.32118561027E+02  0.59713959152E+02  0.47000000000E+01 0.  1.
         11    1    6    6    0    0  0.61196075609E+02 -0.36958825821E+02 -0.17181568089E+02  0.73526326972E+02  0.00000000000E+00 0. -1.
        -12    1    6    6    0    0  0.59372568050E+02 -0.84242760201E+02 -0.12534128146E+03  0.16227255258E+03  0.00000000000E+00 0.  1.
</event>
<event>
12    1  0.8493057E-002  0.2195559E+03  0.7818608E-02  0.1134549E+00
         21   -1    0    0  503  502  0.00000000000E+00  0.00000000000E+00  0.26095024767E+03  0.26095024767E+03  0.00000000000E+00 0.  1.
         21   -1    0    0  501  503 -0.00000000000E+00 -0.00000000000E+00 -0.18323113508E+03  0.18323113508E+03  0.00000000000E+00 0. -1.
          6    2    1    2  501    0  0.52703352368E+01 -0.13292061115E+03  0.38495514275E+02  0.22290510860E+03  0.17466859339E+03 0.  0.
         24    2    3    3    0    0 -0.53819635807E+02 -0.50277574131E+02  0.27550440881E+02  0.12061444002E+03  0.91457250616E+02 0.  0.
         -6    2    1    2    0  502 -0.52703352368E+01  0.13292061115E+03  0.39223598318E+02  0.22127627416E+03  0.17242109365E+03 0.  0.
        -24    2    5    5    0    0  0.50887316940E+02  0.13089038255E+03  0.36768220115E+02  0.16483229655E+03  0.78076710385E+02 0.  0.
          5    1    3    3  501    0  0.59089971044E+02 -0.82643037024E+02  0.10945073394E+02  0.10229066858E+03  0.47000000000E+01 0. -1.
        -11    1    4    4    0    0  0.15371043254E+02 -0.42410631086E+02  0.23489920048E+02  0.50859678958E+02  0.00000000000E+00 0.  1.
         12    1    4    4    0    0 -0.69190679061E+02 -0.78669430450E+01  0.40605208331E+01  0.69754761065E+02  0.00000000000E+00 0. -1.
         -5    1    5    5    0  502 -0.56157652176E+02  0.20302286021E+01  0.24553782032E+01  0.56443977608E+02  0.47000000000E+01 0.  1.
         11    1    6    6    0    0  0.88501473655E+00  0.77930434102E+02 -0.95475865703E+01  0.78518101224E+02  0.00000000000E+00 0. -1.
        -12    1    6    6    0    0  0.50002302203E+02  0.52959948450E+02  0.46315806685E+02  0.86314195324E+02  0.00000000000E+00 0.  1.
</event>
<event>
12    1  0.8493057E-002  0.2547662E+03  0.7818608E-02  0.1110503E+00
         21   -1    0    0  501  502  0.00000000000E+00  0.00000000000E+00  0.75365723428E+03  0.75365723428E+03  0.00000000000E+00 0. -1.
         21   -1    0    0  502  503 -0.00000000000E+00 -0.00000000000E+00 -0.87638270056E+02  0.87638270056E+02  0.00000000000E+00 0. -1.
         -6    2    1    2    0  503 -0.14613096581E+03 -0.11528446149E+03  0.27184875069E+03  0.37256888632E+03  0.17395707968E+03 0.  0.
        -24    2    3    3    0    0 -0.12218133958E+03 -0.12643871398E+03  0.15345893898E+03  0.25117597277E+03  0.92869237136E+02 0.  0.
          6    2    1    2  501    0  0.14613096581E+03  0.11528446149E+03  0.39417021354E+03  0.46872661802E+03  0.17230704851E+03 0.  0.
         24    2    5    5    0    0  0.72088144737E+02  0.12267293086E+03  0.19553893318E+03  0.25656299161E+03  0.85695657417E+02 0.  0.
          5    1    5    5  501    0  0.74042821075E+02 -0.73884693632E+01  0.19863128036E+03  0.21216362640E+03  0.47000000000E+01 0. -1.
        -11    1    6    6    0    0  0.15419615422E+02  0.34200395729E+02  0.35213069164E+01  0.37680647688E+02  0.00000000000E+00 0.  1.
         12    1    6    6    0    0  0.56668529314E+02  0.88472535126E+02  0.19201762626E+03  0.21888234392E+03  0.00000000000E+00 0. -1.
         -5    1    3    3    0  503 -0.23949626235E+02  0.11154252493E+02  0.11838981170E+03  0.12139291355E+03  0.47000000000E+01 0.  1.
         11    1    4    4    0    0 -0.12727492532E+03 -0.12660419875E+03  0.16161995579E+03  0.24155442423E+03  0.00000000000E+00 0. -1.
        -12    1    4    4    0    0  0.50935857413E+01  0.16548476285E+00 -0.81610168071E+01  0.96215485363E+01  0.00000000000E+00 0.  1.
</event>
<event>
12    1  0.8493057E-002  0.2069135E+03  0.7818608E-02  0.1144409E+00
         21   -1    0    0  503  502  0.00000000000E+00  0.00000000000E+00  0.59158046868E+02  0.59158046868E+02  0.00000000000E+00 0. -1.
         21   -1    0    0  501  503 -0.00000000000E+00 -0.00000000000E+00 -0.73481362369E+03  0.73481362369E+03  0.00000000000E+00 0. -1.
          6    2    1    2  501    0 -0.69516273180E+02  0.86523655523E+02 -0.40067195040E+03  0.45094479607E+03  0.17462629259E+03 0.  0.
         24    2    3    3    0    0  0.12096558626E+02  0.44272659981E+02 -0.99232913561E+02  0.13577280514E+03  0.80502722489E+02 0.  0.
         -6    2    1    2    0  502  0.69516273180E+02 -0.86523655523E+02 -0.27498362643E+03  0.34302687449E+03  0.17243139685E+03 0.  0.
        -24    2    5    5    0    0  0.80408693667E+02 -0.66028960633E+02 -0.28766299626E+03  0.31616549399E+03  0.79907687448E+02 0.  0.
          5    1    3    3  501    0 -0.81612831806E+02  0.42250995542E+02 -0.30143903684E+03  0.31517199093E+03  0.47000000000E+01 0. -1.
        -13    1    4    4    0    0  0.15992910072E+02  0.26804054966E+02 -0.11036608430E+03  0.11469482595E+03  0.00000000000E+00 0.  1.
         14    1    4    4    0    0 -0.38963514465E+01  0.17468605015E+02  0.11133170742E+02  0.21077979186E+02  0.00000000000E+00 0. -1.
         -5    1    5    5    0  502 -0.10892420487E+02 -0.20494694890E+02  0.12679369838E+02  0.26861380497E+02  0.47000000000E+01 0.  1.
         13    1    6    6    0    0  0.56579999133E+02  0.20464766825E+01 -0.96969514712E+02  0.11228789406E+03  0.00000000000E+00 0. -1.
        -14    1    6    6    0    0  0.23828694534E+02 -0.68075437315E+02 -0.19069348155E+03  0.20387759994E+03  0.00000000000E+00 0.  1.
</event>
<event>
12    1  0.8493057E-002  0.1834596E+03  0.7818608E-02  0.1164958E+00
         21   -1    0    0  503  502  0.00000000000E+00  0.00000000000E+00  0.18292845992E+03  0.18292845992E+03  0.00000000000E+00 0.  1.
         21   -1    0    0  501  503 -0.00000000000E+00 -0.00000000000E+00 -0.28125917899E+03  0.28125917899E+03  0.00000000000E+00 0.  1.
          6    2    1    2  501    0  0.53427524916E+02 -0.26069811917E+02 -0.18717933592E+03  0.26209450174E+03  0.17356061918E+03 0.  0.
         24    2    3    3    0    0  0.82584208034E+02 -0.95622607461E+01 -0.58307672671E+02  0.12885559223E+03  0.79324590829E+02 0.  0.
         -6    2    1    2    0  502 -0.53427524916E+02  0.26069811917E+02  0.88848616851E+02  0.20209313717E+03  0.17150342231E+03 0.  0.
        -24    2    5    5    0    0 -0.77072208596E+02 -0.21971642383E+02  0.19329336469E+02  0.11421781218E+03  0.79051925749E+02 0.  0.
          5    1    3    3  501    0 -0.29156683118E+02 -0.16507551171E+02 -0.12887166325E+03  0.13323890950E+03  0.47000000000E+01 0. -1.
        -13    1    4    4    0    0  0.54238997095E+02  0.31539312052E+02 -0.44917602883E+02  0.77163385484E+02  0.00000000000E+00 0.  1.
         14    1    4    4    0    0  0.28345210940E+02 -0.41101572798E+02 -0.13390069788E+02  0.51692206750E+02  0.00000000000E+00 0. -1.
         -5    1    5    5    0  502  0.23644683680E+02  0.48041454299E+02  0.69519280382E+02  0.87875324991E+02  0.47000000000E+01 0.  1.
         11    1    6    6    0    0 -0.32257521953E+02  0.11543740915E+02 -0.25340988774E+02  0.42614215808E+02  0.00000000000E+00 0. -1.
        -12    1    6    6    0    0 -0.44814686642E+02 -0.33515383298E+02  0.44670325243E+02  0.71603596375E+02  0.00000000000E+00 0.  1.
</event>
<event>
12    1  0.8493057E-002  0.2109652E+03  0.7818608E-02  0.1140889E+00
         21   -1    0    0  503  502  0.00000000000E+00  0.00000000000E+00  0.11578611705E+03  0.11578611705E+03  0.00000000000E+00 0. -1.
         21   -1    0    0  501  503 -0.00000000000E+00 -0.00000000000E+00 -0.40420644360E+03  0.40420644360E+03  0.00000000000E+00 0. -1.
          6    2    1    2  501    0 -0.11275726496E+03 -0.45773674727E+02 -0.20305681484E+03  0.29281116171E+03  0.17232781631E+03 0.  0.
         24    2    3    3    0    0 -0.99804719240E+02  0.24658123099E+02 -0.91827242051E+02  0.16043852690E+03  0.82093078353E+02 0.  0.
         -6    2    1    2    0  502  0.11275726496E+03  0.45773674727E+02 -0.85363511705E+02  0.22718139893E+03  0.17179938531E+03 0.  0.
        -24    2    5    5    0    0  0.10123519108E+03  0.39767302439E+02 -0.12573223227E+03  0.18451339811E+03  0.80041224354E+02 0.  0.
          5    1    3    3  501    0 -0.12952545716E+02 -0.70431797826E+02 -0.11122957279E+03  0.13237263482E+03  0.47000000000E+01 0. -1.
        -11    1    4    4    0    0 -0.10715940642E+03  0.22177759586E+01 -0.68242362158E+02  0.12706327914E+03  0.00000000000E+00 0.  1.
         12    1    4    4    0    0  0.73546871757E+01  0.22440347140E+02 -0.23584879893E+02  0.33375247756E+02  0.00000000000E+00 0. -1.
         -5    1    5    5    0  502  0.11522073878E+02  0.60063722883E+01  0.40368720560E+02  0.42668000822E+02  0.47000000000E+01 0.  1.
         11    1    6    6    0    0  0.95428134401E+02  0.55527845139E+02 -0.81590108124E+02  0.13728370684E+03  0.00000000000E+00 0. -1.
        -12    1    6    6    0    0  0.58070566767E+01 -0.15760542700E+02 -0.44142124141E+02  0.47229691267E+02  0.00000000000E+00 0.  1.
</event>
<event>
12    1  0.8493057E-002  0.1985181E+03  0.7818608E-02  0.1151377E+00
         21   -1    0    0  501  502  0.00000000000E+00  0.00000000000E+00  0.50671209099E+03  0.50671209099E+03  0.00000000000E+00 0. -1.
         21   -1    0    0  502  503 -0.00000000000E+00 -0.00000000000E+00 -0.81177429380E+02  0.81177429380E+02  0.00000000000E+00 0. -1.
         -6    2    1    2    0  503 -0.30078201456E+02 -0.92503455639E+02  0.14762144043E+03  0.24738942169E+03  0.17305446767E+03 0.  0.
        -24    2    3    3    0    0  0.16025767406E+02  0.42087020999E+01  0.25928115537E+02  0.85185313471E+02  0.79433821899E+02 0.  0.
          6    2    1    2  501    0  0.30078201456E+02  0.92503455639E+02  0.27791322118E+03  0.34050009868E+03  0.17100576361E+03 0.  0.
         24    2    5    5    0    0  0.67899295814E+02  0.32761524873E+02  0.10325494822E+03  0.15201366473E+03  0.82237084392E+02 0.  0.
          5    1    5    5  501    0 -0.37821094358E+02  0.59741930765E+02  0.17465827295E+03  0.18848643394E+03  0.47000000000E+01 0. -1.
        -13    1    6    6    0    0  0.27750182596E+02  0.42163184703E+02  0.12011625836E+02  0.51885315202E+02  0.00000000000E+00 0.  1.
         14    1    6    6    0    0  0.40149113218E+02 -0.94016598294E+01  0.91243322388E+02  0.10012834953E+03  0.00000000000E+00 0. -1.
         -5    1    3    3    0  503 -0.46103968862E+02 -0.96712157739E+02  0.12169332490E+03  0.16220410822E+03  0.47000000000E+01 0.  1.
         11    1    4    4    0    0 -0.12933409774E+01 -0.15118411041E+02 -0.24300374854E+02  0.28648687602E+02  0.00000000000E+00 0. -1.
        -12    1    4    4    0    0  0.17319108384E+02  0.19327113141E+02  0.50228490391E+02  0.56536625868E+02  0.00000000000E+00 0.  1.
</event>
<event>
12    1  0.8493057E-002  0.1766743E+03  0.7818608E-02  0.1172162E+00
         21   -1    0    0  503  502  0.00000000000E+00  0.00000000000E+00  0.89721438724E+02  0.89721438724E+02  0.00000000000E+00 0.  1.
         21   -1    0    0  501  503 -0.00000000000E+00 -0.00000000000E+00 -0.58976968767E+03  0.58976968767E+03  0.00000000000E+00 0.  1.
          6    2    1    2  501    0  0.11501771106E+02 -0.60132644769E+01 -0.46960488277E+03  0.50021308245E+03  0.17180201349E+03 0.  0.
         24    2    3    3    0    0  0.71969737117E+02  0.73321193548E+01 -0.26309889817E+03  0.28457151443E+03  0.80786840317E+02 0.  0.
         -6    2    1    2    0  502 -0.11501771106E+02  0.60132644769E+01 -0.30443366177E+02  0.17927804395E+03  0.17619695914E+03 0.  0.
        -24    2    5    5    0    0  0.11895027288E+02  0.50953155785E+02  0.28863951824E+02  0.10113425357E+03  0.81592240882E+02 0.  0.
          5    1    3    3  501    0 -0.60467966011E+02 -0.13345383832E+02 -0.20650598460E+03  0.21564156802E+03  0.47000000000E+01 0. -1.
        -13    1    4    4    0    0  0.29433653976E+02  0.39332351588E+02 -0.17382145802E+03  0.18063021103E+03  0.00000000000E+00 0.  1.
         14    1    4    4    0    0  0.42536083141E+02 -0.32000232233E+02 -0.89277440150E+02  0.10394130340E+03  0.00000000000E+00 0. -1.
         -5    1    5    5    0  502 -0.23396798394E+02 -0.44939891308E+02 -0.59307318001E+02  0.78143790376E+02  0.47000000000E+01 0.  1.
         13    1    6    6    0    0  0.21835782998E+02 -0.15803617657E+02 -0.17738438491E+01  0.27013001910E+02  0.00000000000E+00 0. -1.
        -14    1    6    6    0    0 -0.99407557096E+01  0.66756773441E+02  0.30637795673E+02  0.74121251663E+02  0.00000000000E+00 0.  1.
</event>
<event>
12    1  0.8493057E-002  0.1788308E+03  0.7818608E-02  0.1170011E+00
         21   -1    0    0  501  502  0.00000000000E+00  0.00000000000E+00  0.16182776805E+03  0.16182776805E+03  0.00000000000E+00 0. -1.
         21   -1    0    0  502  503 -0.00000000000E+00 -0.00000000000E+00 -0.53751110551E+03  0.53751110551E+03  0.00000000000E+00 0. -1.
         -6    2    1    2    0  503 -0.22447343810E+02 -0.18936721909E+02 -0.46700483038E+03  0.49854028791E+03  0.17200704751E+03 0.  0.
        -24    2    3    3    0    0  0.49126274658E+01  0.46691273340E+02 -0.34359405259E+03  0.35603445693E+03  0.80619182786E+02 0.  0.
          6    2    1    2  501    0  0.22447343810E+02  0.18936721909E+02  0.91321492921E+02  0.20079858565E+03  0.17640287483E+03 0.  0.
         24    2    5    5    0    0 -0.17635787254E+02  0.74038711209E+02  0.57993334863E+02  0.12480027816E+03  0.80119478229E+02 0.  0.
          5    1    5    5  501    0  0.40083131064E+02 -0.55101989301E+02  0.33328158058E+02  0.75998307483E+02  0.47000000000E+01 0. -1.
        -13    1    6    6    0    0 -0.42978410917E+02  0.46360794576E+02  0.60082649472E+02  0.87214630919E+02  0.00000000000E+00 0.  1.
         14    1    6    6    0    0  0.25342623663E+02  0.27677916633E+02 -0.20893146093E+01  0.37585647245E+02  0.00000000000E+00 0. -1.
         -5    1    3    3    0  503 -0.27359971276E+02 -0.65627995249E+02 -0.12341077779E+03  0.14250583098E+03  0.47000000000E+01 0.  1.
         13    1    4    4    0    0  0.20201043079E+02 -0.16956380628E+02 -0.72456943752E+02  0.77107779656E+02  0.00000000000E+00 0. -1.
        -14    1    4    4    0    0 -0.15288415614E+02  0.63647653968E+02 -0.27113710884E+03  0.27892667728E+03  0.00000000000E+00 0.  1.
</event>
<event>
12    1  0.8493057E-002  0.1844247E+03  0.7818608E-02  0.1163739E+00
         21   -1    0    0  503  502  0.00000000000E+00  0.00000000000E+00  0.25652342293E+03  0.25652342293E+03  0.00000000000E+00 0.  1.
         21   -1    0    0  501  503 -0.00000000000E+00 -0.00000000000E+00 -0.19796924885E+03  0.19796924885E+03  0.00000000000E+00 0.  1.
          6    2    1    2  501    0  0.26390007575E+02  0.33183810183E+02 -0.10180831685E+03  0.21009830815E+03  0.17882608297E+03 0.  0.
         24    2    3    3    0    0  0.14166221866E+02  0.55703741593E+02 -0.13567577258E+03  0.16737053258E+03  0.79381302833E+02 0.  0.
         -6    2    1    2    0  502 -0.26390007575E+02 -0.33183810183E+02  0.16036249093E+03  0.24439436363E+03  0.17948503759E+03 0.  0.
        -24    2    5    5    0    0 -0.51464047242E+02 -0.65760916879E+02  0.16490542606E+03  0.20276860711E+03  0.83356236353E+02 0.  0.
          5    1    3    3  501    0  0.12223785709E+02 -0.22519931410E+02  0.33867455735E+02  0.42727775577E+02  0.47000000000E+01 0. -1.
        -11    1    4    4    0    0 -0.27701200829E+02  0.20047356655E+02 -0.88637044503E+02  0.95004098304E+02  0.00000000000E+00 0.  1.
         12    1    4    4    0    0  0.41867422695E+02  0.35656384939E+02 -0.47038728080E+02  0.72366434273E+02  0.00000000000E+00 0. -1.
         -5    1    5    5    0  502  0.25074039667E+02  0.32577106696E+02 -0.45429351309E+01  0.41625756515E+02  0.47000000000E+01 0.  1.
         13    1    6    6    0    0 -0.12533683540E+02 -0.59407464675E+02  0.42361631103E+02  0.74032748645E+02  0.00000000000E+00 0. -1.
        -14    1    6    6    0    0 -0.38930363702E+02 -0.63534522040E+01  0.12254379496E+03  0.12873585847E+03  0.00000000000E+00 0.  1.
</event>
<event>
12    1  0.8493057E-002  0.1730656E+03  0.7818608E-02  0.1174946E+00
         21   -1    0    0  503  502  0.00000000000E+00  0.00000000000E+00  0.42391277762E+03  0.42391277762E+03  0.00000000000E+00 0. -1.
         21   -1    0    0  501  503 -0.00000000000E+00 -0.00000000000E+00 -0.72047263986E+02  0.72047263986E+02  0.00000000000E+00 0. -1.
          6    2    1    2  501    0  0.74077158170E+01 -0.72590334750E+01  0.13719933511E+03  0.22085143664E+03  0.17275454174E+03 0.  0.
         24    2    3    3    0    0 -0.41544986450E+02 -0.47198611360E+02  0.49858190779E+02  0.11295286189E+03  0.79490974379E+02 0.  0.
         -6    2    1    2    0  502 -0.74077158170E+01  0.72590334750E+01  0.21466617853E+03  0.27510860496E+03  0.17174285575E+03 0.  0.
        -24    2    5    5    0    0  0.18422506719E+02 -0.46006125750E+02  0.18686364017E+03  0.20953842331E+03  0.80823130746E+02 0.  0.
          5    1    3    3  501    0  0.48952702267E+02  0.39939577885E+02  0.87341144328E+02  0.10789857475E+03  0.47000000000E+01 0. -1.
        -11    1    4    4    0    0 -0.36228954356E+02 -0.53500900565E+02  0.67523916861E+02  0.93457813174E+02  0.00000000000E+00 0.  1.
         12    1    4    4    0    0 -0.53160320946E+01  0.63022892046E+01 -0.17665726081E+02  0.19495048716E+02  0.00000000000E+00 0. -1.
         -5    1    5    5    0  502 -0.25830222536E+02  0.53265159225E+02  0.27802538354E+02  0.65570181657E+02  0.47000000000E+01 0.  1.
         13    1    6    6    0    0 -0.26105487941E+01 -0.56179150479E+02  0.67261856615E+02  0.87675933236E+02  0.00000000000E+00 0. -1.
        -14    1    6    6    0    0  0.21033055513E+02  0.10173024729E+02  0.11960178356E+03  0.12186249007E+03  0.00000000000E+00 0.  1.
</event>
<event>
12    1  0.8493057E-002  0.1902402E+03  0.7818608E-02  0.1159328E+00
         21   -1    0    0  503  502  0.00000000000E+00  0.00000000000E+00  0.40703230191E+03  0.40703230191E+03  0.00000000000E+00 0. -1.
         21   -1    0    0  501  503 -0.00000000000E+00 -0.00000000000E+00 -0.17943070482E+03  0.17943070482E+03  0.00000000000E+00 0. -1.
          6    2    1    2  501    0 -0.80496122667E+02 -0.38094023142E+01  0.32388826448E+03  0.37324375421E+03  0.16707230436E+03 0.  0.
         24    2    3    3    0    0  0.11288331565E+02  0.29648867728E+02  0.11812959975E+03  0.14542242075E+03  0.78654919310E+02 0.  0.
         -6    2    1    2    0  502  0.80496122667E+02  0.38094023142E+01 -0.96286667391E+02  0.21321925252E+03  0.17232872661E+03 0.  0.
        -24    2    5    5    0    0  0.65610833608E+02  0.10924645024E+02  0.10689311514E+02  0.10487651593E+03  0.80378435271E+02 0.  0.
          5    1    3    3  501    0 -0.91784454232E+02 -0.33458270042E+02  0.20575866472E+03  0.22782133347E+03  0.47000000000E+01 0. -1.
        -13    1    4    4    0    0 -0.32054062771E+02  0.25560875754E+02  0.51408892967E+02  0.65754814162E+02  0.00000000000E+00 0.  1.
         14    1    4    4    0    0  0.43342394336E+02  0.40879919736E+01  0.66720706786E+02  0.79667606587E+02  0.00000000000E+00 0. -1.
         -5    1    5    5    0  502  0.14885289058E+02 -0.71152427099E+01 -0.10697597890E+03  0.10834273659E+03  0.47000000000E+01 0.  1.
         13    1    6    6    0    0  0.43240590958E+02  0.14573231570E+02 -0.32554374867E+02  0.56052788581E+02  0.00000000000E+00 0. -1.
        -14    1    6    6    0    0  0.22370242651E+02 -0.36485865460E+01  0.43243686381E+02  0.48823727345E+02  0.00000000000E+00 0.  1.
</event>
<event>
12    1  0.8493057E-002  0.2090472E+03  0.7818608E-02  0.1142631E+00
         21   -1    0    0  501  502  0.00000000000E+00  0.00000000000E+00  0.30454467458E+02  0.30454467458E+02  0.00000000000E+00 0.  1.
         21   -1    0    0  502  503 -0.00000000000E+00 -0.00000000000E+00 -0.18284288046E+04  0.18284288046E+04  0.00000000000E+00 0.  1.
         -6    2    1    2    0  503  0.62763849428E+02 -0.99793643781E+02 -0.13333072766E+04  0.13493577976E+04  0.17076328647E+03 0.  0.
        -24    2    3    3    0    0  0.12534212216E+01 -0.10956417160E+03 -0.77435539340E+03  0.78692709635E+03  0.87304644292E+02 0.  0.
          6    2    1    2  501    0 -0.62763849428E+02  0.99793643781E+02 -0.46466706056E+03  0.50952547447E+03  0.17263446882E+03 0.  0.
         24    2    5    5    0    0 -0.22576215254E+02  0.13245104845E+03 -0.34302685816E+03  0.37723798125E+03  0.81167132194E+02 0.  0.
          5    1    5    5  501    0 -0.40187634174E+02 -0.32657404673E+02 -0.12164020240E+03  0.13228749322E+03  0.47000000000E+01 0. -1.
        -13    1    6    6    0    0  0.24162126691E+02  0.62392281624E+02 -0.10260626984E+03  0.12249347649E+03  0.00000000000E+00 0.  1.
         14    1    6    6    0    0 -0.46738341946E+02  0.70058766830E+02 -0.24042058832E+03  0.25474450477E+03  0.00000000000E+00 0. -1.
         -5    1    3    3    0  503  0.61510428207E+02  0.97705278171E+01 -0.55895188317E+03  0.56243070123E+03  0.47000000000E+01 0.  1.
         11    1    4    4    0    0 -0.83054501586E+01  0.13809809198E+02 -0.10502338513E+03  0.10625254235E+03  0.00000000000E+00 0. -1.
        -12    1    4    4    0    0  0.95588713802E+01 -0.12337398080E+03 -0.66933200827E+03  0.68067455400E+03  0.00000000000E+00 0.  1.
</event>
<event>
12    1  0.8493057E-002  0.3094931E+03  0.7818608E-02  0.1080686E+00
         21   -1    0    0  503  502  0.00000000000E+00  0.00000000000E+00  0.25156716949E+04  0.25156716949E+04  0.00000000000E+00 0.  1.
         21   -1    0    0  501  503 -0.00000000000E+00 -0.00000000000E+00 -0.43689882118E+02  0.43689882118E+02  0.00000000000E+00 0. -1.
          6    2    1    2  501    0  0.23983807024E+03 -0.90997492059E+02  0.77462829338E+03  0.83416722935E+03  0.17315637476E+03 0.  0.
         24    2    3    3    0    0  0.12434841587E+03 -0.72187714330E+02  0.27087992422E+03  0.31698623837E+03  0.80191940605E+02 0.  0.
         -6    2    1    2    0  502 -0.23983807024E+03  0.90997492059E+02  0.16973535194E+04  0.17251943476E+04  0.17170825228E+03 0.  0.
        -24    2    5    5    0    0 -0.63440415296E+02  0.48748171528E+02  0.41690523383E+03  0.43195382875E+03  0.79831482851E+02 0.  0.
          5    1    3    3  501    0  0.11548965437E+03 -0.18809777729E+02  0.50374836916E+03  0.51718099099E+03  0.47000000000E+01 0. -1.
        -11    1    4    4    0    0  0.65388248091E+01 -0.41411735814E+02  0.84974592795E+02  0.94754258552E+02  0.00000000000E+00 0.  1.
         12    1    4    4    0    0  0.11780959106E+03 -0.30775978516E+02  0.18590533143E+03  0.22223197982E+03  0.00000000000E+00 0. -1.
         -5    1    5    5    0  502 -0.17639765494E+03  0.42249320531E+02  0.12804482855E+04  0.12932405189E+04  0.47000000000E+01 0.  1.
         11    1    6    6    0    0 -0.30970734493E+01  0.25223496137E+02  0.27258489146E+03  0.27376694408E+03  0.00000000000E+00 0. -1.
        -12    1    6    6    0    0 -0.60343341846E+02  0.23524675390E+02  0.14432034238E+03  0.15818688467E+03  0.00000000000E+00 0.  1.
</event>
<event>
12    1  0.8493057E-002  0.1892627E+03  0.7818608E-02  0.1159207E+00
         21   -1    0    0  503  502  0.00000000000E+00  0.00000000000E+00  0.77067671009E+03  0.77067671009E+03  0.00000000000E+00 0. -1.
         21   -1    0    0  501  503 -0.00000000000E+00 -0.00000000000E+00 -0.66259105546E+02  0.66259105546E+02  0.00000000000E+00 0. -1.
          6    2    1    2  501    0 -0.91661244955E+01 -0.77062875024E+02  0.12330185922E+03  0.22588434169E+03  0.17262005326E+03 0.  0.
         24    2    3    3    0    0 -0.33236010739E+01  0.23970843937E+02  0.75947328186E+02  0.11405192664E+03  0.81573265401E+02 0.  0.
         -6    2    1    2    0  502  0.91661244955E+01  0.77062875024E+02  0.58111574533E+03  0.61105147395E+03  0.17223730664E+03 0.  0.
        -24    2    5    5    0    0  0.38810831107E+02  0.11193467327E+03  0.44121243232E+03  0.46377663586E+03  0.79904354353E+02 0.  0.
          5    1    3    3  501    0 -0.58425234216E+01 -0.10103371896E+03  0.47354531030E+02  0.11183241505E+03  0.47000000000E+01 0. -1.
        -13    1    4    4    0    0  0.89577441951E+01 -0.41980072143E+01  0.82115520291E+02  0.82709268636E+02  0.00000000000E+00 0.  1.
         14    1    4    4    0    0 -0.12281345269E+02  0.28168851151E+02 -0.61681921053E+01  0.31342658002E+02  0.00000000000E+00 0. -1.
         -5    1    5    5    0  502 -0.29644706611E+02 -0.34871798246E+02  0.13990331302E+03  0.14727483809E+03  0.47000000000E+01 0.  1.
         11    1    6    6    0    0 -0.24548455451E+02  0.24835252631E+02  0.96123420317E+02  0.10226988008E+03  0.00000000000E+00 0. -1.
        -12    1    6    6    0    0  0.63359286558E+02  0.87099420640E+02  0.34508901200E+03  0.36150675578E+03  0.00000000000E+00 0.  1.
</event>
<event>
12    1  0.8493057E-002  0.1893699E+03  0.7818608E-02  0.1159464E+00
         21   -1    0    0  501  502  0.00000000000E+00  0.00000000000E+00  0.71947837310E+02  0.71947837310E+02  0.00000000000E+00 0.  1.
         21   -1    0    0  502  503 -0.00000000000E+00 -0.00000000000E+00 -0.63054790576E+03  0.63054790576E+03  0.00000000000E+00 0.  1.
         -6    2    1    2    0  503  0.70977065786E+02 -0.23000468617E+02 -0.44419175546E+03  0.48287396528E+03  0.17405224876E+03 0.  0.
        -24    2    3    3    0    0  0.94702119806E+02 -0.54788533868E+02 -0.24457479984E+03  0.27929995354E+03  0.78875575402E+02 0.  0.
          6    2    1    2  501    0 -0.70977065786E+02  0.23000468617E+02 -0.11440831298E+03  0.21962177779E+03  0.17198167860E+03 0.  0.
         24    2    5    5    0    0 -0.75080825195E+02  0.73835668762E+02 -0.44003003515E+02  0.13255826065E+03  0.67428420228E+02 0.  0.
          5    1    5    5  501    0  0.41037594092E+01 -0.50835200144E+02 -0.70405309467E+02  0.87063517136E+02  0.47000000000E+01 0. -1.
        -11    1    6    6    0    0 -0.33578984408E+02  0.33361354269E+01 -0.37567222921E+02  0.50497269545E+02  0.00000000000E+00 0.  1.
         12    1    6    6    0    0 -0.41501840787E+02  0.70499533335E+02 -0.64357805941E+01  0.82060991104E+02  0.00000000000E+00 0. -1.
         -5    1    3    3    0  503 -0.23725054020E+02  0.31788065250E+02 -0.19961695563E+03  0.20357401174E+03  0.47000000000E+01 0.  1.
         13    1    4    4    0    0  0.71973528337E+01  0.36433781456E+01  0.42674876344E+01  0.91262008982E+01  0.00000000000E+00 0. -1.
        -14    1    4    4    0    0  0.87504766973E+02 -0.58431912013E+02 -0.24884228747E+03  0.27017375265E+03  0.00000000000E+00 0.  1.
</event>
<event>
12    1  0.8493057E-002  0.2233505E+03  0.7818608E-02  0.1131437E+00
         21   -1    0    0  501  502  0.00000000000E+00  0.00000000000E+00  0.74955252260E+02  0.74955252260E+02  0.00000000000E+00 0. -1.
         21   -1    0    0  502  503 -0.00000000000E+00 -0.00000000000E+00 -0.15446699390E+04  0.15446699390E+04  0.00000000000E+00 0.  1.
         -6    2    1    2    0  503  0.13577757245E+03 -0.43129863089E+02 -0.13458394395E+04  0.13642225405E+04  0.17182435473E+03 0.  0.
        -24    2    3    3    0    0  0.87049817762E+02  0.27815186978E+02 -0.53128618158E+03  0.54512139036E+03  0.80876251707E+02 0.  0.
          6    2    1    2  501    0 -0.13577757245E+03  0.43129863089E+02 -0.12387524727E+03  0.25540265078E+03  0.17201657730E+03 0.  0.
         24    2    5    5    0    0 -0.71761306560E+02  0.92027875719E+02 -0.67878658865E+02  0.15718449639E+03  0.80502413304E+02 0.  0.
          5    1    5    5  501    0 -0.64016265886E+02 -0.48898012630E+02 -0.55996588410E+02  0.98218154385E+02  0.47000000000E+01 0. -1.
        -13    1    6    6    0    0 -0.34433999158E+02  0.12097547982E+02 -0.57848311950E+02  0.68399401757E+02  0.00000000000E+00 0.  1.
         14    1    6    6    0    0 -0.37327307402E+02  0.79930327737E+02 -0.10030346915E+02  0.88785094634E+02  0.00000000000E+00 0. -1.
         -5    1    3    3    0  503  0.48727754683E+02 -0.70945050067E+02 -0.81455325791E+03  0.81910115015E+03  0.47000000000E+01 0.  1.
         13    1    4    4    0    0  0.51005435545E+01 -0.21717732443E+02 -0.16602955524E+03  0.16752160654E+03  0.00000000000E+00 0. -1.
        -14    1    4    4    0    0  0.81949274208E+02  0.49532919420E+02 -0.36525662634E+03  0.37759978381E+03  0.00000000000E+00 0.  1.
</event>
<event>
12    1  0.8493057E-002  0.2637622E+03  0.7818608E-02  0.1104919E+00
         21   -1    0    0  501  502  0.00000000000E+00  0.00000000000E+00  0.21184063067E+03  0.21184063067E+03  0.00000000000E+00 0.  1.
         21   -1    0    0  502  503 -0.00000000000E+00 -0.00000000000E+00 -0.48021468886E+03  0.48021468886E+03  0.00000000000E+00 0. -1.
         -6    2    1    2    0  503 -0.10924026833E+03  0.16760638206E+03 -0.32880504356E+03  0.42145890545E+03  0.17172511984E+03 0.  0.
        -24    2    3    3    0    0 -0.74569056726E+02  0.18611041961E+03 -0.23274275686E+03  0.31756210451E+03  0.80491408500E+02 0.  0.
          6    2    1    2  501    0  0.10924026833E+03 -0.16760638206E+03  0.60430985371E+02  0.27059641409E+03  0.17188711351E+03 0.  0.
         24    2    5    5    0    0 -0.22595939107E+01 -0.70957201626E+02 -0.85086719934E+01  0.10766069144E+03  0.80488488335E+02 0.  0.
          5    1    5    5  501    0  0.11149986224E+03 -0.96649180435E+02  0.68939657365E+02  0.16293572265E+03  0.47000000000E+01 0. -1.
        -11    1    6    6    0    0 -0.14661640924E+02 -0.12589249262E+02  0.30689138024E+02  0.36266735506E+02  0.00000000000E+00 0.  1.
         12    1    6    6    0    0  0.12402047014E+02 -0.58367952364E+02 -0.39197810018E+02  0.71393955931E+02  0.00000000000E+00 0. -1.
         -5    1    3    3    0  503 -0.34671211599E+02 -0.18504037550E+02 -0.96062286702E+02  0.10389680094E+03  0.47000000000E+01 0.  1.
         11    1    4    4    0    0 -0.66799617134E+02  0.15895648106E+03 -0.23232314913E+03  0.28931539423E+03  0.00000000000E+00 0. -1.
        -12    1    4    4    0    0 -0.77694395922E+01  0.27153938556E+02 -0.41960772422E+00  0.28246710274E+02  0.00000000000E+00 0.  1.
</event>
<event>
12    1  0.8493057E-002  0.2027552E+03  0.7818608E-02  0.1147546E+00
         21   -1    0    0  501  502  0.00000000000E+00  0.00000000000E+00  0.94708757351E+02  0.94708757351E+02  0.00000000000E+00 0. -1.
         21   -1    0    0  502  503 -0.00000000000E+00 -0.00000000000E+00 -0.58133125851E+03  0.58133125851E+03  0.00000000000E+00 0. -1.
         -6    2    1    2    0  503  0.55847169515E+02  0.90418104978E+02 -0.41433919564E+03  0.46128800389E+03  0.17267111350E+03 0.  0.
        -24    2    3    3    0    0  0.38854253945E+02  0.11159500064E+03 -0.40894795179E+03  0.43320997690E+03  0.80432329274E+02 0.  0.
          6    2    1    2  501    0 -0.55847169515E+02 -0.90418104978E+02 -0.72283305514E+02  0.21475201197E+03  0.17204421041E+03 0.  0.
         24    2    5    5    0    0  0.13631332279E+02 -0.12784174853E+02 -0.73173625942E+02  0.11045833053E+03  0.80606543796E+02 0.  0.
          5    1    5    5  501    0 -0.69478501793E+02 -0.77633930125E+02  0.89032042771E+00  0.10429368144E+03  0.47000000000E+01 0. -1.
        -11    1    6    6    0    0  0.25731775378E+02 -0.35047630222E+02 -0.73176374732E+02  0.85118990051E+02  0.00000000000E+00 0.  1.
         12    1    6    6    0    0 -0.12100443100E+02  0.22263455369E+02  0.27487903719E-02  0.25339340475E+02  0.00000000000E+00 0. -1.
         -5    1    3    3    0  503  0.16992915570E+02 -0.21176895663E+02 -0.53912438504E+01  0.28078026992E+02  0.47000000000E+01 0.  1.
         13    1    4    4    0    0  0.13921425682E+02  0.44831286227E+00 -0.14582889525E+03  0.14649257239E+03  0.00000000000E+00 0. -1.
        -14    1    4    4    0    0  0.24932828262E+02  0.11114668778E+03 -0.26311905654E+03  0.28671740450E+03  0.00000000000E+00 0.  1.
</event>
<event>
12    1  0.8493057E-002  0.1852756E+03  0.7818608E-02  0.1164240E+00
         21   -1    0    0  503  502  0.00000000000E+00  0.00000000000E+00  0.22646985085E+03  0.22646985085E+03  0.00000000000E+00 0. -1.
         21   -1    0    0  501  503 -0.00000000000E+00 -0.00000000000E+00 -0.19368706764E+03  0.19368706764E+03  0.00000000000E+00 0. -1.
          6    2    1    2  501    0 -0.51758320556E+02  0.82611050675E+01 -0.87359346294E+02  0.19933760887E+03  0.17133784555E+03 0.  0.
         24    2    3    3    0    0 -0.80366492728E+02  0.48625012122E+02 -0.44608510466E+02  0.13378307834E+03  0.84171419663E+02 0.  0.
         -6    2    1    2    0  502  0.51758320556E+02 -0.82611050675E+01  0.12014212951E+03  0.22081930962E+03  0.17770724975E+03 0.  0.
        -24    2    5    5    0    0  0.80340110885E+02  0.92656493585E+01  0.32547360922E+02  0.12690956921E+03  0.92229726121E+02 0.  0.
          5    1    3    3  501    0  0.28608172172E+02 -0.40363907055E+02 -0.42750835829E+02  0.65554530521E+02  0.47000000000E+01 0. -1.
        -11    1    4    4    0    0 -0.40240039830E+02  0.34465391906E+02  0.19822645073E+02  0.56569084335E+02  0.00000000000E+00 0.  1.
         12    1    4    4    0    0 -0.40126452898E+02  0.14159620216E+02 -0.64431155539E+02  0.77213994010E+02  0.00000000000E+00 0. -1.
         -5    1    5    5    0  502 -0.28581790329E+02 -0.17526754426E+02  0.87594768585E+02  0.93909740403E+02  0.47000000000E+01 0.  1.
         13    1    6    6    0    0  0.38949094953E+02  0.50785827734E+02  0.18523762836E+02  0.66628538074E+02  0.00000000000E+00 0. -1.
        -14    1    6    6    0    0  0.41391015932E+02 -0.41520178375E+02  0.14023598086E+02  0.60281031141E+02  0.00000000000E+00 0.  1.
</event>
<event>
12    1  0.8493057E-002  0.2568698E+03  0.7818608E-02  0.1109082E+00
         21   -1    0    0  501  502  0.00000000000E+00  0.00000000000E+00  0.12996937239E+03  0.12996937239E+03  0.00000000000E+00 0. -1.
         21   -1    0    0  502  503 -0.00000000000E+00 -0.00000000000E+00 -0.11765442320E+04  0.11765442320E+04  0.00000000000E+00 0.  1.
         -6    2    1    2    0  503  0.18564704226E+03 -0.43942900411E+02 -0.10161720547E+04  0.10481353546E+04  0.17200661026E+03 0.  0.
        -24    2    3    3    0    0  0.18083845617E+03 -0.14652198097E+02 -0.61957946576E+03  0.65040574876E+03  0.78941050735E+02 0.  0.
          6    2    1    2  501    0 -0.18564704226E+03  0.43942900411E+02 -0.30402804861E+02  0.25837824976E+03  0.17157851443E+03 0.  0.
         24    2    5    5    0    0 -0.16965529460E+03  0.27581348166E+02 -0.78531130349E+02  0.20488187513E+03  0.79156772106E+02 0.  0.
          5    1    5    5  501    0 -0.15991747660E+02  0.16361552245E+02  0.48128325489E+02  0.53496374638E+02  0.47000000000E+01 0. -1.
        -11    1    6    6    0    0 -0.62300906254E+00  0.16359713122E+02  0.33750318396E+01  0.16715836612E+02  0.00000000000E+00 0.  1.
         12    1    6    6    0    0 -0.16903228553E+03  0.11221635044E+02 -0.81906162189E+02  0.18816603851E+03  0.00000000000E+00 0. -1.
         -5    1    3    3    0  503  0.48085860854E+01 -0.29290702314E+02 -0.39659258898E+03  0.39772960586E+03  0.47000000000E+01 0.  1.
         13    1    4    4    0    0  0.45992228306E+02 -0.12509480251E+02 -0.29652243938E+03  0.30032870195E+03  0.00000000000E+00 0. -1.
        -14    1    4    4    0    0  0.13484622786E+03 -0.21427178465E+01 -0.32305702638E+03  0.35007704681E+03  0.00000000000E+00 0.  1.
</event>
<event>
12    1  0.8493057E-002  0.2050110E+03  0.7818608E-02  0.1145835E+00
         21   -1    0    0  503  502  0.00000000000E+00  0.00000000000E+00  0.67776519075E+02  0.67776519075E+02  0.00000000000E+00 0. -1.
         21   -1    0    0  501  503 -0.00000000000E+00 -0.00000000000E+00 -0.70020081168E+03  0.70020081168E+03  0.00000000000E+00 0. -1.
          6    2    1    2  501    0 -0.91285134109E+02 -0.59832824897E+02 -0.18417625245E+03  0.27559099660E+03  0.17354124235E+03 0.  0.
         24    2    3    3    0    0 -0.93257478903E+02 -0.98820327409E+02 -0.11398198925E+03  0.19513454824E+03  0.81382943935E+02 0.  0.
         -6    2    1    2    0  502  0.91285134109E+02  0.59832824897E+02 -0.44824804016E+03  0.49238633415E+03  0.17206119236E+03 0.  0.
        -24    2    5    5    0    0  0.78019975934E+02  0.92126967655E+02 -0.23945872863E+03  0.28064606239E+03  0.82748019954E+02 0.  0.
          5    1    3    3  501    0  0.19723447936E+01  0.38987502513E+02 -0.70194263198E+02  0.80456448356E+02  0.47000000000E+01 0. -1.
        -13    1    4    4    0    0  0.14717602585E+02 -0.13306239779E+02 -0.21354354276E+02  0.29149138743E+02  0.00000000000E+00 0.  1.
         14    1    4    4    0    0 -0.10797508149E+03 -0.85514087631E+02 -0.92627634974E+02  0.16598540950E+03  0.00000000000E+00 0. -1.
         -5    1    5    5    0  502  0.13265158175E+02 -0.32294142759E+02 -0.20878931153E+03  0.21174027176E+03  0.47000000000E+01 0.  1.
         11    1    6    6    0    0  0.35353465530E+02  0.16237045692E+02 -0.15329910900E+03  0.15815854703E+03  0.00000000000E+00 0. -1.
        -12    1    6    6    0    0  0.42666510404E+02  0.75889921964E+02 -0.86159619626E+02  0.12248751536E+03  0.00000000000E+00 0.  1.
</event>
<event>
12    1  0.8493057E-002  0.1941557E+03  0.7818608E-02  0.1155179E+00
         21   -1    0    0  501  502  0.00000000000E+00  0.00000000000E+00  0.95613083962E+02  0.95613083962E+02  0.00000000000E+00 0. -1.
         21   -1    0    0  502  503 -0.00000000000E+00 -0.00000000000E+00 -0.50861406985E+03  0.50861406985E+03  0.00000000000E+00 0. -1.
         -6    2    1    2    0  503 -0.35409845673E+02 -0.82589682735E+02 -0.35287880513E+03  0.40276531610E+03  0.17210908133E+03 0.  0.
        -24    2    3    3    0    0 -0.69468098993E+02 -0.13740672862E+02 -0.25882087961E+03  0.28123698964E+03  0.84210294790E+02 0.  0.
          6    2    1    2  501    0  0.35409845673E+02  0.82589682735E+02 -0.60122180764E+02  0.20146183772E+03  0.16999200738E+03 0.  0.
         24    2    5    5    0    0  0.98133417277E+01 -0.19774590174E+02 -0.44239753335E+02  0.94653753364E+02  0.80714565962E+02 0.  0.
          5    1    5    5  501    0  0.25596503946E+02  0.10236427291E+03 -0.15882427429E+02  0.10680808435E+03  0.47000000000E+01 0. -1.
        -13    1    6    6    0    0 -0.34225904423E+02  0.24963332811E+01 -0.17360629379E+02  0.38458232745E+02  0.00000000000E+00 0.  1.
         14    1    6    6    0    0  0.44039246151E+02 -0.22270923455E+02 -0.26879123956E+02  0.56195520619E+02  0.00000000000E+00 0. -1.
         -5    1    3    3    0  503  0.34058253319E+02 -0.68849009873E+02 -0.94057925514E+02  0.12152832646E+03  0.47000000000E+01 0.  1.
         11    1    4    4    0    0 -0.13895813814E+02 -0.33396297303E+02 -0.17540448189E+03  0.17909533378E+03  0.00000000000E+00 0. -1.
        -12    1    4    4    0    0 -0.55572285178E+02  0.19655624441E+02 -0.83416397724E+02  0.10214165586E+03  0.00000000000E+00 0.  1.
</event>
<event>
12    1  0.8493057E-002  0.1893357E+03  0.7818608E-02  0.1159094E+00
         21   -1    0    0  501  502  0.00000000000E+00  0.00000000000E+00  0.35868954622E+03  0.35868954622E+03  0.00000000000E+00 0.  1.
         21   -1    0    0  502  503 -0.00000000000E+00 -0.00000000000E+00 -0.21524539406E+03  0.21524539406E+03  0.00000000000E+00 0.  1.
         -6    2    1    2    0  503  0.40546979068E+02  0.66423232652E+02 -0.13836729205E+03  0.23450695358E+03  0.17260330362E+03 0.  0.
        -24    2    3    3    0    0  0.29629779176E+01  0.64710804777E+02 -0.16050532770E+03  0.19060168995E+03  0.79817144143E+02 0.  0.
          6    2    1    2  501    0 -0.40546979068E+02 -0.66423232652E+02  0.28181144421E+03  0.33942798670E+03  0.17244583126E+03 0.  0.
         24    2    5    5    0    0 -0.47602994973E+02 -0.10899090426E+03  0.23919980179E+03  0.27860335274E+03  0.79108916298E+02 0.  0.
          5    1    5    5  501    0  0.70560159052E+01  0.42567671611E+02  0.42611642410E+02  0.60824633955E+02  0.47000000000E+01 0. -1.
        -11    1    6    6    0    0 -0.33263911202E+02 -0.94219285827E+00  0.66964251539E+02  0.74776911544E+02  0.00000000000E+00 0.  1.
         12    1    6    6    0    0 -0.14339083771E+02 -0.10804871140E+03  0.17223555026E+03  0.20382644120E+03  0.00000000000E+00 0. -1.
         -5    1    3    3    0  503  0.37584001150E+02  0.17124278752E+01  0.22138035655E+02  0.43905263629E+02  0.47000000000E+01 0.  1.
         11    1    4    4    0    0 -0.16387989958E+02 -0.78320264776E+01 -0.73357650838E+02  0.75572824415E+02  0.00000000000E+00 0. -1.
        -12    1    4    4    0    0  0.19350967875E+02  0.72542831254E+02 -0.87147676863E+02  0.11502886554E+03  0.00000000000E+00 0.  1.
</event>
<event>
12    1  0.8493057E-002  0.2192576E+03  0.7818608E-02  0.1134472E+00
         21   -1    0    0  501  502  0.00000000000E+00  0.00000000000E+00  0.41108948325E+02  0.41108948325E+02  0.00000000000E+00 0. -1.
         21   -1    0    0  502  503 -0.00000000000E+00 -0.00000000000E+00 -0.18397457665E+04  0.18397457665E+04  0.00000000000E+00 0.  1.
         -6    2    1    2    0  503  0.76272695778E+02 -0.11289930333E+03 -0.14671518982E+04  0.14834177536E+04  0.17155104903E+03 0.  0.
        -24    2    3    3    0    0  0.99858951331E+02 -0.13240077702E+03 -0.11601268162E+04  0.11748353336E+04  0.82716718691E+02 0.  0.
          6    2    1    2  501    0 -0.76272695778E+02  0.11289930333E+03 -0.33148491995E+03  0.39743696122E+03  0.17178506681E+03 0.  0.
         24    2    5    5    0    0 -0.26769673523E+02  0.13075155334E+03 -0.29272379458E+03  0.33191012029E+03  0.81636535431E+02 0.  0.
          5    1    5    5  501    0 -0.49503022255E+02 -0.17852250007E+02 -0.38761125370E+02  0.65526840933E+02  0.47000000000E+01 0. -1.
        -11    1    6    6    0    0 -0.21987157312E+02 -0.21084287926E+01 -0.59321147552E+02  0.63299913946E+02  0.00000000000E+00 0.  1.
         12    1    6    6    0    0 -0.47825162109E+01  0.13285998213E+03 -0.23340264703E+03  0.26861020634E+03  0.00000000000E+00 0. -1.
         -5    1    3    3    0  503 -0.23586255553E+02  0.19501473685E+02 -0.30702508201E+03  0.30858241996E+03  0.47000000000E+01 0.  1.
         13    1    4    4    0    0  0.88682831738E+02 -0.87429803181E+02 -0.59957576902E+03  0.61237220539E+03  0.00000000000E+00 0. -1.
        -14    1    4    4    0    0  0.11176119593E+02 -0.44970973834E+02 -0.56055104719E+03  0.56246312825E+03  0.00000000000E+00 0.  1.
</event>
<event>
12    1  0.8493057E-002  0.1818997E+03  0.7818608E-02  0.1166805E+00
         21   -1    0    0  503  502  0.00000000000E+00  0.00000000000E+00  0.59622349529E+03  0.59622349529E+03  0.00000000000E+00 0.  1.
         21   -1    0    0  501  503 -0.00000000000E+00 -0.00000000000E+00 -0.57103142051E+02  0.57103142051E+02  0.00000000000E+00 0.  1.
          6    2    1    2  501    0  0.43165956673E+02 -0.18041722048E+02  0.33748077469E+03  0.38176445758E+03  0.17222666529E+03 0.  0.
         24    2    3    3    0    0 -0.97522995567E+01 -0.26735114924E+02  0.70475463432E+02  0.10938633224E+03  0.78668322845E+02 0.  0.
         -6    2    1    2    0  502 -0.43165956673E+02  0.18041722048E+02  0.20163957855E+03  0.27156217976E+03  0.17578024431E+03 0.  0.
        -24    2    5    5    0    0  0.17302289169E+02  0.52813015185E+01  0.26642311260E+02  0.85913666041E+02  0.79649757734E+02 0.  0.
          5    1    3    3  501    0  0.52918256230E+02  0.86933928759E+01  0.26700531125E+03  0.27237812533E+03  0.47000000000E+01 0. -1.
        -13    1    4    4    0    0 -0.18548073639E+02  0.11402929966E+02  0.66584827633E+02  0.70054244114E+02  0.00000000000E+00 0.  1.
         14    1    4    4    0    0  0.87957740827E+01 -0.38138044890E+02  0.38906357994E+01  0.39332088130E+02  0.00000000000E+00 0. -1.
         -5    1    5    5    0  502 -0.60468245842E+02  0.12760420530E+02  0.17499726729E+03  0.18564851372E+03  0.47000000000E+01 0.  1.
         13    1    6    6    0    0 -0.10748025140E+02 -0.14892622530E+02  0.43684162302E+02  0.47387933973E+02  0.00000000000E+00 0. -1.
        -14    1    6    6    0    0  0.28050314310E+02  0.20173924049E+02 -0.17041851042E+02  0.38525732067E+02  0.00000000000E+00 0.  1.
</event>
<event>
12    1  0.8493057E-002  0.2044336E+03  0.7818608E-02  0.1146344E+00
         21   -1    0    0  501  502  0.00000000000E+00  0.00000000000E+00  0.29770015496E+03  0.29770015496E+03  0.00000000000E+00 0. -1.
         21   -1    0    0  502  503 -0.00000000000E+00 -0.00000000000E+00 -0.14522401381E+03  0.14522401381E+03  0.00000000000E+00 0. -1.
         -6    2    1    2    0  503  0.98767106806E+02  0.45030478791E+02  0.31682198009E+02  0.20547042794E+03  0.17155654952E+03 0.  0.
        -24    2    3    3    0    0  0.55951451156E+02 -0.59733845230E+01  0.67136043929E+02  0.12988180689E+03  0.95894677425E+02 0.  0.
          6    2    1    2  501    0 -0.98767106806E+02 -0.45030478791E+02  0.12079394314E+03  0.23745374083E+03  0.17323514922E+03 0.  0.
         24    2    5    5    0    0 -0.10470396199E+03  0.20771995409E+02  0.54586401771E+02  0.14380150970E+03  0.79402792678E+02 0.  0.
          5    1    5    5  501    0  0.59368551851E+01 -0.65802474201E+02  0.66207541366E+02  0.93652231122E+02  0.47000000000E+01 0. -1.
        -11    1    6    6    0    0 -0.87472265170E+02  0.31605502049E+02  0.71518548155E+02  0.11732522177E+03  0.00000000000E+00 0.  1.
         12    1    6    6    0    0 -0.17231696821E+02 -0.10833506639E+02 -0.16932146385E+02  0.26476287932E+02  0.00000000000E+00 0. -1.
         -5    1    3    3    0  503  0.42815655650E+02  0.51003863314E+02 -0.35453845921E+02  0.75588621050E+02  0.47000000000E+01 0.  1.
         11    1    4    4    0    0  0.30784240320E+02 -0.48811172613E+01 -0.21415458951E+02  0.37816883001E+02  0.00000000000E+00 0. -1.
        -12    1    4    4    0    0  0.25167210837E+02 -0.10922672617E+01  0.88551502881E+02  0.92064923893E+02  0.00000000000E+00 0.  1.
</event>
<event>
12    1  0.8493057E-002  0.1891336E+03  0.7818608E-02  0.1159387E+00
         21   -1    0    0  501  502  0.00000000000E+00  0.00000000000E+00  0.65267523505E+03  0.65267523505E+03  0.00000000000E+00 0. -1.
         21   -1    0    0  502  503 -0.00000000000E+00 -0.00000000000E+00 -0.70130769879E+02  0.70130769879E+02  0.00000000000E+00 0. -1.
         -6    2    1    2    0  503  0.75484312419E+02  0.12064750465E+02  0.12172193153E+03  0.22491722967E+03  0.17299737559E+03 0.  0.
        -24    2    3    3    0    0  0.84212960790E+02  0.66133753964E+02  0.78195512468E+02  0.15480100046E+03  0.79895653175E+02 0.  0.
          6    2    1    2  501    0 -0.75484312419E+02 -0.12064750465E+02  0.46082253364E+03  0.49788877526E+03  0.17231478576E+03 0.  0.
         24    2    5    5    0    0 -0.15323790743E+02 -0.56631125620E+02  0.18118175117E+03  0.20836069823E+03  0.84530767540E+02 0.  0.
          5    1    5    5  501    0 -0.60160521676E+02  0.44566375156E+02  0.27964078248E+03  0.28952807703E+03  0.47000000000E+01 0. -1.
        -13    1    6    6    0    0 -0.17805582552E+02  0.17649230054E+02  0.25042572782E+02  0.35435357244E+02  0.00000000000E+00 0.  1.
         14    1    6    6    0    0  0.24817918095E+01 -0.74280355674E+02  0.15613917839E+03  0.17292534099E+03  0.00000000000E+00 0. -1.
         -5    1    3    3    0  503 -0.87286483705E+01 -0.54069003499E+02  0.43526419062E+02  0.70116229206E+02  0.47000000000E+01 0.  1.
         11    1    4    4    0    0  0.95388577757E+02  0.48420238697E+02  0.80288289794E+02  0.13375241964E+03  0.00000000000E+00 0. -1.
        -12    1    4    4    0    0 -0.11175616967E+02  0.17713515267E+02 -0.20927773262E+01  0.21048580823E+02  0.00000000000E+00 0.  1.
</event>
<event>
12    1  0.8493057E-002  0.1882104E+03  0.7818608E-02  0.1160218E+00
         21   -1    0    0  503  502  0.00000000000E+00  0.00000000000E+00  0.14639549693E+04  0.14639549693E+04  0.00000000000E+00 0.  1.
         21   -1    0    0  501  503 -0.00000000000E+00 -0.00000000000E+00 -0.45397682691E+02  0.45397682691E+02  0.00000000000E+00 0.  1.
          6    2    1    2  501    0 -0.74946385051E+02 -0.84428317053E+01  0.19206377618E+03  0.26850234488E+03  0.17180446167E+03 0.  0.
         24    2    3    3    0    0 -0.66198323718E+02 -0.32329073210E+02  0.21023510751E+03  0.23688955645E+03  0.80563481098E+02 0.  0.
         -6    2    1    2    0  502  0.74946385051E+02  0.84428317053E+01  0.12264935105E+04  0.12408503072E+04  0.17243813813E+03 0.  0.
        -24    2    5    5    0    0 -0.16487852422E+02 -0.14400299081E+02  0.78816571027E+03  0.79248061723E+03  0.79631174502E+02 0.  0.
          5    1    3    3  501    0 -0.87480613324E+01  0.23886241505E+02 -0.18171331332E+02  0.31612788435E+02  0.47000000000E+01 0. -1.
        -13    1    4    4    0    0 -0.44368712641E+02 -0.49969202130E+02  0.82806934804E+02  0.10640720029E+03  0.00000000000E+00 0.  1.
         14    1    4    4    0    0 -0.21829611077E+02  0.17640128920E+02  0.12742817271E+03  0.13048235615E+03  0.00000000000E+00 0. -1.
         -5    1    5    5    0  502  0.91434237473E+02  0.22843130787E+02  0.43832780021E+03  0.44836968992E+03  0.47000000000E+01 0.  1.
         13    1    6    6    0    0 -0.37364695982E+01  0.23674461115E+01  0.40890809606E+00  0.44422080073E+01  0.00000000000E+00 0. -1.
        -14    1    6    6    0    0 -0.12751382824E+02 -0.16767745193E+02  0.78775680217E+03  0.78803840922E+03  0.00000000000E+00 0.  1.
</event>
<event>
12    1  0.8493057E-002  0.1822287E+03  0.7818608E-02  0.1166032E+00
         21   -1    0    0  501  502  0.00000000000E+00  0.00000000000E+00  0.64400033819E+03  0.64400033819E+03  0.00000000000E+00 0.  1.
         21   -1    0    0  502  503 -0.00000000000E+00 -0.00000000000E+00 -0.99474415755E+02  0.99474415755E+02  0.00000000000E+00 0.  1.
         -6    2    1    2    0  503  0.55241098655E+02  0.76588190868E+01  0.12515468531E+02  0.18112039287E+03  0.17186542198E+03 0.  0.
        -24    2    3    3    0    0  0.77764727577E+02 -0.25819115314E+02  0.53117079690E+02  0.12368637177E+03  0.75913864578E+02 0.  0.
          6    2    1    2  501    0 -0.55241098655E+02 -0.76588190868E+01  0.53201045391E+03  0.56235436108E+03  0.17348506525E+03 0.  0.
         24    2    5    5    0    0 -0.42356560368E+02 -0.57877044866E+02  0.46533734342E+03  0.47776550135E+03  0.81099941888E+02 0.  0.
          5    1    5    5  501    0 -0.12884538287E+02  0.50218225780E+02  0.66673110487E+02  0.84588859724E+02  0.47000000000E+01 0. -1.
        -11    1    6    6    0    0 -0.50959230903E+02 -0.11083285326E+02  0.14883623924E+03  0.15770830206E+03  0.00000000000E+00 0.  1.
         12    1    6    6    0    0  0.86026705348E+01 -0.46793759541E+02  0.31650110418E+03  0.32005719929E+03  0.00000000000E+00 0. -1.
         -5    1    3    3    0  503 -0.22523628922E+02  0.33477934401E+02 -0.40601611159E+02  0.57434021105E+02  0.47000000000E+01 0.  1.
         13    1    4    4    0    0 -0.43717816608E+01  0.18045786313E+02  0.80441788830E+01  0.20235406901E+02  0.00000000000E+00 0. -1.
        -14    1    4    4    0    0  0.82136509238E+02 -0.43864901627E+02  0.45072900807E+02  0.10345096487E+03  0.00000000000E+00 0.  1.
</event>
<event>
12    1  0.8493057E-002  0.1799546E+03  0.7818608E-02  0.1170552E+00
         21   -1    0    0  503  502  0.00000000000E+00  0.00000000000E+00  0.62948520373E+03  0.62948520373E+03  0.00000000000E+00 0. -1.
         21   -1    0    0  501  503 -0.00000000000E+00 -0.00000000000E+00 -0.15000683338E+03  0.15000683338E+03  0.00000000000E+00 0. -1.
          6    2    1    2  501    0  0.22609648703E+02 -0.49946574936E+02 -0.78580803973E+02  0.19636347419E+03  0.17139957608E+03 0.  0.
         24    2    3    3    0    0  0.51049884967E+02  0.21422224482E+02 -0.67531553469E+02  0.11860404707E+03  0.80258375332E+02 0.  0.
         -6    2    1    2    0  502 -0.22609648703E+02  0.49946574936E+02  0.55805917432E+03  0.58312856292E+03  0.16000944437E+03 0.  0.
        -24    2    5    5    0    0 -0.88359366569E+01 -0.11098809086E+02  0.45776665590E+03  0.46481992712E+03  0.79410301935E+02 0.  0.
          5    1    3    3  501    0 -0.28440236265E+02 -0.71368799417E+02 -0.11049250505E+02  0.77759427118E+02  0.47000000000E+01 0. -1.
        -11    1    4    4    0    0  0.23499849322E+02 -0.26559471264E+02 -0.61955570350E+01  0.36000463316E+02  0.00000000000E+00 0.  1.
         12    1    4    4    0    0  0.27550035645E+02  0.47981695746E+02 -0.61335996434E+02  0.82603583755E+02  0.00000000000E+00 0. -1.
         -5    1    5    5    0  502 -0.13773712046E+02  0.61045384022E+02  0.10029251842E+03  0.11830863580E+03  0.47000000000E+01 0.  1.
         11    1    6    6    0    0 -0.14641724869E+02 -0.43001031243E+02  0.32455430544E+03  0.32771781455E+03  0.00000000000E+00 0. -1.
        -12    1    6    6    0    0  0.58057882119E+01  0.31902222157E+02  0.13321235046E+03  0.13710211257E+03  0.00000000000E+00 0.  1.
</event>
<event>
12    1  0.8493057E-002  0.3627502E+03  0.7818608E-02  0.1057508E+00
         21   -1    0    0  501  502  0.00000000000E+00  0.00000000000E+00  0.59380718608E+02  0.59380718608E+02  0.00000000000E+00 0. -1.
         21   -1    0    0  502  503 -0.00000000000E+00 -0.00000000000E+00 -0.27440922152E+04  0.27440922152E+04  0.00000000000E+00 0.  1.
         -6    2    1    2    0  503  0.17196017827E+03 -0.26877080594E+03 -0.19576922367E+04  0.19910164800E+04  0.17256790272E+03 0.  0.
        -24    2    3    3    0    0  0.48457615377E+02 -0.14414044319E+03 -0.68520553226E+03  0.70648150061E+03  0.80528761396E+02 0.  0.
          6    2    1    2  501    0 -0.17196017827E+03  0.26877080594E+03 -0.72701925994E+03  0.81245645383E+03  0.17239616011E+03 0.  0.
         24    2    5    5    0    0 -0.18244061717E+02  0.10646938880E+03 -0.20741499646E+03  0.24678775652E+03  0.78832984681E+02 0.  0.
          5    1    5    5  501    0 -0.15371611655E+03  0.16230141714E+03 -0.51960426348E+03  0.56566869732E+03  0.47000000000E+01 0. -1.
        -11    1    6    6    0    0 -0.14009827357E+02  0.11596662794E+03 -0.15915654229E+03  0.19742172882E+03  0.00000000000E+00 0.  1.
         12    1    6    6    0    0 -0.42342343600E+01 -0.94972391401E+01 -0.48258454170E+02  0.49366027699E+02  0.00000000000E+00 0. -1.
         -5    1    3    3    0  503  0.12350256289E+03 -0.12463036274E+03 -0.12724867044E+04  0.12845349794E+04  0.47000000000E+01 0.  1.
         11    1    4    4    0    0  0.53795296301E+02 -0.39175477500E+02 -0.24184248866E+03  0.25083149974E+03  0.00000000000E+00 0. -1.
        -12    1    4    4    0    0 -0.53376809235E+01 -0.10496496569E+03 -0.44336304361E+03  0.45565000087E+03  0.00000000000E+00 0.  1.
</event>
<event>
12    1  0.8493057E-002  0.1773088E+03  0.7818608E-02  0.1171746E+00
         21   -1    0    0  501  502  0.00000000000E+00  0.00000000000E+00  0.11984652409E+04  0.11984652409E+04  0.00000000000E+00 0. -1.
         21   -1    0    0  502  503 -0.00000000000E+00 -0.00000000000E+00 -0.28260462496E+02  0.28260462496E+02  0.00000000000E+00 0. -1.
         -6    2    1    2    0  503  0.32353473111E+02  0.29205597765E+02  0.38425511544E+03  0.42102396980E+03  0.16646163295E+03 0.  0.
        -24    2    3    3    0    0 -0.17028966054E+02 -0.35139117198E+02  0.21983212704E+03  0.23762310624E+03  0.81325477549E+02 0.  0.
          6    2    1    2  501    0 -0.32353473111E+02 -0.29205597765E+02  0.78594966299E+03  0.80570173361E+03  0.17186825372E+03 0.  0.
         24    2    5    5    0    0 -0.15669534553E+01 -0.36800040048E+00  0.17102553955E+03  0.18931453031E+03  0.81164434576E+02 0.  0.
          5    1    5    5  501    0 -0.30786519656E+02 -0.28837597364E+02  0.61492412344E+03  0.61638720330E+03  0.47000000000E+01 0. -1.
        -13    1    6    6    0    0  0.16410079166E+02  0.17506458259E+02  0.15979644050E+03  0.16158796110E+03  0.00000000000E+00 0.  1.
         14    1    6    6    0    0 -0.17977032621E+02 -0.17874458660E+02  0.11229099055E+02  0.27726569204E+02  0.00000000000E+00 0. -1.
         -5    1    3    3    0  503  0.49382439165E+02  0.64344714963E+02  0.16442298839E+03  0.18340086356E+03  0.47000000000E+01 0.  1.
         13    1    4    4    0    0  0.18211168797E+02 -0.43015305664E+02  0.16855280962E+03  0.17490572553E+03  0.00000000000E+00 0. -1.
        -14    1    4    4    0    0 -0.35240134850E+02  0.78761884653E+01  0.51279317421E+02  0.62717380718E+02  0.00000000000E+00 0.  1.
</event>
<event>
12    1  0.8493057E-002  0.2112355E+03  0.7818608E-02  0.1140605E+00
         21   -1    0    0  503  502  0.00000000000E+00  0.00000000000E+00  0.60883011345E+03  0.60883011345E+03  0.00000000000E+00 0. -1.
         21   -1    0    0  501  503 -0.00000000000E+00 -0.00000000000E+00 -0.23562791728E+03  0.23562791728E+03  0.00000000000E+00 0. -1.
          6    2    1    2  501    0 -0.10915088535E+03  0.57174028471E+02 -0.16390159874E+03  0.26730906609E+03  0.17148649346E+03 0.  0.
         24    2    3    3    0    0 -0.14343699281E+03  0.61789066543E+02 -0.14437360493E+03  0.22730571269E+03  0.80200309030E+02 0.  0.
         -6    2    1    2    0  502  0.10915088535E+03 -0.57174028471E+02  0.53710379490E+03  0.57714896464E+03  0.17157405277E+03 0.  0.
        -24    2    5    5    0    0  0.14352568045E+03 -0.37595331994E+02  0.46632482653E+03  0.49592886702E+03  0.80458482239E+02 0.  0.
          5    1    3    3  501    0  0.34286107460E+02 -0.46150380719E+01 -0.19527993806E+02  0.40003353400E+02  0.47000000000E+01 0. -1.
        -11    1    4    4    0    0  0.61747874982E+01  0.43561678817E+01  0.43093469347E+01  0.86991189362E+01  0.00000000000E+00 0.  1.
         12    1    4    4    0    0 -0.14961178031E+03  0.57432898661E+02 -0.14868295187E+03  0.21860659375E+03  0.00000000000E+00 0. -1.
         -5    1    5    5    0  502 -0.34374795105E+02 -0.19578696477E+02  0.70778968375E+02  0.81220097626E+02  0.47000000000E+01 0.  1.
         11    1    6    6    0    0  0.65831281564E+02  0.17665909293E+02  0.25750013264E+03  0.26636846715E+03  0.00000000000E+00 0. -1.
        -12    1    6    6    0    0  0.77694398889E+02 -0.55261241287E+02  0.20882469389E+03  0.22956039987E+03  0.00000000000E+00 0.  1.
</event>
<event>
12    1  0.8493057E-002  0.1736556E+03  0.7818608E-02  0.1174305E+00
         21   -1    0    0  503  502  0.00000000000E+00  0.00000000000E+00  0.62108521984E+03  0.62108521984E+03  0.00000000000E+00 0.  1.
         21   -1    0    0  501  503 -0.00000000000E+00 -0.00000000000E+00 -0.10389674094E+03  0.10389674094E+03  0.00000000000E+00 0.  1.
          6    2    1    2  501    0  0.16090713184E+02  0.44926969618E+00 -0.68320653445E+01  0.17293686336E+03  0.17205048299E+03 0.  0.
         24    2    3    3    0    0  0.38710959821E+02 -0.27778458640E+02 -0.59455071657E+02  0.10890756539E+03  0.77818834985E+02 0.  0.
         -6    2    1    2    0  502 -0.16090713184E+02 -0.44926969618E+00  0.52402054424E+03  0.55204509742E+03  0.17290791163E+03 0.  0.
        -24    2    5    5    0    0  0.38723766211E+02  0.15993299494E+02  0.14876118171E+03  0.17241809048E+03  0.76438164828E+02 0.  0.
          5    1    3    3  501    0 -0.22620246636E+02  0.28227728336E+02  0.52623006313E+02  0.64029297968E+02  0.47000000000E+01 0. -1.
        -13    1    4    4    0    0  0.23092926844E+02 -0.51614455031E+01 -0.74084159725E+02  0.77771373345E+02  0.00000000000E+00 0.  1.
         14    1    4    4    0    0  0.15618032976E+02 -0.22617013137E+02  0.14629088067E+02  0.31136192043E+02  0.00000000000E+00 0. -1.
         -5    1    5    5    0  502 -0.54814479396E+02 -0.16442569190E+02  0.37525936253E+03  0.37962700694E+03  0.47000000000E+01 0.  1.
         11    1    6    6    0    0  0.13127960580E+02  0.42425991765E+02  0.49219810244E+02  0.66294025724E+02  0.00000000000E+00 0. -1.
        -12    1    6    6    0    0  0.25595805632E+02 -0.26432692271E+02  0.99541371469E+02  0.10612406476E+03  0.00000000000E+00 0.  1.
</event>
<event>
12    1  0.8493057E-002  0.2111957E+03  0.7818608E-02  0.1140755E+00
         21   -1    0    0  503  502  0.00000000000E+00  0.00000000000E+00  0.31581749273E+03  0.31581749273E+03  0.00000000000E+00 0.  1.
         21   -1    0    0  501  503 -0.00000000000E+00 -0.00000000000E+00 -0.18480732708E+03  0.18480732708E+03  0.00000000000E+00 0. -1.
          6    2    1    2  501    0 -0.11746923951E+03  0.26767603623E+02 -0.56743284204E+02  0.21803860343E+03  0.17264271038E+03 0.  0.
         24    2    3    3    0    0 -0.13212316861E+03  0.58366648353E+02 -0.20772699184E+02  0.16774734919E+03  0.82731316965E+02 0.  0.
         -6    2    1    2    0  502  0.11746923951E+03 -0.26767603623E+02  0.18775344985E+03  0.28258621638E+03  0.17345917366E+03 0.  0.
        -24    2    5    5    0    0  0.17470701398E+02  0.34901930833E+02  0.60600167078E+02  0.10940167197E+03  0.82298088662E+02 0.  0.
          5    1    3    3  501    0  0.14653929099E+02 -0.31599044729E+02 -0.35970585020E+02  0.50291254235E+02  0.47000000000E+01 0. -1.
        -11    1    4    4    0    0  0.10907818578E+01  0.29414997111E+02  0.21341606980E+01  0.29512480444E+02  0.00000000000E+00 0.  1.
         12    1    4    4    0    0 -0.13321395046E+03  0.28951651242E+02 -0.22906859882E+02  0.13823486875E+03  0.00000000000E+00 0. -1.
         -5    1    5    5    0  502  0.99998538109E+02 -0.61669534456E+02  0.12715328277E+03  0.17318454441E+03  0.47000000000E+01 0.  1.
         11    1    6    6    0    0  0.50564399540E+02  0.20817094988E+02  0.31264083411E+02  0.62988513684E+02  0.00000000000E+00 0. -1.
        -12    1    6    6    0    0 -0.33093698142E+02  0.14084835845E+02  0.29336083667E+02  0.46413158290E+02  0.00000000000E+00 0.  1.
</event>
<event>
12    1  0.8493057E-002  0.1851217E+03  0.7818608E-02  0.1163007E+00
         21   -1    0    0  503  502  0.00000000000E+00  0.00000000000E+00  0.76393340133E+03  0.76393340133E+03  0.00000000000E+00 0. -1.
         21   -1    0    0  501  503 -0.00000000000E+00 -0.00000000000E+00 -0.62658828244E+02  0.62658828244E+02  0.00000000000E+00 0. -1.
          6    2    1    2  501    0 -0.27838351159E+02 -0.61562996974E+02  0.12969982933E+03  0.22578631379E+03  0.17202452550E+03 0.  0.
         24    2    3    3    0    0 -0.28385139627E+02 -0.88171091341E+02  0.14842940812E+03  0.19290506100E+03  0.81247866837E+02 0.  0.
         -6    2    1    2    0  502  0.27838351159E+02  0.61562996974E+02  0.57157474376E+03  0.60080591578E+03  0.17235162996E+03 0.  0.
        -24    2    5    5    0    0  0.83510874256E+02  0.24544041277E+02  0.36362030305E+03  0.38231799319E+03  0.79817586076E+02 0.  0.
          5    1    3    3  501    0  0.54678846835E+00  0.26608094366E+02 -0.18729578788E+02  0.32881252789E+02  0.47000000000E+01 0. -1.
        -13    1    4    4    0    0 -0.27139088792E+01  0.15820737876E+02  0.21163158572E+02  0.26562009131E+02  0.00000000000E+00 0.  1.
         14    1    4    4    0    0 -0.25671230748E+02 -0.10399182922E+03  0.12726624954E+03  0.16634305187E+03  0.00000000000E+00 0. -1.
         -5    1    5    5    0  502 -0.55672523097E+02  0.37018955698E+02  0.20795444071E+03  0.21848792259E+03  0.47000000000E+01 0.  1.
         11    1    6    6    0    0  0.33465227809E+02  0.13439618590E+02  0.29213189844E+03  0.29434943673E+03  0.00000000000E+00 0. -1.
        -12    1    6    6    0    0  0.50045646447E+02  0.11104422687E+02  0.71488404612E+02  0.87968556459E+02  0.00000000000E+00 0.  1.
</event>
<event>
12    1  0.8493057E-002  0.2314588E+03  0.7818608E-02  0.1125716E+00
         21   -1    0    0  503  502  0.00000000000E+00  0.00000000000E+00  0.24450441847E+03  0.24450441847E+03  0.00000000000E+00 0. -1.
         21   -1    0    0  501  503 -0.00000000000E+00 -0.00000000000E+00 -0.35513940098E+03  0.35513940098E+03  0.00000000000E+00 0. -1.
          6    2    1    2  501    0 -0.14837562428E+03 -0.43512324979E+02 -0.24128150986E+03  0.33435001126E+03  0.17223389539E+03 0.  0.
         24    2    3    3    0    0 -0.15735558597E+02 -0.29323291827E+01 -0.41307632099E+02  0.90933157137E+02  0.79412292742E+02 0.  0.
         -6    2    1    2    0  502  0.14837562428E+03  0.43512324979E+02  0.13064652736E+03  0.26529380818E+03  0.17147489975E+03 0.  0.
        -24    2    5    5    0    0  0.17731877529E+03  0.44948847691E+02  0.12620748450E+03  0.23560265312E+03  0.78217223377E+02 0.  0.
          5    1    3    3  501    0 -0.13264006569E+03 -0.40579995796E+02 -0.19997387777E+03  0.24341685413E+03  0.47000000000E+01 0. -1.
        -13    1    4    4    0    0 -0.31179715384E+02  0.24535477030E+02 -0.89366166901E+00  0.39685802445E+02  0.00000000000E+00 0.  1.
         14    1    4    4    0    0  0.15444156787E+02 -0.27467806213E+02 -0.40413970430E+02  0.51247354692E+02  0.00000000000E+00 0. -1.
         -5    1    5    5    0  502 -0.28943151006E+02 -0.14365227124E+01  0.44390428565E+01  0.29691155066E+02  0.47000000000E+01 0.  1.
         11    1    6    6    0    0  0.69001298455E+02 -0.16669509389E+02  0.25666239556E+02  0.75483823331E+02  0.00000000000E+00 0. -1.
        -12    1    6    6    0    0  0.10831747684E+03  0.61618357080E+02  0.10054124494E+03  0.16011882979E+03  0.00000000000E+00 0.  1.
</event>
<event>
12    1  0.8493057E-002  0.3206736E+03  0.7818608E-02  0.1075432E+00
         21   -1    0    0  503  502  0.00000000000E+00  0.00000000000E+00  0.10369837561E+03  0.10369837561E+03  0.00000000000E+00 0.  1.
         21   -1    0    0  501  503 -0.00000000000E+00 -0.00000000000E+00 -0.14722332793E+04  0.14722332793E+04  0.00000000000E+00 0. -1.
          6    2    1    2  501    0  0.39255463442E+02  0.26763818267E+03 -0.11350541050E+04  0.11792645262E+04  0.17072144972E+03 0.  0.
         24    2    3    3    0    0 -0.11681440619E+02  0.10694709830E+03 -0.69817517248E+03  0.71096816233E+03  0.80330682147E+02 0.  0.
         -6    2    1    2    0  502 -0.39255463442E+02 -0.26763818267E+03 -0.23348079866E+03  0.39666712862E+03  0.17222177374E+03 0.  0.
        -24    2    5    5    0    0 -0.27172174458E+02 -0.20026767689E+03 -0.89098076977E+02  0.23681328524E+03  0.85420110464E+02 0.  0.
          5    1    3    3  501    0  0.50936904061E+02  0.16069108437E+03 -0.43687893250E+03  0.46829636391E+03  0.47000000000E+01 0. -1.
        -13    1    4    4    0    0  0.82527029630E+01  0.10812084034E+03 -0.64720507038E+03  0.65622604821E+03  0.00000000000E+00 0.  1.
         14    1    4    4    0    0 -0.19934143581E+02 -0.11737420397E+01 -0.50970102095E+02  0.54742114120E+02  0.00000000000E+00 0. -1.
         -5    1    5    5    0  502 -0.12083288984E+02 -0.67370505772E+02 -0.14438272169E+03  0.15985384338E+03  0.47000000000E+01 0.  1.
         11    1    6    6    0    0 -0.38071990639E+02 -0.17906815283E+03 -0.10214495405E+03  0.20963890734E+03  0.00000000000E+00 0. -1.
        -12    1    6    6    0    0  0.10899816181E+02 -0.21199524060E+02  0.13046877073E+02  0.27174377905E+02  0.00000000000E+00 0.  1.
</event>
<event>
12    1  0.8493057E-002  0.2485478E+03  0.7818608E-02  0.1114912E+00
         21   -1    0    0  503  502  0.00000000000E+00  0.00000000000E+00  0.72104815015E+02  0.72104815015E+02  0.00000000000E+00 0.  1.
         21   -1    0    0  501  503 -0.00000000000E+00 -0.00000000000E+00 -0.10506471525E+04  0.10506471525E+04  0.00000000000E+00 0.  1.
          6    2    1    2  501    0  0.17006744958E+03 -0.34684100942E+02 -0.73597332825E+03  0.77545420128E+03  0.17189111127E+03 0.  0.
         24    2    3    3    0    0  0.18039490425E+03  0.42923999124E+00 -0.68288156431E+03  0.71079796856E+03  0.79774779951E+02 0.  0.
         -6    2    1    2    0  502 -0.17006744958E+03  0.34684100942E+02 -0.24256900926E+03  0.34729776625E+03  0.17790472148E+03 0.  0.
        -24    2    5    5    0    0 -0.12986080892E+03  0.67941729308E+02 -0.95909841648E+02  0.19156194750E+03  0.77571732811E+02 0.  0.
          5    1    3    3  501    0 -0.10327454667E+02 -0.35113340933E+02 -0.53091763939E+02  0.64656232720E+02  0.47000000000E+01 0. -1.
        -13    1    4    4    0    0  0.11108694663E+03  0.26556798928E+02 -0.30409357229E+03  0.32483607249E+03  0.00000000000E+00 0.  1.
         14    1    4    4    0    0  0.69307957617E+02 -0.26127558937E+02 -0.37878799202E+03  0.38596189608E+03  0.00000000000E+00 0. -1.
         -5    1    5    5    0  502 -0.40206640669E+02 -0.33257628365E+02 -0.14665916761E+03  0.15573581875E+03  0.47000000000E+01 0.  1.
         13    1    6    6    0    0  0.41586932041E+01  0.21592928827E+02 -0.34099827555E+01  0.22252579331E+02  0.00000000000E+00 0. -1.
        -14    1    6    6    0    0 -0.13401950212E+03  0.46348800480E+02 -0.92499858893E+02  0.16930936817E+03  0.00000000000E+00 0.  1.
</event>
<event>
12    1  0.8493057E-002  0.1740603E+03  0.7818608E-02  0.1173686E+00
         21   -1    0    0  503  502  0.00000000000E+00  0.00000000000E+00  0.17362905925E+03  0.17362905925E+03  0.00000000000E+00 0. -1.
         21   -1    0    0  501  503 -0.00000000000E+00 -0.00000000000E+00 -0.22270996118E+04  0.22270996118E+04  0.00000000000E+00 0. -1.
          6    2    1    2  501    0 -0.24418349633E+02  0.60064332988E+01 -0.21791179939E+04  0.21860562292E+04  0.17220416026E+03 0.  0.
         24    2    3    3    0    0  0.17302173350E+02 -0.45687502643E+02 -0.84191583004E+03  0.84719679591E+03  0.80829654407E+02 0.  0.
         -6    2    1    2    0  502  0.24418349633E+02 -0.60064332988E+01  0.12564744135E+03  0.21467244186E+03  0.17223427282E+03 0.  0.
        -24    2    5    5    0    0  0.98958054297E+01 -0.86712600377E+01 -0.58729053614E+01  0.82242470960E+02  0.80970459407E+02 0.  0.
          5    1    3    3  501    0 -0.41720522983E+02  0.51693935942E+02 -0.13372021639E+04  0.13388594333E+04  0.47000000000E+01 0. -1.
        -13    1    4    4    0    0 -0.13741037242E+02 -0.11430663587E+01 -0.25598567400E+02  0.29075924029E+02  0.00000000000E+00 0.  1.
         14    1    4    4    0    0  0.31043210592E+02 -0.44544436285E+02 -0.81631726264E+03  0.81812087188E+03  0.00000000000E+00 0. -1.
         -5    1    5    5    0  502  0.14522544203E+02  0.26648267389E+01  0.13152034672E+03  0.13242997090E+03  0.47000000000E+01 0.  1.
         11    1    6    6    0    0 -0.28108805079E+02 -0.65746753927E+01  0.20958591185E+02  0.35673433027E+02  0.00000000000E+00 0. -1.
        -12    1    6    6    0    0  0.38004610508E+02 -0.20965846450E+01 -0.26831496547E+02  0.46569037933E+02  0.00000000000E+00 0.  1.
</event>
<event>
12    1  0.8493057E-002  0.1771999E+03  0.7818608E-02  0.1170542E+00
         21   -1    0    0  501  502  0.00000000000E+00  0.00000000000E+00  0.27984503366E+03  0.27984503366E+03  0.00000000000E+00 0.  1.
         21   -1    0    0  502  503 -0.00000000000E+00 -0.00000000000E+00 -0.54722823294E+03  0.54722823294E+03  0.00000000000E+00 0.  1.
         -6    2    1    2    0  503 -0.32110391235E+02 -0.31597869515E+02 -0.50240477767E+03  0.53273853722E+03  0.17137761180E+03 0.  0.
        -24    2    3    3    0    0  0.16191185694E+02  0.18311995049E+02 -0.40272196900E+03  0.41115404290E+03  0.79152883829E+02 0.  0.
          6    2    1    2  501    0  0.32110391235E+02  0.31597869515E+02  0.23502157839E+03  0.29433472939E+03  0.17137178306E+03 0.  0.
         24    2    5    5    0    0  0.10516847416E+01 -0.22620613340E+02  0.46404054356E+02  0.95581245127E+02  0.80434072200E+02 0.  0.
          5    1    5    5  501    0  0.31058706493E+02  0.54218482856E+02  0.18861752404E+03  0.19875348426E+03  0.47000000000E+01 0. -1.
        -13    1    6    6    0    0  0.29782737251E+02 -0.14020098342E+02 -0.76225460446E+01  0.33788723028E+02  0.00000000000E+00 0.  1.
         14    1    6    6    0    0 -0.28731052509E+02 -0.86005149982E+01  0.54026600401E+02  0.61792522099E+02  0.00000000000E+00 0. -1.
         -5    1    3    3    0  503 -0.48301576929E+02 -0.49909864564E+02 -0.99682808672E+02  0.12158449432E+03  0.47000000000E+01 0.  1.
         13    1    4    4    0    0  0.10245563349E+02 -0.19774909665E+02 -0.35455893132E+02  0.41870502485E+02  0.00000000000E+00 0. -1.
        -14    1    4    4    0    0  0.59456223455E+01  0.38086904713E+02 -0.36726607587E+03  0.36928354041E+03  0.00000000000E+00 0.  1.
</event>
<event>
12    1  0.8493057E-002  0.1909956E+03  0.7818608E-02  0.1158068E+00
         21   -1    0    0  501  502  0.00000000000E+00  0.00000000000E+00  0.15411008971E+04  0.15411008971E+04  0.00000000000E+00 0. -1.
         21   -1    0    0  502  503 -0.00000000000E+00 -0.00000000000E+00 -0.26821304800E+02  0.26821304800E+02  0.00000000000E+00 0. -1.
         -6    2    1    2    0  503 -0.53099278512E+02 -0.64665704637E+02  0.10411806475E+04  0.10585539413E+04  0.17169193113E+03 0.  0.
        -24    2    3    3    0    0  0.27098192242E+02 -0.61359994257E+02  0.58174858584E+03  0.59213945685E+03  0.87740289019E+02 0.  0.
          6    2    1    2  501    0  0.53099278512E+02  0.64665704637E+02  0.47309894481E+03  0.50936826059E+03  0.16921059832E+03 0.  0.
         24    2    5    5    0    0 -0.97402093724E+01 -0.35079403612E+01  0.32233472725E+03  0.33231350520E+03  0.80158667805E+02 0.  0.
          5    1    5    5  501    0  0.62839487885E+02  0.68173644999E+02  0.15076421756E+03  0.17705475539E+03  0.47000000000E+01 0. -1.
        -13    1    6    6    0    0  0.17221979734E+02 -0.22150237330E+02  0.26328360230E+03  0.26477440367E+03  0.00000000000E+00 0.  1.
         14    1    6    6    0    0 -0.26962189106E+02  0.18642296969E+02  0.59051124950E+02  0.67539101530E+02  0.00000000000E+00 0. -1.
         -5    1    3    3    0  503 -0.80197470754E+02 -0.33057103808E+01  0.45943206166E+03  0.46641448446E+03  0.47000000000E+01 0.  1.
         13    1    4    4    0    0  0.28107486216E+02  0.25765294213E+00  0.38361112491E+03  0.38463956156E+03  0.00000000000E+00 0. -1.
        -14    1    4    4    0    0 -0.10092939747E+01 -0.61617647199E+02  0.19813746094E+03  0.20749989529E+03  0.00000000000E+00 0.  1.
</event>
<event>
12    1  0.8493057E-002  0.2143661E+03  0.7818608E-02  0.1138271E+00
         21   -1    0    0  501  502  0.00000000000E+00  0.00000000000E+00  0.30421036733E+03  0.30421036733E+03  0.00000000000E+00 0. -1.
         21   -1    0    0  502  503 -0.00000000000E+00 -0.00000000000E+00 -0.15840765172E+03  0.15840765172E+03  0.00000000000E+00 0. -1.
         -6    2    1    2    0  503  0.80754599777E+02 -0.92668606812E+02  0.12405038201E+03  0.24715106135E+03  0.17488960454E+03 0.  0.
        -24    2    3    3    0    0  0.11176233400E+03 -0.72163660963E+02  0.13613464362E+03  0.20778036458E+03  0.83316417627E+02 0.  0.
          6    2    1    2  501    0 -0.80754599777E+02  0.92668606812E+02  0.21752333601E+02  0.21546695770E+03  0.17562479827E+03 0.  0.
         24    2    5    5    0    0 -0.47555216969E+02  0.12725212039E+03 -0.15323761408E+02  0.15468089637E+03  0.72365469911E+02 0.  0.
          5    1    5    5  501    0 -0.33199382808E+02 -0.34583513575E+02  0.37076095009E+02  0.60786061324E+02  0.47000000000E+01 0. -1.
        -13    1    6    6    0    0 -0.12029808345E+02  0.10024054220E+03  0.13045268385E+02  0.10179912385E+03  0.00000000000E+00 0.  1.
         14    1    6    6    0    0 -0.35525408624E+02  0.27011578190E+02 -0.28369029793E+02  0.52881772527E+02  0.00000000000E+00 0. -1.
         -5    1    3    3    0  503 -0.31007734221E+02 -0.20504945849E+02 -0.12084261611E+02  0.39370696775E+02  0.47000000000E+01 0.  1.
         11    1    4    4    0    0 -0.60262241217E+01 -0.24938730834E+01  0.40024615629E+02  0.40552492357E+02  0.00000000000E+00 0. -1.
        -12    1    4    4    0    0  0.11778855812E+03 -0.69669787879E+02  0.96110027993E+02  0.16722787222E+03  0.00000000000E+00 0.  1.
</event>
<event>
12    1  0.8493057E-002  0.1860368E+03  0.7818608E-02  0.1163449E+00
         21   -1    0    0  503  502  0.00000000000E+00  0.00000000000E+00  0.10739509277E+03  0.10739509277E+03  0.00000000000E+00 0. -1.
         21   -1    0    0  501  503 -0.00000000000E+00 -0.00000000000E+00 -0.37924706903E+03  0.37924706903E+03  0.00000000000E+00 0.  1.
          6    2    1    2  501    0  0.38203067072E+02  0.54579481349E+02 -0.23989593412E+03  0.30357826899E+03  0.17369891213E+03 0.  0.
         24    2    3    3    0    0  0.70632246159E+02  0.11609957816E+01 -0.80023841920E+02  0.13186233461E+03  0.77418330539E+02 0.  0.
         -6    2    1    2    0  502 -0.38203067072E+02 -0.54579481349E+02 -0.31956042146E+02  0.18306389282E+03  0.16748971941E+03 0.  0.
        -24    2    5    5    0    0 -0.33640235371E+02 -0.64563765721E+02  0.35966825302E+02  0.11409932735E+03  0.80155465818E+02 0.  0.
          5    1    3    3  501    0 -0.32429179088E+02  0.53418485568E+02 -0.15987209220E+03  0.17171593438E+03  0.47000000000E+01 0. -1.
        -13    1    4    4    0    0  0.17793510562E+02  0.26539117528E+02 -0.63298231997E+02  0.70905570665E+02  0.00000000000E+00 0.  1.
         14    1    4    4    0    0  0.52838735597E+02 -0.25378121746E+02 -0.16725609922E+02  0.60956763941E+02  0.00000000000E+00 0. -1.
         -5    1    5    5    0  502 -0.45628317008E+01  0.99842843719E+01 -0.67922867448E+02  0.68964565466E+02  0.47000000000E+01 0.  1.
         11    1    6    6    0    0 -0.45359401498E+02 -0.28324389351E+01  0.14905542183E+02  0.47829626826E+02  0.00000000000E+00 0. -1.
        -12    1    6    6    0    0  0.11719166127E+02 -0.61731326786E+02  0.21061283119E+02  0.66269700528E+02  0.00000000000E+00 0.  1.
</event>
<event>
12    1  0.8493057E-002  0.1982424E+03  0.7818608E-02  0.1151260E+00
         21   -1    0    0  503  502  0.00000000000E+00  0.00000000000E+00  0.20938532639E+03  0.20938532639E+03  0.00000000000E+00 0.  1.
         21   -1    0    0  501  503 -0.00000000000E+00 -0.00000000000E+00 -0.23974450223E+03  0.23974450223E+03  0.00000000000E+00 0.  1.
          6    2    1    2  501    0 -0.82954660383E+02  0.49590697874E+02 -0.11994592908E+03  0.23158483541E+03  0.17292714390E+03 0.  0.
         24    2    3    3    0    0 -0.66751833886E+01  0.23592639157E+02  0.16342103424E+01  0.85645539921E+02  0.82044604754E+02 0.  0.
         -6    2    1    2    0  502  0.82954660383E+02 -0.49590697874E+02  0.89586753235E+02  0.21754499320E+03  0.17308762150E+03 0.  0.
        -24    2    5    5    0    0  0.34316158221E+02 -0.80668879519E+02  0.10303108586E+03  0.15809419550E+03  0.81812610029E+02 0.  0.
          5    1    3    3  501    0 -0.76279476995E+02  0.25998058717E+02 -0.12158013942E+03  0.14593929549E+03  0.47000000000E+01 0. -1.
        -11    1    4    4    0    0 -0.38838991261E+02  0.12985849772E+02  0.21631948621E+02  0.46314584502E+02  0.00000000000E+00 0.  1.
         12    1    4    4    0    0  0.32163807872E+02  0.10606789385E+02 -0.19997738279E+02  0.39330955419E+02  0.00000000000E+00 0. -1.
         -5    1    5    5    0  502  0.48638502162E+02  0.31078181645E+02 -0.13444332629E+02  0.59450797696E+02  0.47000000000E+01 0.  1.
         13    1    6    6    0    0  0.37000166896E+02 -0.20488782079E+02  0.85445173496E+02  0.95339814428E+02  0.00000000000E+00 0. -1.
        -14    1    6    6    0    0 -0.26840086749E+01 -0.60180097439E+02  0.17585912368E+02  0.62754381076E+02  0.00000000000E+00 0.  1.
</event>
<event>
12    1  0.8493057E-002  0.2120773E+03  0.7818608E-02  0.1140449E+00
         21   -1    0    0  501  502  0.00000000000E+00  0.00000000000E+00  0.41073285534E+03  0.41073285534E+03  0.00000000000E+00 0. -1.
         21   -1    0    0  502  503 -0.00000000000E+00 -0.00000000000E+00 -0.11290775727E+03  0.11290775727E+03  0.00000000000E+00 0.  1.
         -6    2    1    2    0  503 -0.40217813470E+02  0.11845131054E+03  0.94271499578E+02  0.22968336820E+03  0.16798556040E+03 0.  0.
        -24    2    3    3    0    0 -0.88287639574E+02  0.58308971111E+02  0.60224627987E+02  0.14536795656E+03  0.79436726805E+02 0.  0.
          6    2    1    2  501    0  0.40217813470E+02 -0.11845131054E+03  0.20355359849E+03  0.29395724442E+03  0.17125597391E+03 0.  0.
         24    2    5    5    0    0  0.82193620673E+02 -0.52973745004E+02  0.16649189094E+03  0.20767317784E+03  0.76462998284E+02 0.  0.
          5    1    5    5  501    0 -0.41975807203E+02 -0.65477565536E+02  0.37061707549E+02  0.86284066579E+02  0.47000000000E+01 0. -1.
        -11    1    6    6    0    0 -0.76180541560E+01 -0.11788220979E+02 -0.40749651683E-01  0.14035617675E+02  0.00000000000E+00 0.  1.
         12    1    6    6    0    0  0.89811674829E+02 -0.41185524025E+02  0.16653264059E+03  0.19363756016E+03  0.00000000000E+00 0. -1.
         -5    1    3    3    0  503  0.48069826104E+02  0.60142339430E+02  0.34046871591E+02  0.84315411633E+02  0.47000000000E+01 0.  1.
         13    1    4    4    0    0 -0.58959228006E+02  0.53704721614E+02  0.77345094005E+02  0.11109748538E+03  0.00000000000E+00 0. -1.
        -14    1    4    4    0    0 -0.29328411568E+02  0.46042494971E+01 -0.17120466018E+02  0.34270471185E+02  0.00000000000E+00 0.  1.
</event>
<event>
12    1  0.8493057E-002  0.1900606E+03  0.7818608E-02  0.1158673E+00
         21   -1    0    0  503  502  0.00000000000E+00  0.00000000000E+00  0.10767512178E+04  0.10767512178E+04  0.00000000000E+00 0. -1.
         21   -1    0    0  501  503 -0.00000000000E+00 -0.00000000000E+00 -0.51149150278E+02  0.51149150278E+02  0.00000000000E+00 0. -1.
          6    2    1    2  501    0 -0.27990940117E+02  0.74225485136E+02  0.18107813197E+03  0.26251153129E+03  0.17271392188E+03 0.  0.
         24    2    3    3    0    0  0.25498263494E+02  0.26427772997E+02  0.16615250499E+03  0.18909095836E+03  0.82463003776E+02 0.  0.
         -6    2    1    2    0  502  0.27990940117E+02 -0.74225485136E+02  0.84452393554E+03  0.86538883677E+03  0.17141833549E+03 0.  0.
        -24    2    5    5    0    0  0.38997618066E+02 -0.27866610450E+02  0.21481313507E+03  0.23386047285E+03  0.79048564614E+02 0.  0.
          5    1    3    3  501    0 -0.53489203611E+02  0.47797712139E+02  0.14925626978E+02  0.73420572930E+02  0.47000000000E+01 0. -1.
        -13    1    4    4    0    0  0.38500714849E+02  0.44651561721E+02  0.15088144017E+03  0.16199159236E+03  0.00000000000E+00 0.  1.
         14    1    4    4    0    0 -0.13002451355E+02 -0.18223788725E+02  0.15271064822E+02  0.27099365998E+02  0.00000000000E+00 0. -1.
         -5    1    5    5    0  502 -0.11006677949E+02 -0.46358874686E+02  0.62971080047E+03  0.63152836393E+03  0.47000000000E+01 0.  1.
         13    1    6    6    0    0  0.32915860312E+02 -0.88063150272E+01  0.21069701300E+03  0.21343438414E+03  0.00000000000E+00 0. -1.
        -14    1    6    6    0    0  0.60817577545E+01 -0.19060295422E+02  0.41161220686E+01  0.20426088707E+02  0.00000000000E+00 0.  1.
</event>
<event>
12    1  0.8493057E-002  0.1820431E+03  0.7818608E-02  0.1166140E+00
         21   -1    0    0  501  502  0.00000000000E+00  0.00000000000E+00  0.93861124397E+03  0.93861124397E+03  0.00000000000E+00 0. -1.
         21   -1    0    0  502  503 -0.00000000000E+00 -0.00000000000E+00 -0.50836310123E+02  0.50836310123E+02  0.00000000000E+00 0. -1.
         -6    2    1    2    0  503 -0.46712338740E+02  0.31290714338E+02  0.16938693958E+03  0.24865963121E+03  0.17314307811E+03 0.  0.
        -24    2    3    3    0    0 -0.66041406088E+02 -0.23728715487E+02  0.14626804573E+03  0.18575236807E+03  0.90471441814E+02 0.  0.
          6    2    1    2  501    0  0.46712338740E+02 -0.31290714338E+02  0.71838799426E+03  0.74078792289E+03  0.17182632218E+03 0.  0.
         24    2    5    5    0    0  0.16557841561E+02  0.34233293709E+02  0.20938918787E+03  0.22668232650E+03  0.78070254465E+02 0.  0.
          5    1    5    5  501    0  0.30154497180E+02 -0.65524008047E+02  0.50899880639E+03  0.51410559639E+03  0.47000000000E+01 0. -1.
        -13    1    6    6    0    0  0.81119326581E+01  0.44095013251E+02  0.20893383218E+03  0.21369024282E+03  0.00000000000E+00 0.  1.
         14    1    6    6    0    0  0.84459089024E+01 -0.98617195427E+01  0.45535569202E+00  0.12992083679E+02  0.00000000000E+00 0. -1.
         -5    1    3    3    0  503  0.19329067348E+02  0.55019429825E+02  0.23118893849E+02  0.62907263139E+02  0.47000000000E+01 0.  1.
         11    1    4    4    0    0 -0.85671037857E+02 -0.33192077452E+02  0.12639895422E+03  0.15626239587E+03  0.00000000000E+00 0. -1.
        -12    1    4    4    0    0  0.19629631769E+02  0.94633619654E+01  0.19869091507E+02  0.29489972200E+02  0.00000000000E+00 0.  1.
</event>
<event>
12    1  0.8493057E-002  0.2133322E+03  0.7818608E-02  0.1139244E+00
         21   -1    0    0  503  502  0.00000000000E+00  0.00000000000E+00  0.20560692442E+03  0.20560692442E+03  0.00000000000E+00 0. -1.
         21   -1    0    0  501  503 -0.00000000000E+00 -0.00000000000E+00 -0.28193788761E+03  0.28193788761E+03  0.00000000000E+00 0.  1.
          6    2    1    2  501    0  0.15445032555E+02 -0.12260328492E+03 -0.15270692254E+03  0.26235474501E+03  0.17389793999E+03 0.  0.
         24    2    3    3    0    0  0.52497269124E+02 -0.11527894326E+02 -0.68447969562E+02  0.11802085506E+03  0.79717890584E+02 0.  0.
         -6    2    1    2    0  502 -0.15445032555E+02  0.12260328492E+03  0.76375959354E+02  0.22519006703E+03  0.17206732582E+03 0.  0.
        -24    2    5    5    0    0 -0.21876713575E+00  0.90181631588E+02  0.11928687158E+03  0.16909693776E+03  0.78940750526E+02 0.  0.
          5    1    3    3  501    0 -0.37052236569E+02 -0.11107539059E+03 -0.84258952978E+02  0.14433388995E+03  0.47000000000E+01 0. -1.
        -11    1    4    4    0    0 -0.52131569362E+01 -0.98913382568E+01 -0.58348992212E+02  0.59410609068E+02  0.00000000000E+00 0.  1.
         12    1    4    4    0    0  0.57710426060E+02 -0.16365560689E+01 -0.10098977351E+02  0.58610245993E+02  0.00000000000E+00 0. -1.
         -5    1    5    5    0  502 -0.15226265419E+02  0.32421653331E+02 -0.42910912222E+02  0.56093129268E+02  0.47000000000E+01 0.  1.
         11    1    6    6    0    0 -0.28842072872E+02  0.69050116538E+02  0.46560822415E+02  0.88134521871E+02  0.00000000000E+00 0. -1.
        -12    1    6    6    0    0  0.28623305736E+02  0.21131515049E+02  0.72726049162E+02  0.80962415887E+02  0.00000000000E+00 0.  1.
</event>
<event>
12    1  0.8493057E-002  0.2052606E+03  0.7818608E-02  0.1145450E+00
         21   -1    0    0  503  502  0.00000000000E+00  0.00000000000E+00  0.23851545773E+03  0.23851545773E+03  0.00000000000E+00 0. -1.
         21   -1    0    0  501  503 -0.00000000000E+00 -0.00000000000E+00 -0.18431695274E+03  0.18431695274E+03  0.00000000000E+00 0.  1.
          6    2    1    2  501    0 -0.85745850839E+02 -0.72201164319E+02  0.71099338668E+02  0.21687716794E+03  0.17150869060E+03 0.  0.
         24    2    3    3    0    0 -0.75525821294E+02 -0.29108364936E+02 -0.19246385585E+02  0.11615041751E+03  0.81049673276E+02 0.  0.
         -6    2    1    2    0  502  0.85745850839E+02  0.72201164319E+02 -0.16900833677E+02  0.20595524252E+03  0.17194930845E+03 0.  0.
        -24    2    5    5    0    0  0.65988909800E+02  0.74883052553E+02  0.49393052742E+02  0.13656865433E+03  0.79052614826E+02 0.  0.
          5    1    3    3  501    0 -0.10220029546E+02 -0.43092799383E+02  0.90345724252E+02  0.10072675044E+03  0.47000000000E+01 0. -1.
        -11    1    4    4    0    0 -0.56817663976E+01  0.25174739420E+02 -0.98357822291E+00  0.25826680011E+02  0.00000000000E+00 0.  1.
         12    1    4    4    0    0 -0.69844054896E+02 -0.54283104356E+02 -0.18262807362E+02  0.90323737498E+02  0.00000000000E+00 0. -1.
         -5    1    5    5    0  502  0.19756941040E+02 -0.26818882336E+01 -0.66293886419E+02  0.69386588187E+02  0.47000000000E+01 0.  1.
         11    1    6    6    0    0  0.43341623612E+01 -0.16391094421E+02  0.94022853100E+01  0.19387003604E+02  0.00000000000E+00 0. -1.
        -12    1    6    6    0    0  0.61654747439E+02  0.91274146974E+02  0.39990767432E+02  0.11718165073E+03  0.00000000000E+00 0.  1.
</event>
<event>
12    1  0.8493057E-002  0.1855903E+03  0.7818608E-02  0.1162678E+00
         21   -1    0    0  501  502  0.00000000000E+00  0.00000000000E+00  0.39851134087E+03  0.39851134087E+03  0.00000000000E+00 0. -1.
         21   -1    0    0  502  503 -0.00000000000E+00 -0.00000000000E+00 -0.10240314784E+03  0.10240314784E+03  0.00000000000E+00 0. -1.
         -6    2    1    2    0  503 -0.64377925867E+02 -0.21292605189E+02  0.48301602750E+02  0.19177275912E+03  0.17275952633E+03 0.  0.
        -24    2    3    3    0    0 -0.10927185255E+03 -0.16191656689E+02  0.18818285041E+02  0.13761705441E+03  0.79886283591E+02 0.  0.
          6    2    1    2  501    0  0.64377925867E+02  0.21292605189E+02  0.24780659028E+03  0.30914172959E+03  0.17193780972E+03 0.  0.
         24    2    5    5    0    0  0.22305138332E+02 -0.10893971893E+02  0.24097589839E+03  0.25552416206E+03  0.81283552904E+02 0.  0.
          5    1    5    5  501    0  0.42072787535E+02  0.32186577083E+02  0.68306918834E+01  0.53617567521E+02  0.47000000000E+01 0. -1.
        -13    1    6    6    0    0 -0.23799876105E+02  0.17213027166E+02  0.11000734673E+03  0.11386105016E+03  0.00000000000E+00 0.  1.
         14    1    6    6    0    0  0.46105014437E+02 -0.28106999059E+02  0.13096855166E+03  0.14166311191E+03  0.00000000000E+00 0. -1.
         -5    1    3    3    0  503  0.44893926688E+02 -0.51009485006E+01  0.29483317710E+02  0.54155704706E+02  0.47000000000E+01 0.  1.
         11    1    4    4    0    0 -0.23248125911E+02  0.23667233325E+02 -0.15721492641E+02  0.36712104577E+02  0.00000000000E+00 0. -1.
        -12    1    4    4    0    0 -0.86023726644E+02 -0.39858890014E+02  0.34539777682E+02  0.10090494983E+03  0.00000000000E+00 0.  1.
</event>
<event>
12    1  0.8493057E-002  0.1977328E+03  0.7818608E-02  0.1152611E+00
         21   -1    0    0  501  502  0.00000000000E+00  0.00000000000E+00  0.47427757147E+03  0.47427757147E+03  0.00000000000E+00 0. -1.
         21   -1    0    0  502  503 -0.00000000000E+00 -0.00000000000E+00 -0.11078934836E+03  0.11078934836E+03  0.00000000000E+00 0. -1.
         -6    2    1    2    0  503  0.29586402638E+01  0.91607166190E+02  0.27647675131E+02  0.19533992211E+03  0.17027232535E+03 0.  0.
        -24    2    3    3    0    0 -0.53708586252E+02  0.13842656442E+02  0.16656455339E+02  0.98379154530E+02  0.79528543097E+02 0.  0.
          6    2    1    2  501    0 -0.29586402638E+01 -0.91607166190E+02  0.33584054798E+03  0.38972699772E+03  0.17520739890E+03 0.  0.
         24    2    5    5    0    0 -0.35687763520E+02 -0.10297661584E+03  0.15474111411E+03  0.20528309068E+03  0.79489213411E+02 0.  0.
          5    1    5    5  501    0  0.32729123256E+02  0.11369449646E+02  0.18109943387E+03  0.18444390704E+03  0.47000000000E+01 0. -1.
        -11    1    6    6    0    0 -0.26643608792E+02  0.69836436854E+00  0.13596914679E+02  0.29920656595E+02  0.00000000000E+00 0.  1.
         12    1    6    6    0    0 -0.90441547277E+01 -0.10367498020E+03  0.14114419943E+03  0.17536243408E+03  0.00000000000E+00 0. -1.
         -5    1    3    3    0  503  0.56667226516E+02  0.77764509749E+02  0.10991219793E+02  0.96960767581E+02  0.47000000000E+01 0.  1.
         13    1    4    4    0    0  0.19001615245E+02 -0.58857383607E+01  0.11233727992E+02  0.22845129515E+02  0.00000000000E+00 0. -1.
        -14    1    4    4    0    0 -0.72710201497E+02  0.19728394802E+02  0.54227273466E+01  0.75534025015E+02  0.00000000000E+00 0.  1.
</event>
<event>
12    1  0.8493057E-002  0.2657349E+03  0.7818608E-02  0.1103807E+00
         21   -1    0    0  503  502  0.00000000000E+00  0.00000000000E+00  0.37505887633E+03  0.37505887633E+03  0.00000000000E+00 0.  1.
         21   -1    0    0  501  503 -0.00000000000E+00 -0.00000000000E+00 -0.38638292545E+03  0.38638292545E+03  0.00000000000E+00 0. -1.
          6    2    1    2  501    0  0.39514962588E+02 -0.19952841514E+03 -0.27848089012E+03  0.38492422766E+03  0.17100302385E+03 0.  0.
         24    2    3    3    0    0  0.27841613173E+02 -0.30940703493E+02 -0.14856206100E+03  0.17171288705E+03  0.75380017618E+02 0.  0.
         -6    2    1    2    0  502 -0.39514962588E+02  0.19952841514E+03  0.26715684100E+03  0.37651757412E+03  0.17035165161E+03 0.  0.
        -24    2    5    5    0    0  0.14290511554E+02  0.10640740695E+03  0.22566930476E+03  0.26114922111E+03  0.75799245356E+02 0.  0.
          5    1    3    3  501    0  0.11673349415E+02 -0.16858771165E+03 -0.12991882912E+03  0.21321134061E+03  0.47000000000E+01 0. -1.
        -13    1    4    4    0    0 -0.81096981008E+01 -0.45794895299E+02 -0.91686280082E+02  0.10280716704E+03  0.00000000000E+00 0.  1.
         14    1    4    4    0    0  0.35951311274E+02  0.14854191806E+02 -0.56875780916E+02  0.68905720019E+02  0.00000000000E+00 0. -1.
         -5    1    5    5    0  502 -0.53805474142E+02  0.93121008185E+02  0.41487536239E+02  0.11536835301E+03  0.47000000000E+01 0.  1.
         13    1    6    6    0    0  0.37586796194E+02  0.72728173707E+02  0.10149799568E+03  0.13039937740E+03  0.00000000000E+00 0. -1.
        -14    1    6    6    0    0 -0.23296284640E+02  0.33679233247E+02  0.12417130908E+03  0.13074984371E+03  0.00000000000E+00 0.  1.
</event>
<event>
12    1  0.8493057E-002  0.1946240E+03  0.7818608E-02  0.1155535E+00
         21   -1    0    0  503  502  0.00000000000E+00  0.00000000000E+00  0.16269371203E+03  0.16269371203E+03  0.00000000000E+00 0. -1.
         21   -1    0    0  501  503 -0.00000000000E+00 -0.00000000000E+00 -0.50358206486E+03  0.50358206486E+03  0.00000000000E+00 0. -1.
          6    2    1    2  501    0  0.80297668154E+02 -0.26330576946E+02 -0.41860547948E+03  0.46163735927E+03  0.17532110320E+03 0.  0.
         24    2    3    3    0    0 -0.84045344261E+01  0.29233480283E+02 -0.14714374924E+03  0.17065796793E+03  0.80917405478E+02 0.  0.
         -6    2    1    2    0  502 -0.80297668154E+02  0.26330576946E+02  0.77717126654E+02  0.20463841761E+03  0.16939868770E+03 0.  0.
        -24    2    5    5    0    0 -0.61114366290E+02 -0.13096391677E+02  0.10936357996E+03  0.15036067879E+03  0.82106393556E+02 0.  0.
          5    1    3    3  501    0  0.88702202580E+02 -0.55564057229E+02 -0.27146173025E+03  0.29097939134E+03  0.47000000000E+01 0. -1.
        -13    1    4    4    0    0 -0.30942181196E+02 -0.16703263704E+02 -0.64298191495E+02  0.73284889473E+02  0.00000000000E+00 0.  1.
         14    1    4    4    0    0  0.22537646770E+02  0.45936743987E+02 -0.82845557742E+02  0.97373078454E+02  0.00000000000E+00 0. -1.
         -5    1    5    5    0  502 -0.19183301865E+02  0.39426968623E+02 -0.31646453304E+02  0.54277738825E+02  0.47000000000E+01 0.  1.
         11    1    6    6    0    0  0.11994349847E+02  0.19378687411E+02  0.18970059092E+02  0.29652337108E+02  0.00000000000E+00 0. -1.
        -12    1    6    6    0    0 -0.73108716137E+02 -0.32475079087E+02  0.90393520866E+02  0.12070834168E+03  0.00000000000E+00 0.  1.
</event>
<event>
12    1  0.8493057E-002  0.2666854E+03  0.7818608E-02  0.1104310E+00
         21   -1    0    0  503  502  0.00000000000E+00  0.00000000000E+00  0.91929604345E+03  0.91929604345E+03  0.00000000000E+00 0.  1.
         21   -1    0    0  501  503 -0.00000000000E+00 -0.00000000000E+00 -0.30734180832E+03  0.30734180832E+03  0.00000000000E+00 0. -1.
          6    2    1    2  501    0 -0.18866977525E+03 -0.81219441992E+02 -0.22813930592E+03  0.34523088466E+03  0.15793650295E+03 0.  0.
         24    2    3    3    0    0 -0.51903998942E+02 -0.75692713013E+02 -0.10346249747E+03  0.16002338247E+03  0.80495854822E+02 0.  0.
         -6    2    1    2    0  502  0.18866977525E+03  0.81219441992E+02  0.84009354106E+03  0.88140696711E+03  0.17008292708E+03 0.  0.
        -24    2    5    5    0    0  0.13435941182E+03 -0.13054953548E+02  0.51750683272E+03  0.54093442544E+03  0.81079265912E+02 0.  0.
          5    1    3    3  501    0 -0.13676577631E+03 -0.55267289791E+01 -0.12467680845E+03  0.18520750220E+03  0.47000000000E+01 0. -1.
        -13    1    4    4    0    0 -0.43223168751E+02 -0.90715131826E+02 -0.10104662545E+03  0.14250578225E+03  0.00000000000E+00 0.  1.
         14    1    4    4    0    0 -0.86808301907E+01  0.15022418813E+02 -0.24158720207E+01  0.17517600219E+02  0.00000000000E+00 0. -1.
         -5    1    5    5    0  502  0.54310363434E+02  0.94274395540E+02  0.32258670834E+03  0.34047254166E+03  0.47000000000E+01 0.  1.
         13    1    6    6    0    0  0.58942838643E+02  0.25604120471E+02  0.14019515192E+03  0.15422227411E+03  0.00000000000E+00 0. -1.
        -14    1    6    6    0    0  0.75416573177E+02 -0.38659074019E+02  0.37731168081E+03  0.38671215133E+03  0.00000000000E+00 0.  1.
</event>
<event>
12    1  0.8493057E-002  0.1771477E+03  0.7818608E-02  0.1171084E+00
         21   -1    0    0  503  502  0.00000000000E+00  0.00000000000E+00  0.37623998183E+02  0.37623998183E+02  0.00000000000E+00 0. -1.
         21   -1    0    0  501  503 -0.00000000000E+00 -0.00000000000E+00 -0.12274155461E+04  0.12274155461E+04  0.00000000000E+00 0. -1.
          6    2    1    2  501    0 -0.20347493008E+02 -0.17416915926E+02 -0.95939973068E+03  0.97561730960E+03  0.17511117074E+03 0.  0.
         24    2    3    3    0    0 -0.34021430592E+02 -0.73351525443E+01 -0.26853547055E+03  0.28452821661E+03  0.87371304778E+02 0.  0.
         -6    2    1    2    0  502  0.20347493008E+02  0.17416915926E+02 -0.23039181727E+03  0.28942223472E+03  0.17311115231E+03 0.  0.
        -24    2    5    5    0    0  0.34737262178E+02  0.22706128703E+01 -0.37371741850E+02  0.95217921001E+02  0.80361510218E+02 0.  0.
          5    1    3    3  501    0  0.13673937584E+02 -0.10081763382E+02 -0.69086426013E+03  0.69108909299E+03  0.47000000000E+01 0. -1.
        -11    1    4    4    0    0 -0.58239105903E+02 -0.88690507878E+01 -0.11628310510E+03  0.13035418693E+03  0.00000000000E+00 0.  1.
         12    1    4    4    0    0  0.24217675311E+02  0.15338982434E+01 -0.15225236546E+03  0.15417402968E+03  0.00000000000E+00 0. -1.
         -5    1    5    5    0  502 -0.14389769170E+02  0.15146303056E+02 -0.19302007542E+03  0.19420431372E+03  0.47000000000E+01 0.  1.
         13    1    6    6    0    0  0.40819073809E+02 -0.32514519143E+02 -0.20305125404E+02  0.55997221890E+02  0.00000000000E+00 0. -1.
        -14    1    6    6    0    0 -0.60818116309E+01  0.34785132013E+02 -0.17066616446E+02  0.39220699112E+02  0.00000000000E+00 0.  1.
</event>
<event>
12    1  0.8493057E-002  0.2944438E+03  0.7818608E-02  0.1088585E+00
         21   -1    0    0  503  502  0.00000000000E+00  0.00000000000E+00  0.43208543642E+03  0.43208543642E+03  0.00000000000E+00 0.  1.
         21   -1    0    0  501  503 -0.00000000000E+00 -0.00000000000E+00 -0.36941595133E+03  0.36941595133E+03  0.00000000000E+00 0. -1.
          6    2    1    2  501    0 -0.17028717443E+03  0.16671854065E+03  0.30432788469E+03  0.42058680672E+03  0.16578602782E+03 0.  0.
         24    2    3    3    0    0 -0.17250168425E+03  0.17160427421E+03  0.31597529856E+03  0.40692932906E+03  0.80908785381E+02 0.  0.
         -6    2    1    2    0  502  0.17028717443E+03 -0.16671854065E+03 -0.24165839960E+03  0.38091458103E+03  0.17292872050E+03 0.  0.
        -24    2    5    5    0    0  0.28674448258E+02 -0.54201768547E+02 -0.14621996048E+03  0.17635462923E+03  0.77205069216E+02 0.  0.
          5    1    3    3  501    0  0.22145098200E+01 -0.48857335581E+01 -0.11647413876E+02  0.13657477664E+02  0.47000000000E+01 0. -1.
        -13    1    4    4    0    0 -0.13381409112E+03  0.87552189726E+02  0.16440466926E+03  0.22934797183E+03  0.00000000000E+00 0.  1.
         14    1    4    4    0    0 -0.38687593127E+02  0.84052084483E+02  0.15157062930E+03  0.17758135723E+03  0.00000000000E+00 0. -1.
         -5    1    5    5    0  502  0.14161272617E+03 -0.11251677210E+03 -0.95438439121E+02  0.20455995180E+03  0.47000000000E+01 0.  1.
         13    1    6    6    0    0  0.23873357947E+02 -0.64224148266E+00 -0.10742299690E+03  0.11004567214E+03  0.00000000000E+00 0. -1.
        -14    1    6    6    0    0  0.48010903110E+01 -0.53559527064E+02 -0.38796963575E+02  0.66308957088E+02  0.00000000000E+00 0.  1.
</event>
<event>
12    1  0.8493057E-002  0.1776579E+03  0.7818608E-02  0.1170110E+00
         21   -1    0    0  503  502  0.00000000000E+00  0.00000000000E+00  0.41038249066E+03  0.41038249066E+03  0.00000000000E+00 0.  1.
         21   -1    0    0  501  503 -0.00000000000E+00 -0.00000000000E+00 -0.16177736701E+03  0.16177736701E+03  0.00000000000E+00 0.  1.
          6    2    1    2  501    0  0.20999019837E+02 -0.42602367417E+02 -0.82932904483E+02  0.19606168006E+03  0.17119110724E+03 0.  0.
         24    2    3    3    0    0  0.47409598673E+02 -0.83715278677E+02 -0.52818454160E+02  0.13847035897E+03  0.84429457434E+02 0.  0.
         -6    2    1    2    0  502 -0.20999019837E+02  0.42602367417E+02  0.33153802814E+03  0.37609817761E+03  0.17110363690E+03 0.  0.
        -24    2    5    5    0    0 -0.29342777468E+02  0.79484354001E+02  0.31162651009E+03  0.33310448300E+03  0.81662437408E+02 0.  0.
          5    1    3    3  501    0 -0.26410578835E+02  0.41112911261E+02 -0.30114450323E+02  0.57591321091E+02  0.47000000000E+01 0. -1.
        -11    1    4    4    0    0  0.81150879464E+01 -0.85364098253E+02 -0.22058073681E+02  0.88540626480E+02  0.00000000000E+00 0.  1.
         12    1    4    4    0    0  0.39294510726E+02  0.16488195754E+01 -0.30760380479E+02  0.49929732489E+02  0.00000000000E+00 0. -1.
         -5    1    5    5    0  502  0.83437576307E+01 -0.36881986584E+02  0.19911518051E+02  0.42993694618E+02  0.47000000000E+01 0.  1.
         11    1    6    6    0    0  0.10888137460E+02  0.96190164210E+01  0.39714556722E+01  0.15061522978E+02  0.00000000000E+00 0. -1.
        -12    1    6    6    0    0 -0.40230914928E+02  0.69865337580E+02  0.30765505441E+03  0.31804296002E+03  0.00000000000E+00 0.  1.
</event>
<event>
12    1  0.8493057E-002  0.2141080E+03  0.7818608E-02  0.1139263E+00
         21   -1    0    0  501  502  0.00000000000E+00  0.00000000000E+00  0.43411055767E+02  0.43411055767E+02  0.00000000000E+00 0.  1.
         21   -1    0    0  502  503 -0.00000000000E+00 -0.00000000000E+00 -0.17642195883E+04  0.17642195883E+04  0.00000000000E+00 0.  1.
         -6    2    1    2    0  503  0.99922720068E+02  0.77666616674E+02 -0.28415927648E+03  0.35579308542E+03  0.17270081613E+03 0.  0.
        -24    2    3    3    0    0  0.87580450231E+02  0.98552461848E+01 -0.25597918635E+03  0.28118128292E+03  0.75961232750E+02 0.  0.
          6    2    1    2  501    0 -0.99922720068E+02 -0.77666616674E+02 -0.14366492560E+04  0.14518375586E+04  0.16689684973E+03 0.  0.
         24    2    5    5    0    0 -0.79350632156E+02 -0.91657418785E+02 -0.13986528246E+04  0.14061782534E+04  0.80062173222E+02 0.  0.
          5    1    5    5  501    0 -0.20572087912E+02  0.13990802111E+02 -0.37996431477E+02  0.45659305183E+02  0.47000000000E+01 0. -1.
        -11    1    6    6    0    0 -0.69329633168E+01 -0.40363543127E+02 -0.79316693488E+03  0.79422356310E+03  0.00000000000E+00 0.  1.
         12    1    6    6    0    0 -0.72417668839E+02 -0.51293875658E+02 -0.60548588968E+03  0.61195469035E+03  0.00000000000E+00 0. -1.
         -5    1    3    3    0  503  0.12342269837E+02  0.67811370489E+02 -0.28180090131E+02  0.74611802499E+02  0.47000000000E+01 0.  1.
         13    1    4    4    0    0 -0.33265939915E+00 -0.10819815969E+01 -0.11283427431E+03  0.11283995217E+03  0.00000000000E+00 0. -1.
        -14    1    4    4    0    0  0.87913109631E+02  0.10937227782E+02 -0.14314491204E+03  0.16834133075E+03  0.00000000000E+00 0.  1.
</event>
<event>
12    1  0.8493057E-002  0.3402975E+03  0.7818608E-02  0.1066757E+00
         21   -1    0    0  501  502  0.00000000000E+00  0.00000000000E+00  0.82147853877E+02  0.82147853877E+02  0.00000000000E+00 0. -1.
         21   -1    0    0  502  503 -0.00000000000E+00 -0.00000000000E+00 -0.16099401373E+04  0.16099401373E+04  0.00000000000E+00 0. -1.
         -6    2    1    2    0  503 -0.28941916048E+03  0.48685727915E+02 -0.46215539412E+03  0.57343505457E+03  0.17060598739E+03 0.  0.
        -24    2    3    3    0    0 -0.18024601709E+03 -0.40730854190E+02 -0.26497578219E+03  0.33091497343E+03  0.71728134874E+02 0.  0.
          6    2    1    2  501    0  0.28941916048E+03 -0.48685727915E+02 -0.10656368893E+04  0.11186529366E+04  0.17224593521E+03 0.  0.
         24    2    5    5    0    0  0.12372838279E+03  0.12631444476E+02 -0.66875632609E+03  0.68419983109E+03  0.73662195749E+02 0.  0.
          5    1    5    5  501    0  0.16569077770E+03 -0.61317172391E+02 -0.39688056323E+03  0.43445310554E+03  0.47000000000E+01 0. -1.
        -13    1    6    6    0    0  0.27725800525E+02  0.27726689694E+02 -0.10406425642E+03  0.11120637931E+03  0.00000000000E+00 0.  1.
         14    1    6    6    0    0  0.96002582261E+02 -0.15095245218E+02 -0.56469206967E+03  0.57299345178E+03  0.00000000000E+00 0. -1.
         -5    1    3    3    0  503 -0.10917314339E+03  0.89416582105E+02 -0.19717961194E+03  0.24252008114E+03  0.47000000000E+01 0.  1.
         11    1    4    4    0    0 -0.75446202574E+02 -0.47159468489E+02 -0.15599009479E+03  0.17958021780E+03  0.00000000000E+00 0. -1.
        -12    1    4    4    0    0 -0.10479981452E+03  0.64286142989E+01 -0.10898568740E+03  0.15133475563E+03  0.00000000000E+00 0.  1.
</event>
<event>
12    1  0.8493057E-002  0.2090658E+03  0.7818608E-02  0.1142354E+00
         21   -1    0    0  501  502  0.00000000000E+00  0.00000000000E+00  0.63819016142E+03  0.63819016142E+03  0.00000000000E+00 0.  1.
         21   -1    0    0  502  503 -0.00000000000E+00 -0.00000000000E+00 -0.28053783694E+03  0.28053783694E+03  0.00000000000E+00 0.  1.
         -6    2    1    2    0  503  0.28747032309E+02 -0.11410489536E+03 -0.22059495582E+03  0.30392538105E+03  0.17280678141E+03 0.  0.
        -24    2    3    3    0    0 -0.45676803565E+02 -0.32282061268E+02 -0.10592924127E+03  0.14453843171E+03  0.80881717477E+02 0.  0.
          6    2    1    2  501    0 -0.28747032309E+02  0.11410489536E+03  0.57824728029E+03  0.61480261731E+03  0.17252832252E+03 0.  0.
         24    2    5    5    0    0  0.22431165679E+02  0.52585552011E+02  0.47143685656E+03  0.48125714126E+03  0.78021335626E+02 0.  0.
          5    1    5    5  501    0 -0.51178197989E+02  0.61519343354E+02  0.10681042373E+03  0.13354547605E+03  0.47000000000E+01 0. -1.
        -13    1    6    6    0    0 -0.17232308855E+02  0.38912171021E+02  0.11995908880E+03  0.12728429796E+03  0.00000000000E+00 0.  1.
         14    1    6    6    0    0  0.39663474534E+02  0.13673380990E+02  0.35147776777E+03  0.35397284330E+03  0.00000000000E+00 0. -1.
         -5    1    3    3    0  503  0.74423835874E+02 -0.81822834096E+02 -0.11466571455E+03  0.15938694934E+03  0.47000000000E+01 0.  1.
         11    1    4    4    0    0  0.12858809300E+02  0.10846229906E+02 -0.50158038868E+02  0.52903861323E+02  0.00000000000E+00 0. -1.
        -12    1    4    4    0    0 -0.58535612865E+02 -0.43128291174E+02 -0.55771202403E+02  0.91634570390E+02  0.00000000000E+00 0.  1.
</event>
<event>
12    1  0.8493057E-002  0.2912298E+03  0.7818608E-02  0.1089732E+00
         21   -1    0    0  503  502  0.00000000000E+00  0.00000000000E+00  0.58304668271E+02  0.58304668271E+02  0.00000000000E+00 0. -1.
         21   -1    0    0  501  503 -0.00000000000E+00 -0.00000000000E+00 -0.19376996534E+04  0.19376996534E+04  0.00000000000E+00 0.  1.
          6    2    1    2  501    0 -0.20053613422E+03  0.12186546304E+03 -0.14382202547E+04  0.14673740691E+04  0.17217208034E+03 0.  0.
         24    2    3    3    0    0 -0.14211519822E+03  0.81121939369E+01 -0.83946375979E+03  0.85509615649E+03  0.78914482777E+02 0.  0.
         -6    2    1    2    0  502  0.20053613422E+03 -0.12186546304E+03 -0.44117473042E+03  0.52863025263E+03  0.17247860452E+03 0.  0.
        -24    2    5    5    0    0  0.15109083524E+03 -0.41463106016E+02 -0.37194035943E+03  0.41147708480E+03  0.80163150418E+02 0.  0.
          5    1    3    3  501    0 -0.58420935999E+02  0.11375326910E+03 -0.59875649494E+03  0.61227791257E+03  0.47000000000E+01 0. -1.
        -13    1    4    4    0    0 -0.41970122534E+02  0.37456557010E+02 -0.36346040996E+03  0.36778792049E+03  0.00000000000E+00 0.  1.
         14    1    4    4    0    0 -0.10014507569E+03 -0.29344363073E+02 -0.47600334982E+03  0.48730823600E+03  0.00000000000E+00 0. -1.
         -5    1    5    5    0  502  0.49445298981E+02 -0.80402357023E+02 -0.69234370994E+02  0.11715316783E+03  0.47000000000E+01 0.  1.
         13    1    6    6    0    0  0.10273535835E+03 -0.29069496045E+02 -0.15078822383E+03  0.18476113742E+03  0.00000000000E+00 0. -1.
        -14    1    6    6    0    0  0.48355476892E+02 -0.12393609970E+02 -0.22115213560E+03  0.22671594737E+03  0.00000000000E+00 0.  1.
</event>
<event>
12    1  0.8493057E-002  0.1816759E+03  0.7818608E-02  0.1166401E+00
         21   -1    0    0  503  502  0.00000000000E+00  0.00000000000E+00  0.13676925810E+04  0.13676925810E+04  0.00000000000E+00 0. -1.
         21   -1    0    0  501  503 -0.00000000000E+00 -0.00000000000E+00 -0.34169535925E+02  0.34169535925E+02  0.00000000000E+00 0. -1.
          6    2    1    2  501    0  0.42973324760E+02 -0.38166657401E+02  0.28581380361E+03  0.33866746006E+03  0.17234476433E+03 0.  0.
         24    2    3    3    0    0  0.70537630954E+02  0.19063606602E+02  0.23217299025E+03  0.25539368897E+03  0.77347659865E+02 0.  0.
         -6    2    1    2    0  502 -0.42973324760E+02  0.38166657401E+02  0.10477092415E+04  0.10631946569E+04  0.17142002029E+03 0.  0.
        -24    2    5    5    0    0 -0.56677170203E+02  0.27003361608E+02  0.34183465472E+03  0.35708316655E+03  0.81951043310E+02 0.  0.
          5    1    3    3  501    0 -0.27564306194E+02 -0.57230264003E+02  0.53640813356E+02  0.83273771089E+02  0.47000000000E+01 0. -1.
        -11    1    4    4    0    0  0.21793748205E+02 -0.30082441796E+02  0.77910792199E+02  0.86313453797E+02  0.00000000000E+00 0.  1.
         12    1    4    4    0    0  0.48743882749E+02  0.49146048398E+02  0.15426219805E+03  0.16908023517E+03  0.00000000000E+00 0. -1.
         -5    1    5    5    0  502  0.13703845443E+02  0.11163295793E+02  0.70587458678E+03  0.70611149035E+03  0.47000000000E+01 0.  1.
         11    1    6    6    0    0 -0.31011518887E+02 -0.51647146371E+01  0.28599412943E+03  0.28771692799E+03  0.00000000000E+00 0. -1.
        -12    1    6    6    0    0 -0.25665651316E+02  0.32168076245E+02  0.55840525292E+02  0.69366238558E+02  0.00000000000E+00 0.  1.
</event>
<event>
12    1  0.8493057E-002  0.1767078E+03  0.7818608E-02  0.1171667E+00
         21   -1    0    0  503  502  0.00000000000E+00  0.00000000000E+00  0.59302098619E+03  0.59302098619E+03  0.00000000000E+00 0. -1.
         21   -1    0    0  501  503 -0.00000000000E+00 -0.00000000000E+00 -0.52353355855E+02  0.52353355855E+02  0.00000000000E+00 0. -1.
          6    2    1    2  501    0  0.17613560685E+02  0.51813569343E+01  0.23820373380E+03  0.29507440248E+03  0.17317852125E+03 0.  0.
         24    2    3    3    0    0  0.11896945506E+02 -0.20526193484E+01  0.25928723975E+03  0.27158793137E+03  0.79902322908E+02 0.  0.
         -6    2    1    2    0  502 -0.17613560685E+02 -0.51813569343E+01  0.30246389654E+03  0.35029993957E+03  0.17575140106E+03 0.  0.
        -24    2    5    5    0    0 -0.69529208874E+02 -0.83750563864E+01  0.26446587027E+03  0.28571376269E+03  0.82375391954E+02 0.  0.
          5    1    3    3  501    0  0.57166151787E+01  0.72339762827E+01 -0.21083505954E+02  0.23486471112E+02  0.47000000000E+01 0. -1.
        -11    1    4    4    0    0 -0.16289439750E+02  0.29041460305E+02  0.16583056745E+03  0.16914056097E+03  0.00000000000E+00 0.  1.
         12    1    4    4    0    0  0.28186385256E+02 -0.31094079653E+02  0.93456672303E+02  0.10244737040E+03  0.00000000000E+00 0. -1.
         -5    1    5    5    0  502  0.51915648189E+02  0.31936994521E+01  0.37998026271E+02  0.64586176877E+02  0.47000000000E+01 0.  1.
         13    1    6    6    0    0 -0.22464753641E+02  0.28362658151E+02  0.17114612481E+03  0.17492884717E+03  0.00000000000E+00 0. -1.
        -14    1    6    6    0    0 -0.47064455233E+02 -0.36737714537E+02  0.93319745455E+02  0.11078491552E+03  0.00000000000E+00 0.  1.
</event>
<event>
12    1  0.8493057E-002  0.1736207E+03  0.7818608E-02  0.1174507E+00
         21   -1    0    0  503  502  0.00000000000E+00  0.00000000000E+00  0.78653039669E+02  0.78653039669E+02  0.00000000000E+00 0. -1.
         21   -1    0    0  501  503 -0.00000000000E+00 -0.00000000000E+00 -0.57994148505E+03  0.57994148505E+03  0.00000000000E+00 0. -1.
          6    2    1    2  501    0  0.51401886621E+01 -0.13000256217E+02 -0.44330894584E+03  0.47554869415E+03  0.17154681825E+03 0.  0.
         24    2    3    3    0    0  0.38666422977E+02 -0.82201505606E+00 -0.42681026704E+03  0.43596821478E+03  0.80034444327E+02 0.  0.
         -6    2    1    2    0  502 -0.51401886621E+01  0.13000256217E+02 -0.57979499548E+02  0.18304583057E+03  0.17305700078E+03 0.  0.
        -24    2    5    5    0    0 -0.54148673257E+02  0.52332814561E+02 -0.28806519304E+02  0.11360496015E+03  0.80034174706E+02 0.  0.
          5    1    3    3  501    0 -0.33526234314E+02 -0.12178241160E+02 -0.16498678798E+02  0.39580479370E+02  0.47000000000E+01 0. -1.
        -11    1    4    4    0    0 -0.72867401039E+01  0.27207728113E+02 -0.75982758624E+02  0.81035403735E+02  0.00000000000E+00 0.  1.
         12    1    4    4    0    0  0.45953163080E+02 -0.28029743169E+02 -0.35082750841E+03  0.35493281105E+03  0.00000000000E+00 0. -1.
         -5    1    5    5    0  502  0.49008484595E+02 -0.39332558344E+02 -0.29172980244E+02  0.69440870419E+02  0.47000000000E+01 0.  1.
         11    1    6    6    0    0 -0.30424611251E+02  0.71202222941E+02 -0.10359320649E+02  0.78119965731E+02  0.00000000000E+00 0. -1.
        -12    1    6    6    0    0 -0.23724062006E+02 -0.18869408380E+02 -0.18447198655E+02  0.35484994419E+02  0.00000000000E+00 0.  1.
</event>
<event>
12    1  0.8493057E-002  0.2080749E+03  0.7818608E-02  0.1143173E+00
         21   -1    0    0  503  502  0.00000000000E+00  0.00000000000E+00  0.10259545156E+03  0.10259545156E+03  0.00000000000E+00 0.  1.
         21   -1    0    0  501  503 -0.00000000000E+00 -0.00000000000E+00 -0.47901185178E+03  0.47901185178E+03  0.00000000000E+00 0.  1.
          6    2    1    2  501    0  0.60837512936E+02 -0.98872447676E+02 -0.87083039004E+02  0.22522411559E+03  0.17223670536E+03 0.  0.
         24    2    3    3    0    0  0.25921407242E+02 -0.48330248990E+02  0.22809858252E+02  0.99239246848E+02  0.79500982136E+02 0.  0.
         -6    2    1    2    0  502 -0.60837512936E+02  0.98872447676E+02 -0.28933336122E+03  0.35638318775E+03  0.17267952602E+03 0.  0.
        -24    2    5    5    0    0  0.12613346151E+02  0.39741422365E+01 -0.78199092217E+02  0.11348303002E+03  0.81169019780E+02 0.  0.
          5    1    3    3  501    0  0.34916105694E+02 -0.50542198686E+02 -0.10989289726E+03  0.12598486874E+03  0.47000000000E+01 0. -1.
        -13    1    4    4    0    0 -0.18140408567E+02 -0.32630805440E+02  0.34707096614E+02  0.50974762796E+02  0.00000000000E+00 0.  1.
         14    1    4    4    0    0  0.44061815809E+02 -0.15699443550E+02 -0.11897238362E+02  0.48264484052E+02  0.00000000000E+00 0. -1.
         -5    1    5    5    0  502 -0.73450859087E+02  0.94898305439E+02 -0.21113426900E+03  0.24290015772E+03  0.47000000000E+01 0.  1.
         11    1    6    6    0    0  0.16817786862E+02  0.25489764690E+02 -0.85169667038E+02  0.90478938114E+02  0.00000000000E+00 0. -1.
        -12    1    6    6    0    0 -0.42044407107E+01 -0.21515622453E+02  0.69705748205E+01  0.23004091909E+02  0.00000000000E+00 0.  1.
</event>
<event>
12    1  0.8493057E-002  0.2079037E+03  0.7818608E-02  0.1143345E+00
         21   -1    0    0  503  502  0.00000000000E+00  0.00000000000E+00  0.25958510458E+04  0.25958510458E+04  0.00000000000E+00 0. -1.
         21   -1    0    0  501  503 -0.00000000000E+00 -0.00000000000E+00 -0.28102213279E+02  0.28102213279E+02  0.00000000000E+00 0. -1.
          6    2    1    2  501    0 -0.85679856556E+02 -0.78972336638E+02  0.44383839225E+03  0.48989151547E+03  0.17153282695E+03 0.  0.
         24    2    3    3    0    0 -0.63537097308E+02  0.21948361217E+02  0.20262062376E+03  0.22743506027E+03  0.78440398848E+02 0.  0.
         -6    2    1    2    0  502  0.85679856556E+02  0.78972336638E+02  0.21239104403E+04  0.21340617436E+04  0.17218100786E+03 0.  0.
        -24    2    5    5    0    0  0.67353241199E+02  0.11360850118E+03  0.19315271649E+04  0.19376719695E+04  0.79574632124E+02 0.  0.
          5    1    3    3  501    0 -0.22142759247E+02 -0.10092069786E+03  0.24121776849E+03  0.26245645520E+03  0.47000000000E+01 0. -1.
        -13    1    4    4    0    0  0.56635285016E+01  0.22330735336E+02  0.10669117736E+03  0.10915010134E+03  0.00000000000E+00 0.  1.
         14    1    4    4    0    0 -0.69200625810E+02 -0.38237411866E+00  0.95929446408E+02  0.11828495894E+03  0.00000000000E+00 0. -1.
         -5    1    5    5    0  502  0.18326615357E+02 -0.34636164539E+02  0.19238327542E+03  0.19638977413E+03  0.47000000000E+01 0.  1.
         11    1    6    6    0    0  0.72823709048E+02  0.49328686858E+02  0.12537144705E+04  0.12567961591E+04  0.00000000000E+00 0. -1.
        -12    1    6    6    0    0 -0.54704678493E+01  0.64279814320E+02  0.67781269433E+03  0.68087581037E+03  0.00000000000E+00 0.  1.
</event>
<event>
12    1  0.8493057E-002  0.1839022E+03  0.7818608E-02  0.1164252E+00
         21   -1    0    0  503  502  0.00000000000E+00  0.00000000000E+00  0.24404343611E+03  0.24404343611E+03  0.00000000000E+00 0.  1.
         21   -1    0    0  501  503 -0.00000000000E+00 -0.00000000000E+00 -0.17287235476E+03  0.17287235476E+03  0.00000000000E+00 0.  1.
          6    2    1    2  501    0  0.18088407492E+02 -0.60387241352E+02 -0.57943752788E+02  0.19281464764E+03  0.17276052921E+03 0.  0.
         24    2    3    3    0    0 -0.45652995041E+02 -0.37407330309E+02 -0.73260469211E+02  0.12318897342E+03  0.79529381402E+02 0.  0.
         -6    2    1    2    0  502 -0.18088407492E+02  0.60387241352E+02  0.12911483413E+03  0.22410114323E+03  0.17197927956E+03 0.  0.
        -24    2    5    5    0    0 -0.49678131851E+02  0.30917856422E+02  0.14750325797E+03  0.17691449825E+03  0.78215714211E+02 0.  0.
          5    1    3    3  501    0  0.63741402534E+02 -0.22979911044E+02  0.15316716424E+02  0.69625674220E+02  0.47000000000E+01 0. -1.
        -11    1    4    4    0    0  0.16648684917E+02 -0.23893364718E+02 -0.45771409869E+01  0.29479175813E+02  0.00000000000E+00 0.  1.
         12    1    4    4    0    0 -0.62301679958E+02 -0.13513965591E+02 -0.68683328224E+02  0.93709797607E+02  0.00000000000E+00 0. -1.
         -5    1    5    5    0  502  0.31589724359E+02  0.29469384931E+02 -0.18388423832E+02  0.47186644978E+02  0.47000000000E+01 0.  1.
         13    1    6    6    0    0 -0.72673712384E+01  0.42626664015E+01 -0.91555012042E+01  0.12442194817E+02  0.00000000000E+00 0. -1.
        -14    1    6    6    0    0 -0.42410760613E+02  0.26655190020E+02  0.15665875917E+03  0.16447230343E+03  0.00000000000E+00 0.  1.
</event>
<event>
12    1  0.8493057E-002  0.2220844E+03  0.7818608E-02  0.1132376E+00
         21   -1    0    0  503  502  0.00000000000E+00  0.00000000000E+00  0.14571026438E+03  0.14571026438E+03  0.00000000000E+00 0. -1.
         21   -1    0    0  501  503 -0.00000000000E+00 -0.00000000000E+00 -0.50471410778E+03  0.50471410778E+03  0.00000000000E+00 0. -1.
          6    2    1    2  501    0 -0.11261641116E+03 -0.83132583701E+02 -0.36625567887E+03  0.42822156839E+03  0.17215402057E+03 0.  0.
         24    2    3    3    0    0 -0.86432048248E+02  0.35860575949E+00 -0.11718429518E+03  0.16418550314E+03  0.75855737051E+02 0.  0.
         -6    2    1    2    0  502  0.11261641116E+03  0.83132583701E+02  0.72518354667E+01  0.22220280377E+03  0.17241813811E+03 0.  0.
        -24    2    5    5    0    0  0.18488267886E+02  0.51718610380E+02  0.55171440356E+02  0.11190627794E+03  0.80389654201E+02 0.  0.
          5    1    3    3  501    0 -0.26184362913E+02 -0.83491189461E+02 -0.24907138369E+03  0.26403606525E+03  0.47000000000E+01 0. -1.
        -13    1    4    4    0    0 -0.75620408729E+02 -0.29604029209E+02 -0.69765045799E+02  0.10706076021E+03  0.00000000000E+00 0.  1.
         14    1    4    4    0    0 -0.10811639519E+02  0.29962634969E+02 -0.47419249376E+02  0.57124742929E+02  0.00000000000E+00 0. -1.
         -5    1    5    5    0  502  0.94128143275E+02  0.31413973321E+02 -0.47919604890E+02  0.11029652582E+03  0.47000000000E+01 0.  1.
         11    1    6    6    0    0  0.47949469096E+02  0.17735864001E+02  0.20347444606E+02  0.55024821312E+02  0.00000000000E+00 0. -1.
        -12    1    6    6    0    0 -0.29461201210E+02  0.33982746379E+02  0.34823995751E+02  0.56881456629E+02  0.00000000000E+00 0.  1.
</event>
<event>
12    1  0.8493057E-002  0.1983078E+03  0.7818608E-02  0.1152487E+00
         21   -1    0    0  503  502  0.00000000000E+00  0.00000000000E+00  0.62215911978E+03  0.62215911978E+03  0.00000000000E+00 0.  1.
         21   -1    0    0  501  503 -0.00000000000E+00 -0.00000000000E+00 -0.65018290243E+02  0.65018290243E+02  0.00000000000E+00 0.  1.
          6    2    1    2  501    0  0.59570653017E+02 -0.62780712882E+02  0.35672108985E+03  0.40523047666E+03  0.17167330212E+03 0.  0.
         24    2    3    3    0    0  0.10314860221E+03 -0.68945612200E+02  0.28181125292E+03  0.31822118228E+03  0.80336834643E+02 0.  0.
         -6    2    1    2    0  502 -0.59570653017E+02  0.62780712882E+02  0.20041973969E+03  0.28194693336E+03  0.17842623284E+03 0.  0.
        -24    2    5    5    0    0  0.29161260024E+01  0.54897520132E+02  0.19534328184E+03  0.21858604081E+03  0.81231877807E+02 0.  0.
          5    1    3    3  501    0 -0.43577949195E+02  0.61648993187E+01  0.74909836928E+02  0.87009294378E+02  0.47000000000E+01 0. -1.
        -11    1    4    4    0    0  0.89993356152E+01 -0.29509245960E+02  0.18875873843E+02  0.36167419758E+02  0.00000000000E+00 0.  1.
         12    1    4    4    0    0  0.94149266597E+02 -0.39436366240E+02  0.26293537908E+03  0.28205376252E+03  0.00000000000E+00 0. -1.
         -5    1    5    5    0  502 -0.62486779019E+02  0.78831927495E+01  0.50764578507E+01  0.63360892548E+02  0.47000000000E+01 0.  1.
         13    1    6    6    0    0  0.36709810146E+02  0.40902189151E+01  0.68282458795E+02  0.77632687901E+02  0.00000000000E+00 0. -1.
        -14    1    6    6    0    0 -0.33793684144E+02  0.50807301217E+02  0.12706082304E+03  0.14095335291E+03  0.00000000000E+00 0.  1.
</event>
<event>
12    1  0.8493057E-002  0.1763431E+03  0.7818608E-02  0.1171611E+00
         21   -1    0    0  503  502  0.00000000000E+00  0.00000000000E+00  0.11341507432E+04  0.11341507432E+04  0.00000000000E+00 0.  1.
         21   -1    0    0  501  503 -0.00000000000E+00 -0.00000000000E+00 -0.32852650653E+02  0.32852650653E+02  0.00000000000E+00 0.  1.
          6    2    1    2  501    0 -0.26223614559E+02  0.21319839190E+02  0.31150655915E+03  0.35795700238E+03  0.17307416230E+03 0.  0.
         24    2    3    3    0    0  0.44170454923E+02  0.11141919685E+02  0.24113654326E+03  0.25779241682E+03  0.78961548952E+02 0.  0.
         -6    2    1    2    0  502  0.26223614559E+02 -0.21319839190E+02  0.78979153338E+03  0.80904639146E+03  0.17217196006E+03 0.  0.
        -24    2    5    5    0    0  0.41625817376E+02 -0.75613070975E+02  0.59688410378E+03  0.60799826472E+03  0.77079253926E+02 0.  0.
          5    1    3    3  501    0 -0.70394069482E+02  0.10177919505E+02  0.70370015895E+02  0.10016458556E+03  0.47000000000E+01 0. -1.
        -11    1    4    4    0    0 -0.22819872602E+02  0.16357100106E+01  0.74811150387E+02  0.78231262006E+02  0.00000000000E+00 0.  1.
         12    1    4    4    0    0  0.66990327525E+02  0.95062096746E+01  0.16632539287E+03  0.17956115481E+03  0.00000000000E+00 0. -1.
         -5    1    5    5    0  502 -0.15402202818E+02  0.54293231785E+02  0.19290742960E+03  0.20104812674E+03  0.47000000000E+01 0.  1.
         13    1    6    6    0    0 -0.20504845757E+02 -0.58698510212E+01  0.14515829633E+03  0.14671685262E+03  0.00000000000E+00 0. -1.
        -14    1    6    6    0    0  0.62130663134E+02 -0.69743219954E+02  0.45172580745E+03  0.46128141210E+03  0.00000000000E+00 0.  1.
</event>
<event>
12    1  0.8493057E-002  0.1763128E+03  0.7818608E-02  0.1171728E+00
         21   -1    0    0  501  502  0.00000000000E+00  0.00000000000E+00  0.90809094514E+02  0.90809094514E+02  0.00000000000E+00 0.  1.
         21   -1    0    0  502  503 -0.00000000000E+00 -0.00000000000E+00 -0.57039237270E+03  0.57039237270E+03  0.00000000000E+00 0.  1.
         -6    2    1    2    0  503  0.19194929552E+02 -0.31831843848E+02 -0.45043688899E+03  0.48371437282E+03  0.17234991125E+03 0.  0.
        -24    2    3    3    0    0  0.41494225335E+02 -0.13588021674E+01 -0.43223872995E+03  0.44153466379E+03  0.79993265853E+02 0.  0.
          6    2    1    2  501    0 -0.19194929552E+02  0.31831843848E+02 -0.29146389190E+02  0.17748709439E+03  0.17108607502E+03 0.  0.
         24    2    5    5    0    0  0.26489833782E+01 -0.30610454517E+02  0.27622547498E+02  0.90188759179E+02  0.80168510734E+02 0.  0.
          5    1    5    5  501    0 -0.21843912930E+02  0.62442298365E+02 -0.56768936688E+02  0.87298335207E+02  0.47000000000E+01 0. -1.
        -11    1    6    6    0    0 -0.61971577550E+01  0.26932144631E+02  0.89288405888E+01  0.29042544188E+02  0.00000000000E+00 0.  1.
         12    1    6    6    0    0  0.88461411333E+01 -0.57542599148E+02  0.18693706909E+02  0.61146214991E+02  0.00000000000E+00 0. -1.
         -5    1    3    3    0  503 -0.22299295784E+02 -0.30473041681E+02 -0.18198159046E+02  0.42179709036E+02  0.47000000000E+01 0.  1.
         13    1    4    4    0    0 -0.72992300270E+01 -0.28680312419E+02 -0.22286754583E+03  0.22482389122E+03  0.00000000000E+00 0. -1.
        -14    1    4    4    0    0  0.48793455362E+02  0.27321510251E+02 -0.20937118411E+03  0.21671077256E+03  0.00000000000E+00 0.  1.
</event>
<event>
12    1  0.8493057E-002  0.2172228E+03  0.7818608E-02  0.1136236E+00
         21   -1    0    0  501  502  0.00000000000E+00  0.00000000000E+00  0.15120599151E+03  0.15120599151E+03  0.00000000000E+00 0.  1.
         21   -1    0    0  502  503 -0.00000000000E+00 -0.00000000000E+00 -0.36390551791E+03  0.36390551791E+03  0.00000000000E+00 0.  1.
         -6    2    1    2    0  503 -0.11099973301E+03 -0.68945961181E+02 -0.20512572803E+03  0.29775673243E+03  0.17177898916E+03 0.  0.
        -24    2    3    3    0    0 -0.91363273792E+02  0.77615773074E+01 -0.68204162781E+02  0.13951880391E+03  0.80038734027E+02 0.  0.
          6    2    1    2  501    0  0.11099973301E+03  0.68945961181E+02 -0.75737983734E+01  0.21735477698E+03  0.17352593571E+03 0.  0.
         24    2    5    5    0    0 -0.15650748027E+01 -0.28915154311E+02  0.19343822687E+02  0.65716120276E+02  0.55730506727E+02 0.  0.
          5    1    5    5  501    0  0.11256480781E+03  0.97861115492E+02 -0.26917621060E+02  0.15163865670E+03  0.47000000000E+01 0. -1.
        -11    1    6    6    0    0  0.17670102995E+02 -0.13660026040E+02  0.31266280647E+02  0.38424070018E+02  0.00000000000E+00 0.  1.
         12    1    6    6    0    0 -0.19235177798E+02 -0.15255128271E+02 -0.11922457960E+02  0.27292050258E+02  0.00000000000E+00 0. -1.
         -5    1    3    3    0  503 -0.19636459219E+02 -0.76707538489E+02 -0.13692156525E+03  0.15823792852E+03  0.47000000000E+01 0.  1.
         11    1    4    4    0    0 -0.64073065689E+02  0.17501876357E+02 -0.11042241117E+01  0.66429607358E+02  0.00000000000E+00 0. -1.
        -12    1    4    4    0    0 -0.27290208103E+02 -0.97402990495E+01 -0.67099938669E+02  0.73089196556E+02  0.00000000000E+00 0.  1.
</event>
<event>
12    1  0.8493057E-002  0.1848321E+03  0.7818608E-02  0.1163314E+00
         21   -1    0    0  501  502  0.00000000000E+00  0.00000000000E+00  0.70975344210E+03  0.70975344210E+03  0.00000000000E+00 0.  1.
         21   -1    0    0  502  503 -0.00000000000E+00 -0.00000000000E+00 -0.15997575160E+03  0.15997575160E+03  0.00000000000E+00 0.  1.
         -6    2    1    2    0  503 -0.40896487406E+02 -0.54494695921E+02 -0.89011673631E+02  0.20473689755E+03  0.17132403396E+03 0.  0.
        -24    2    3    3    0    0 -0.76022385513E+02  0.29229729550E+01 -0.33671740007E+02  0.11747169446E+03  0.82932900918E+02 0.  0.
          6    2    1    2  501    0  0.40896487406E+02  0.54494695921E+02  0.63878936413E+03  0.66499229614E+03  0.17181591206E+03 0.  0.
         24    2    5    5    0    0  0.34412118830E+02  0.44007873738E+02  0.16574233072E+03  0.19176126769E+03  0.78619187984E+02 0.  0.
          5    1    5    5  501    0  0.64843685761E+01  0.10486822182E+02  0.47304703341E+03  0.47323102846E+03  0.47000000000E+01 0. -1.
        -11    1    6    6    0    0 -0.33103926269E+00 -0.19721219729E+02  0.62638244884E+02  0.65670281077E+02  0.00000000000E+00 0.  1.
         12    1    6    6    0    0  0.34743158093E+02  0.63729093467E+02  0.10310408584E+03  0.12609098661E+03  0.00000000000E+00 0. -1.
         -5    1    3    3    0  503  0.35125898107E+02 -0.57417668876E+02 -0.55339933624E+02  0.87265203091E+02  0.47000000000E+01 0.  1.
         11    1    4    4    0    0  0.12300094313E+02  0.16581645298E+02  0.30109011018E+01  0.20864055367E+02  0.00000000000E+00 0. -1.
        -12    1    4    4    0    0 -0.88322479827E+02 -0.13658672343E+02 -0.36682641109E+02  0.96607639096E+02  0.00000000000E+00 0.  1.
</event>
<event>
12    1  0.8493057E-002  0.1900598E+03  0.7818608E-02  0.1158994E+00
         21   -1    0    0  503  502  0.00000000000E+00  0.00000000000E+00  0.70081897874E+02  0.70081897874E+02  0.00000000000E+00 0. -1.
         21   -1    0    0  501  503 -0.00000000000E+00 -0.00000000000E+00 -0.52148226500E+03  0.52148226500E+03  0.00000000000E+00 0. -1.
          6    2    1    2  501    0 -0.78189964862E+02  0.15270578523E+00 -0.27394939798E+03  0.33342313252E+03  0.17323111361E+03 0.  0.
         24    2    3    3    0    0 -0.91495231012E+02  0.50121988052E+02 -0.14828922859E+03  0.19745796254E+03  0.78207165087E+02 0.  0.
         -6    2    1    2    0  502  0.78189964862E+02 -0.15270578523E+00 -0.17745096915E+03  0.25814103035E+03  0.17039439890E+03 0.  0.
        -24    2    5    5    0    0  0.11408751975E+03  0.24676367616E+02 -0.15933399626E+03  0.21064964124E+03  0.73219285078E+02 0.  0.
          5    1    3    3  501    0  0.13305266150E+02 -0.49969282266E+02 -0.12566016938E+03  0.13596516998E+03  0.47000000000E+01 0. -1.
        -11    1    4    4    0    0  0.13652737408E+02  0.41759185831E+01 -0.85455108424E+01  0.16639149326E+02  0.00000000000E+00 0.  1.
         12    1    4    4    0    0 -0.10514796842E+03  0.45946069468E+02 -0.13974371775E+03  0.18081881322E+03  0.00000000000E+00 0. -1.
         -5    1    5    5    0  502 -0.35897554893E+02 -0.24829073401E+02 -0.18116972888E+02  0.47491389113E+02  0.47000000000E+01 0.  1.
         11    1    6    6    0    0  0.93636621040E+02  0.23877902999E+02 -0.70834527215E+02  0.11981444528E+03  0.00000000000E+00 0. -1.
        -12    1    6    6    0    0  0.20450898715E+02  0.79846461617E+00 -0.88499469047E+02  0.90835195963E+02  0.00000000000E+00 0.  1.
</event>
<event>
12    1  0.8493057E-002  0.1960122E+03  0.7818608E-02  0.1153323E+00
         21   -1    0    0  501  502  0.00000000000E+00  0.00000000000E+00  0.59715370486E+03  0.59715370486E+03  0.00000000000E+00 0.  1.
         21   -1    0    0  502  503 -0.00000000000E+00 -0.00000000000E+00 -0.64498534743E+02  0.64498534743E+02  0.00000000000E+00 0.  1.
         -6    2    1    2    0  503  0.35962725747E+02 -0.85317133974E+02  0.23895211463E+03  0.30854847989E+03  0.17184795710E+03 0.  0.
        -24    2    3    3    0    0  0.49777503298E+02 -0.12177310656E+03  0.20093874290E+03  0.25389509531E+03  0.82339854909E+02 0.  0.
          6    2    1    2  501    0 -0.35962725747E+02  0.85317133974E+02  0.29370305549E+03  0.35310375972E+03  0.17276703775E+03 0.  0.
         24    2    5    5    0    0  0.13568987190E+02  0.10971010221E+03  0.23480133202E+03  0.27223404652E+03  0.82214880807E+02 0.  0.
          5    1    5    5  501    0 -0.49531712936E+02 -0.24392968237E+02  0.58901723467E+02  0.80869713201E+02  0.47000000000E+01 0. -1.
        -13    1    6    6    0    0 -0.41303641619E+01  0.70466765848E+01 -0.58195275952E+01  0.10029080737E+02  0.00000000000E+00 0.  1.
         14    1    6    6    0    0  0.17699351351E+02  0.10266342563E+03  0.24062085961E+03  0.26220496578E+03  0.00000000000E+00 0. -1.
         -5    1    3    3    0  503 -0.13814777551E+02  0.36455972582E+02  0.38013371733E+02  0.54653384582E+02  0.47000000000E+01 0.  1.
         11    1    4    4    0    0  0.23937117947E+02 -0.14221960452E+02  0.10118570548E+03  0.10494663772E+03  0.00000000000E+00 0. -1.
        -12    1    4    4    0    0  0.25840385351E+02 -0.10755114610E+03  0.99753037424E+02  0.14894845759E+03  0.00000000000E+00 0.  1.
</event>
<event>
12    1  0.8493057E-002  0.2159052E+03  0.7818608E-02  0.1138286E+00
         21   -1    0    0  503  502  0.00000000000E+00  0.00000000000E+00  0.25640708358E+03  0.25640708358E+03  0.00000000000E+00 0.  1.
         21   -1    0    0  501  503 -0.00000000000E+00 -0.00000000000E+00 -0.71764258361E+03  0.71764258361E+03  0.00000000000E+00 0.  1.
          6    2    1    2  501    0  0.98478646990E+02 -0.81544062429E+02 -0.65455489520E+03  0.68924391082E+03  0.17397580217E+03 0.  0.
         24    2    3    3    0    0  0.18141720263E+02 -0.82149517897E+02 -0.21118497577E+03  0.23862948159E+03  0.72575961515E+02 0.  0.
         -6    2    1    2    0  502 -0.98478646990E+02  0.81544062429E+02  0.19331939517E+03  0.28480575637E+03  0.16551269524E+03 0.  0.
        -24    2    5    5    0    0 -0.12083907055E+03  0.37884130578E+02  0.10090999897E+03  0.18007866009E+03  0.78792179853E+02 0.  0.
          5    1    3    3  501    0  0.80336926728E+02  0.60545546743E+00 -0.44336991943E+03  0.45061442922E+03  0.47000000000E+01 0. -1.
        -11    1    4    4    0    0  0.45732904066E+02 -0.54790848738E+02 -0.12189096547E+03  0.14124780736E+03  0.00000000000E+00 0.  1.
         12    1    4    4    0    0 -0.27591183803E+02 -0.27358669158E+02 -0.89294010295E+02  0.97381674233E+02  0.00000000000E+00 0. -1.
         -5    1    5    5    0  502  0.22360423559E+02  0.43659931852E+02  0.92409396191E+02  0.10472709628E+03  0.47000000000E+01 0.  1.
         11    1    6    6    0    0 -0.11383705987E+01 -0.69745246749E+00 -0.11392640751E+02  0.11470596795E+02  0.00000000000E+00 0. -1.
        -12    1    6    6    0    0 -0.11970069995E+03  0.38581583045E+02  0.11230263973E+03  0.16860806330E+03  0.00000000000E+00 0.  1.
</event>
<event>
12    1  0.8493057E-002  0.1788891E+03  0.7818608E-02  0.1169254E+00
         21   -1    0    0  501  502  0.00000000000E+00  0.00000000000E+00  0.32742612901E+03  0.32742612901E+03  0.00000000000E+00 0.  1.
         21   -1    0    0  502  503 -0.00000000000E+00 -0.00000000000E+00 -0.11251297709E+03  0.11251297709E+03  0.00000000000E+00 0.  1.
         -6    2    1    2    0  503 -0.35818669700E+02  0.22923067446E+02  0.25145149286E+02  0.17914567521E+03  0.17219886844E+03 0.  0.
        -24    2    3    3    0    0  0.41235859592E+02  0.11367169329E+02 -0.10283753062E+02  0.93423820426E+02  0.82417510221E+02 0.  0.
          6    2    1    2  501    0  0.35818669700E+02 -0.22923067446E+02  0.18976800264E+03  0.26079343089E+03  0.17376096987E+03 0.  0.
         24    2    5    5    0    0  0.24151961659E+02  0.54224449894E+02  0.10198108599E+03  0.14324988899E+03  0.81220567451E+02 0.  0.
          5    1    5    5  501    0  0.11666708041E+02 -0.77147517340E+02  0.87786916650E+02  0.11754354190E+03  0.47000000000E+01 0. -1.
        -11    1    6    6    0    0  0.10364844457E+02  0.51149100099E+02  0.11356431829E+03  0.12498205804E+03  0.00000000000E+00 0.  1.
         12    1    6    6    0    0  0.13787117202E+02  0.30753497946E+01 -0.11583232303E+02  0.18267830952E+02  0.00000000000E+00 0. -1.
         -5    1    3    3    0  503 -0.77054529292E+02  0.11555898116E+02  0.35428902349E+02  0.85721854782E+02  0.47000000000E+01 0.  1.
         11    1    4    4    0    0  0.55255921092E+02 -0.50669893215E+01  0.17544351824E+02  0.58195321783E+02  0.00000000000E+00 0. -1.
        -12    1    4    4    0    0 -0.14020061500E+02  0.16434158651E+02 -0.27828104887E+02  0.35228498643E+02  0.00000000000E+00 0.  1.
</event>
<event>
12    1  0.8493057E-002  0.1980710E+03  0.7818608E-02  0.1151421E+00
         21   -1    0    0  501  502  0.00000000000E+00  0.00000000000E+00  0.43065994636E+03  0.43065994636E+03  0.00000000000E+00 0.  1.
         21   -1    0    0  502  503 -0.00000000000E+00 -0.00000000000E+00 -0.91607505052E+02  0.91607505052E+02  0.00000000000E+00 0.  1.
         -6    2    1    2    0  503 -0.10704436996E+02  0.97041077418E+02  0.19066603225E+03  0.27477879783E+03  0.17209966938E+03 0.  0.
        -24    2    3    3    0    0 -0.49457094794E+02  0.21459888853E+02  0.15500398472E+03  0.18253913073E+03  0.79923512906E+02 0.  0.
          6    2    1    2  501    0  0.10704436996E+02 -0.97041077418E+02  0.14838640905E+03  0.24748865358E+03  0.17233847969E+03 0.  0.
         24    2    5    5    0    0 -0.39227594922E+02 -0.22650189766E+02  0.12411441381E+03  0.15454548961E+03  0.80175341235E+02 0.  0.
          5    1    5    5  501    0  0.49932031918E+02 -0.74390887652E+02  0.24271995243E+02  0.92943163977E+02  0.47000000000E+01 0. -1.
        -13    1    6    6    0    0 -0.26770194927E+02 -0.52439341374E+01 -0.13074085496E+01  0.27310281924E+02  0.00000000000E+00 0.  1.
         14    1    6    6    0    0 -0.12457399995E+02 -0.17406255628E+02  0.12542182236E+03  0.12723520768E+03  0.00000000000E+00 0. -1.
         -5    1    3    3    0  503  0.38752657798E+02  0.75581188565E+02  0.35662047535E+02  0.92239667095E+02  0.47000000000E+01 0.  1.
         13    1    4    4    0    0 -0.39715390628E+02 -0.25588546182E+02  0.90709267096E+02  0.10227539824E+03  0.00000000000E+00 0. -1.
        -14    1    4    4    0    0 -0.97417041664E+01  0.47048435035E+02  0.64294717619E+02  0.80263732489E+02  0.00000000000E+00 0.  1.
</event>
<event>
12    1  0.8493057E-002  0.2147905E+03  0.7818608E-02  0.1138019E+00
         21   -1    0    0  503  502  0.00000000000E+00  0.00000000000E+00  0.76467406443E+02  0.76467406443E+02  0.00000000000E+00 0.  1.
         21   -1    0    0  501  503 -0.00000000000E+00 -0.00000000000E+00 -0.82765503774E+03  0.82765503774E+03  0.00000000000E+00 0.  1.
          6    2    1    2  501    0 -0.66003189712E+02  0.10971805418E+03 -0.61303528878E+03  0.64957465851E+03  0.17245433951E+03 0.  0.
         24    2    3    3    0    0  0.11642927034E+02  0.33717934630E+02 -0.14751302674E+03  0.17151817223E+03  0.79912035892E+02 0.  0.
         -6    2    1    2    0  502  0.66003189712E+02 -0.10971805418E+03 -0.13815234251E+03  0.25454778567E+03  0.17121341357E+03 0.  0.
        -24    2    5    5    0    0 -0.60804781431E+01 -0.12554399030E+02 -0.94065682625E+02  0.12569688489E+03  0.82199568574E+02 0.  0.
          5    1    3    3  501    0 -0.77646116746E+02  0.76000119546E+02 -0.46552226204E+03  0.47805648628E+03  0.47000000000E+01 0. -1.
        -13    1    4    4    0    0 -0.43071497532E+01  0.27692103519E+02 -0.15144837641E+03  0.15401952751E+03  0.00000000000E+00 0.  1.
         14    1    4    4    0    0  0.15950076788E+02  0.60258311108E+01  0.39353496674E+01  0.17498644722E+02  0.00000000000E+00 0. -1.
         -5    1    5    5    0  502  0.72083667855E+02 -0.97163655145E+02 -0.44086659885E+02  0.12885090078E+03  0.47000000000E+01 0.  1.
         11    1    6    6    0    0 -0.15410138553E+02 -0.31902604654E+01  0.11383444238E+02  0.19422485288E+02  0.00000000000E+00 0. -1.
        -12    1    6    6    0    0  0.93296604097E+01 -0.93641385651E+01 -0.10544912686E+03  0.10627439960E+03  0.00000000000E+00 0.  1.
</event>
<event>
12    1  0.8493057E-002  0.3439178E+03  0.7818608E-02  0.1065498E+00
         21   -1    0    0  501  502  0.00000000000E+00  0.00000000000E+00  0.65886810663E+03  0.65886810663E+03  0.00000000000E+00 0.  1.
         21   -1    0    0  502  503 -0.00000000000E+00 -0.00000000000E+00 -0.18386577097E+03  0.18386577097E+03  0.00000000000E+00 0. -1.
         -6    2    1    2    0  503  0.61879160524E+02  0.28732093080E+03  0.16179835559E+03  0.38007651960E+03  0.17859760663E+03 0.  0.
        -24    2    3    3    0    0 -0.13041563714E+02  0.23990250317E+03  0.10004187058E+03  0.27192118852E+03  0.78800149015E+02 0.  0.
          6    2    1    2  501    0 -0.61879160524E+02 -0.28732093080E+03  0.31320398007E+03  0.46265735800E+03  0.17196729340E+03 0.  0.
         24    2    5    5    0    0 -0.60259522943E+02 -0.86317502348E+02  0.17213697716E+03  0.21704182350E+03  0.79963072280E+02 0.  0.
          5    1    5    5  501    0 -0.16196375802E+01 -0.20100342845E+03  0.14106700292E+03  0.24561553450E+03  0.47000000000E+01 0. -1.
        -13    1    6    6    0    0 -0.42890371475E+02 -0.74324971342E+02  0.17579395849E+03  0.19562029846E+03  0.00000000000E+00 0.  1.
         14    1    6    6    0    0 -0.17369151468E+02 -0.11992531006E+02 -0.36569813302E+01  0.21421525041E+02  0.00000000000E+00 0. -1.
         -5    1    3    3    0  503  0.74920724237E+02  0.47418427626E+02  0.61756485013E+02  0.10815533108E+03  0.47000000000E+01 0.  1.
         11    1    4    4    0    0 -0.23071676619E+02  0.40667712751E+02  0.45201463581E+02  0.65033356305E+02  0.00000000000E+00 0. -1.
        -12    1    4    4    0    0  0.10030112905E+02  0.19923479042E+03  0.54840406999E+02  0.20688783222E+03  0.00000000000E+00 0.  1.
</event>
<event>
12    1  0.8493057E-002  0.2351920E+03  0.7818608E-02  0.1123074E+00
         21   -1    0    0  501  502  0.00000000000E+00  0.00000000000E+00  0.77403370309E+03  0.77403370309E+03  0.00000000000E+00 0.  1.
         21   -1    0    0  502  503 -0.00000000000E+00 -0.00000000000E+00 -0.80024121393E+02  0.80024121393E+02  0.00000000000E+00 0.  1.
         -6    2    1    2    0  503 -0.37441193734E+02 -0.15581321110E+03  0.48734119291E+03  0.54112540012E+03  0.17215011069E+03 0.  0.
        -24    2    3    3    0    0  0.31546706388E+02 -0.66978735741E+02  0.15342432905E+03  0.18874285750E+03  0.81261896287E+02 0.  0.
          6    2    1    2  501    0  0.37441193734E+02  0.15581321110E+03  0.20666838879E+03  0.31293242436E+03  0.17185831242E+03 0.  0.
         24    2    5    5    0    0 -0.17347720617E+01  0.84193427544E+02  0.32819272512E+02  0.12081330786E+03  0.80169869855E+02 0.  0.
          5    1    5    5  501    0  0.39175965796E+02  0.71619783561E+02  0.17384911628E+03  0.19211911650E+03  0.47000000000E+01 0. -1.
        -11    1    6    6    0    0  0.16685793147E+02  0.15318733078E+02 -0.21463338687E+02  0.31205034588E+02  0.00000000000E+00 0.  1.
         12    1    6    6    0    0 -0.18420565208E+02  0.68874694466E+02  0.54282611199E+02  0.89608273273E+02  0.00000000000E+00 0. -1.
         -5    1    3    3    0  503 -0.68987900122E+02 -0.88834475363E+02  0.33391686385E+03  0.35238254262E+03  0.47000000000E+01 0.  1.
         13    1    4    4    0    0  0.25525211709E+02  0.13738343185E+02  0.40978499646E+02  0.50194780002E+02  0.00000000000E+00 0. -1.
        -14    1    4    4    0    0  0.60214946791E+01 -0.80717078926E+02  0.11244582941E+03  0.13854807750E+03  0.00000000000E+00 0.  1.
</event>
<event>
12    1  0.8493057E-002  0.2183347E+03  0.7818608E-02  0.1135251E+00
         21   -1    0    0  501  502  0.00000000000E+00  0.00000000000E+00  0.20428106763E+03  0.20428106763E+03  0.00000000000E+00 0. -1.
         21   -1    0    0  502  503 -0.00000000000E+00 -0.00000000000E+00 -0.25320690554E+03  0.25320690554E+03  0.00000000000E+00 0. -1.
         -6    2    1    2    0  503  0.68450650548E+02 -0.11621504701E+03 -0.89571189860E+02  0.23540218302E+03  0.17087937560E+03 0.  0.
        -24    2    3    3    0    0  0.24641116593E+02  0.41120547611E+01 -0.81571673514E+01  0.83585781577E+02  0.79347021881E+02 0.  0.
          6    2    1    2  501    0 -0.68450650548E+02  0.11621504701E+03  0.40645351948E+02  0.22208579015E+03  0.17169340361E+03 0.  0.
         24    2    5    5    0    0  0.19966965019E+02  0.31603910657E+02 -0.52689927287E+01  0.91292303375E+02  0.83120608216E+02 0.  0.
          5    1    5    5  501    0 -0.88417615567E+02  0.84611136349E+02  0.45914344676E+02  0.13079348678E+03  0.47000000000E+01 0. -1.
        -13    1    6    6    0    0 -0.75200847791E+01  0.49678994544E+02  0.15264576448E+02  0.52512488687E+02  0.00000000000E+00 0.  1.
         14    1    6    6    0    0  0.27487049799E+02 -0.18075083887E+02 -0.20533569176E+02  0.38779814688E+02  0.00000000000E+00 0. -1.
         -5    1    3    3    0  503  0.43809533955E+02 -0.12032710177E+03 -0.81414022508E+02  0.15181640144E+03  0.47000000000E+01 0.  1.
         13    1    4    4    0    0  0.83459532973E+01 -0.15701016872E+02  0.31606625027E+02  0.36265074284E+02  0.00000000000E+00 0. -1.
        -14    1    4    4    0    0  0.16295163295E+02  0.19813071633E+02 -0.39763792378E+02  0.47320707293E+02  0.00000000000E+00 0.  1.
</event>
<event>
12    1  0.8493057E-002  0.2199899E+03  0.7818608E-02  0.1134117E+00
         21   -1    0    0  503  502  0.00000000000E+00  0.00000000000E+00  0.28947347849E+03  0.28947347849E+03  0.00000000000E+00 0. -1.
         21   -1    0    0  501  503 -0.00000000000E+00 -0.00000000000E+00 -0.21476313219E+03  0.21476313219E+03  0.00000000000E+00 0. -1.
          6    2    1    2  501    0  0.10616923690E+03  0.83980148244E+02 -0.82373608138E+02  0.23490628996E+03  0.17340986587E+03 0.  0.
         24    2    3    3    0    0  0.80851299776E+02  0.26150730582E+02  0.13933848928E+02  0.11965675298E+03  0.83083048824E+02 0.  0.
         -6    2    1    2    0  502 -0.10616923690E+03 -0.83980148244E+02  0.15708395444E+03  0.26933032072E+03  0.17186878935E+03 0.  0.
        -24    2    5    5    0    0 -0.10710251377E+03 -0.71144273789E+02  0.18620835088E+03  0.23714412575E+03  0.70931870796E+02 0.  0.
          5    1    3    3  501    0  0.25317937120E+02  0.57829417663E+02 -0.96307457066E+02  0.11524953698E+03  0.47000000000E+01 0. -1.
        -13    1    4    4    0    0 -0.15713257322E+02 -0.29402085228E+01  0.97373980241E+01  0.18718124962E+02  0.00000000000E+00 0.  1.
         14    1    4    4    0    0  0.96564557098E+02  0.29090939104E+02  0.41964509036E+01  0.10093862802E+03  0.00000000000E+00 0. -1.
         -5    1    5    5    0  502  0.93327687502E+00 -0.12835874455E+02 -0.29124396433E+02  0.32186194965E+02  0.47000000000E+01 0.  1.
         11    1    6    6    0    0 -0.59402985839E+02 -0.59822715258E+01  0.46103413499E+02  0.75432267867E+02  0.00000000000E+00 0. -1.
        -12    1    6    6    0    0 -0.47699527931E+02 -0.65162002264E+02  0.14010493738E+03  0.16171185789E+03  0.00000000000E+00 0.  1.
</event>
<event>
12    1  0.8493057E-002  0.2385891E+03  0.7818608E-02  0.1120937E+00
         21   -1    0    0  501  502  0.00000000000E+00  0.00000000000E+00  0.44163847302E+03  0.44163847302E+03  0.00000000000E+00 0.  1.
         21   -1    0    0  502  503 -0.00000000000E+00 -0.00000000000E+00 -0.33867659182E+03  0.33867659182E+03  0.00000000000E+00 0. -1.
         -6    2    1    2    0  503 -0.22848284883E+02  0.16275432648E+03 -0.25600612866E+03  0.34994838604E+03  0.17295583272E+03 0.  0.
        -24    2    3    3    0    0 -0.70242240689E+02  0.67108066253E+02 -0.93916463186E+02  0.15581043562E+03  0.77583019124E+02 0.  0.
          6    2    1    2  501    0  0.22848284883E+02 -0.16275432648E+03  0.35896800985E+03  0.43036667880E+03  0.17130800103E+03 0.  0.
         24    2    5    5    0    0  0.48624314361E+02 -0.89680237144E+02  0.31635381222E+03  0.34180999601E+03  0.79671010948E+02 0.  0.
          5    1    5    5  501    0 -0.25776029478E+02 -0.73074089333E+02  0.42614197638E+02  0.88556682795E+02  0.47000000000E+01 0. -1.
        -11    1    6    6    0    0  0.50019520405E+02 -0.89452927244E+02  0.19365293641E+03  0.21910097762E+03  0.00000000000E+00 0.  1.
         12    1    6    6    0    0 -0.13952060438E+01 -0.22730989987E+00  0.12270087581E+03  0.12270901839E+03  0.00000000000E+00 0. -1.
         -5    1    3    3    0  503  0.47393955805E+02  0.95646260223E+02 -0.16208966547E+03  0.19413795042E+03  0.47000000000E+01 0.  1.
         11    1    4    4    0    0 -0.50218618747E+02  0.63261807504E+02 -0.10510260156E+03  0.13255384873E+03  0.00000000000E+00 0. -1.
        -12    1    4    4    0    0 -0.20023621942E+02  0.38462587495E+01  0.11186138374E+02  0.23256586890E+02  0.00000000000E+00 0.  1.
</event>
<event>
12    1  0.8493057E-002  0.2020220E+03  0.7818608E-02  0.1148213E+00
         21   -1    0    0  501  502  0.00000000000E+00  0.00000000000E+00  0.30100841290E+03  0.30100841290E+03  0.00000000000E+00 0.  1.
         21   -1    0    0  502  503 -0.00000000000E+00 -0.00000000000E+00 -0.15407044507E+03  0.15407044507E+03  0.00000000000E+00 0.  1.
         -6    2    1    2    0  503 -0.42671520822E+02  0.97455556113E+02 -0.66172166374E+01  0.20132289340E+03  0.17078839465E+03 0.  0.
        -24    2    3    3    0    0  0.11062651468E+02  0.38806723375E+02  0.50088799844E+02  0.10352356233E+03  0.81116558428E+02 0.  0.
          6    2    1    2  501    0  0.42671520822E+02 -0.97455556113E+02  0.15355518447E+03  0.25375596457E+03  0.17173948519E+03 0.  0.
         24    2    5    5    0    0  0.11247189196E+02 -0.63737307943E+02  0.17660905753E+03  0.20200676225E+03  0.73668372473E+02 0.  0.
          5    1    5    5  501    0  0.31424331626E+02 -0.33718248170E+02 -0.23053873066E+02  0.51749202324E+02  0.47000000000E+01 0. -1.
        -11    1    6    6    0    0 -0.62559004348E+01 -0.22927240129E+02  0.44057689411E+01  0.24170341953E+02  0.00000000000E+00 0.  1.
         12    1    6    6    0    0  0.17503089631E+02 -0.40810067814E+02  0.17220328859E+03  0.17783642030E+03  0.00000000000E+00 0. -1.
         -5    1    3    3    0  503 -0.53734172291E+02  0.58648832739E+02 -0.56706016481E+02  0.97799331074E+02  0.47000000000E+01 0.  1.
         11    1    4    4    0    0  0.20139070974E+02 -0.17415651379E+02  0.36142294196E+02  0.44890450237E+02  0.00000000000E+00 0. -1.
        -12    1    4    4    0    0 -0.90764195060E+01  0.56222374754E+02  0.13946505647E+02  0.58633112094E+02  0.00000000000E+00 0.  1.
</event>
<event>
12    1  0.8493057E-002  0.2904607E+03  0.7818608E-02  0.1090336E+00
         21   -1    0    0  503  502  0.00000000000E+00  0.00000000000E+00  0.10207804241E+03  0.10207804241E+03  0.00000000000E+00 0.  1.
         21   -1    0    0  501  503 -0.00000000000E+00 -0.00000000000E+00 -0.82853907570E+03  0.82853907570E+03  0.00000000000E+00 0. -1.
          6    2    1    2  501    0 -0.64436313407E+02  0.22502458606E+03 -0.40483271721E+03  0.49724407188E+03  0.16903856154E+03 0.  0.
         24    2    3    3    0    0 -0.69369103485E+02  0.20280394785E+03 -0.24375056721E+03  0.33449383924E+03  0.80810121209E+02 0.  0.
         -6    2    1    2    0  502  0.64436313407E+02 -0.22502458606E+03 -0.32162831608E+03  0.43337304622E+03  0.17198639676E+03 0.  0.
        -24    2    5    5    0    0 -0.97564453080E+01 -0.16514256365E+03 -0.15216970094E+03  0.23887694266E+03  0.80866070130E+02 0.  0.
          5    1    3    3  501    0  0.49327900777E+01  0.22220638210E+02 -0.16108214999E+03  0.16275023265E+03  0.47000000000E+01 0. -1.
        -13    1    4    4    0    0 -0.45826422731E+02  0.15461039025E+03 -0.22671693227E+03  0.27821754289E+03  0.00000000000E+00 0.  1.
         14    1    4    4    0    0 -0.23542680753E+02  0.48193557600E+02 -0.17033634941E+02  0.56276296347E+02  0.00000000000E+00 0. -1.
         -5    1    5    5    0  502  0.74192758715E+02 -0.59882022412E+02 -0.16945861514E+03  0.19449610356E+03  0.47000000000E+01 0.  1.
         11    1    6    6    0    0 -0.25447658941E+02 -0.14522185889E+02 -0.43653774671E+02  0.52574987129E+02  0.00000000000E+00 0. -1.
        -12    1    6    6    0    0  0.15691213633E+02 -0.15062037776E+03 -0.10851592627E+03  0.18630195553E+03  0.00000000000E+00 0.  1.
</event>
<event>
12    1  0.8493057E-002  0.1745557E+03  0.7818608E-02  0.1173404E+00
         21   -1    0    0  501  502  0.00000000000E+00  0.00000000000E+00  0.17805044588E+03  0.17805044588E+03  0.00000000000E+00 0.  1.
         21   -1    0    0  502  503 -0.00000000000E+00 -0.00000000000E+00 -0.17343671117E+03  0.17343671117E+03  0.00000000000E+00 0. -1.
         -6    2    1    2    0  503 -0.11935863770E+02  0.30594496940E+02 -0.21495308018E+02  0.17587420065E+03  0.17143861321E+03 0.  0.
        -24    2    3    3    0    0  0.48953650886E+02 -0.11244436892E+01 -0.44006133340E+02  0.10346942562E+03  0.79822665696E+02 0.  0.
          6    2    1    2  501    0  0.11935863770E+02 -0.30594496940E+02  0.26109042727E+02  0.17561295641E+03  0.17052782840E+03 0.  0.
         24    2    5    5    0    0 -0.42792023713E+02  0.37642687155E+02  0.12409006022E+02  0.86949345119E+02  0.64483145058E+02 0.  0.
          5    1    5    5  501    0  0.54727887483E+02 -0.68237184094E+02  0.13700036705E+02  0.88663611291E+02  0.47000000000E+01 0. -1.
        -13    1    6    6    0    0 -0.59160349807E+02  0.23720118341E+02  0.14475707915E+02  0.65361587519E+02  0.00000000000E+00 0.  1.
         14    1    6    6    0    0  0.16368326094E+02  0.13922568814E+02 -0.20667018935E+01  0.21587757600E+02  0.00000000000E+00 0. -1.
         -5    1    3    3    0  503 -0.60889514656E+02  0.31718940629E+02  0.22510825323E+02  0.72404775025E+02  0.47000000000E+01 0.  1.
         13    1    4    4    0    0  0.36101585418E+02  0.37997474997E+02 -0.26369035760E+02  0.58672469036E+02  0.00000000000E+00 0. -1.
        -14    1    4    4    0    0  0.12852065468E+02 -0.39121918686E+02 -0.17637097581E+02  0.44796956588E+02  0.00000000000E+00 0.  1.
</event>
<event>
12    1  0.8493057E-002  0.2024514E+03  0.7818608E-02  0.1148757E+00
         21   -1    0    0  501  502  0.00000000000E+00  0.00000000000E+00  0.47694556408E+02  0.47694556408E+02  0.00000000000E+00 0.  1.
         21   -1    0    0  502  503 -0.00000000000E+00 -0.00000000000E+00 -0.92737022308E+03  0.92737022308E+03  0.00000000000E+00 0.  1.
         -6    2    1    2    0  503 -0.97732956691E+01  0.10697895305E+03 -0.59630075610E+03  0.62973101978E+03  0.17159997622E+03 0.  0.
        -24    2    3    3    0    0 -0.65699335390E+02  0.83785015460E+02 -0.32646547205E+03  0.35314676285E+03  0.82441495530E+02 0.  0.
          6    2    1    2  501    0  0.97732956691E+01 -0.10697895305E+03 -0.28337491057E+03  0.34533375971E+03  0.16557189360E+03 0.  0.
         24    2    5    5    0    0  0.66434722540E+02 -0.81053381779E+02 -0.22299165720E+03  0.25843796103E+03  0.77985110519E+02 0.  0.
          5    1    5    5  501    0 -0.56661426871E+02 -0.25925571275E+02 -0.60383253368E+02  0.86895798680E+02  0.47000000000E+01 0. -1.
        -11    1    6    6    0    0 -0.17461034825E+02 -0.21504126739E+02 -0.50296936019E+02  0.57420353333E+02  0.00000000000E+00 0.  1.
         12    1    6    6    0    0  0.83895757365E+02 -0.59549255040E+02 -0.17269472118E+03  0.20101760770E+03  0.00000000000E+00 0. -1.
         -5    1    3    3    0  503  0.55926039721E+02  0.23193937595E+02 -0.26983528405E+03  0.27658425692E+03  0.47000000000E+01 0.  1.
         13    1    4    4    0    0 -0.74685812357E+02  0.31180179418E+02 -0.20916331337E+03  0.22427542401E+03  0.00000000000E+00 0. -1.
        -14    1    4    4    0    0  0.89864769663E+01  0.52604836042E+02 -0.11730215869E+03  0.12887133885E+03  0.00000000000E+00 0.  1.
</event>
<event>
12    1  0.8493057E-002  0.1958379E+03  0.7818608E-02  0.1153672E+00
         21   -1    0    0  501  502  0.00000000000E+00  0.00000000000E+00  0.85769705811E+02  0.85769705811E+02  0.00000000000E+00 0.  1.
         21   -1    0    0  502  503 -0.00000000000E+00 -0.00000000000E+00 -0.53998860010E+03  0.53998860010E+03  0.00000000000E+00 0. -1.
         -6    2    1    2    0  503  0.40077415903E+02 -0.83351594652E+02 -0.36035905119E+03  0.41013549575E+03  0.17262326467E+03 0.  0.
        -24    2    3    3    0    0  0.20063177574E+02  0.17219240191E+02 -0.22191924501E+03  0.23779068878E+03  0.81223315840E+02 0.  0.
          6    2    1    2  501    0 -0.40077415903E+02  0.83351594652E+02 -0.93859843102E+02  0.21562281016E+03  0.17067465693E+03 0.  0.
         24    2    5    5    0    0 -0.24884942241E+02  0.78081556112E+02  0.54355180179E+01  0.11492403508E+03  0.80386561241E+02 0.  0.
          5    1    5    5  501    0 -0.15192473662E+02  0.52700385398E+01 -0.99295361119E+02  0.10069877508E+03  0.47000000000E+01 0. -1.
        -13    1    6    6    0    0  0.21394763492E+01  0.42086284120E+02 -0.34722406364E+02  0.54602913602E+02  0.00000000000E+00 0.  1.
         14    1    6    6    0    0 -0.27024418591E+02  0.35995271992E+02  0.40157924382E+02  0.60321121480E+02  0.00000000000E+00 0. -1.
         -5    1    3    3    0  503  0.20014238330E+02 -0.10057083484E+03 -0.13843980617E+03  0.17234480697E+03  0.47000000000E+01 0.  1.
         13    1    4    4    0    0 -0.13050610963E+02 -0.12749314576E+02 -0.16217687722E+03  0.16319988656E+03  0.00000000000E+00 0. -1.
        -14    1    4    4    0    0  0.33113788537E+02  0.29968554766E+02 -0.59742367791E+02  0.74590802217E+02  0.00000000000E+00 0.  1.
</event>
<event>
12    1  0.8493057E-002  0.1862464E+03  0.7818608E-02  0.1163184E+00
         21   -1    0    0  503  502  0.00000000000E+00  0.00000000000E+00  0.34329458379E+03  0.34329458379E+03  0.00000000000E+00 0. -1.
         21   -1    0    0  501  503 -0.00000000000E+00 -0.00000000000E+00 -0.98957771619E+02  0.98957771619E+02  0.00000000000E+00 0. -1.
          6    2    1    2  501    0 -0.41299513101E+02 -0.57550602409E+02  0.10319294464E+03  0.21292371096E+03  0.17224982219E+03 0.  0.
         24    2    3    3    0    0 -0.50741372256E+02 -0.83307865226E+02  0.23034188479E+02  0.12807029924E+03  0.79727915064E+02 0.  0.
         -6    2    1    2    0  502  0.41299513101E+02  0.57550602409E+02  0.14114386753E+03  0.22932864445E+03  0.16628984997E+03 0.  0.
        -24    2    5    5    0    0 -0.22968420491E+00  0.83136567072E+02  0.48685339296E+02  0.12468646720E+03  0.79149929249E+02 0.  0.
          5    1    3    3  501    0  0.94418591551E+01  0.25757262818E+02  0.80158756158E+02  0.84853411722E+02  0.47000000000E+01 0. -1.
        -13    1    4    4    0    0 -0.49642186474E+02 -0.77258669677E+01  0.61212643136E+01  0.50611318646E+02  0.00000000000E+00 0.  1.
         14    1    4    4    0    0 -0.10991857825E+01 -0.75581998259E+02  0.16912924165E+02  0.77458980589E+02  0.00000000000E+00 0. -1.
         -5    1    5    5    0  502  0.41529197306E+02 -0.25585964664E+02  0.92458528239E+02  0.10464217726E+03  0.47000000000E+01 0.  1.
         11    1    6    6    0    0 -0.31871321890E+02  0.72062985817E+02  0.45555349740E+02  0.91017278436E+02  0.00000000000E+00 0. -1.
        -12    1    6    6    0    0  0.31641637685E+02  0.11073581255E+02  0.31299895561E+01  0.33669188761E+02  0.00000000000E+00 0.  1.
</event>
<event>
12    1  0.8493057E-002  0.2305593E+03  0.7818608E-02  0.1126466E+00
         21   -1    0    0  503  502  0.00000000000E+00  0.00000000000E+00  0.24373702668E+03  0.24373702668E+03  0.00000000000E+00 0.  1.
         21   -1    0    0  501  503 -0.00000000000E+00 -0.00000000000E+00 -0.68086922256E+03  0.68086922256E+03  0.00000000000E+00 0. -1.
          6    2    1    2  501    0 -0.14428344398E+03  0.53796000229E+02 -0.59999718963E+03  0.64232522110E+03  0.16992157087E+03 0.  0.
         24    2    3    3    0    0 -0.11761292469E+03  0.99591676386E+02 -0.42645601801E+03  0.46081161610E+03  0.82044549914E+02 0.  0.
         -6    2    1    2    0  502  0.14428344398E+03 -0.53796000229E+02  0.16286499375E+03  0.28228102814E+03  0.17159793360E+03 0.  0.
        -24    2    5    5    0    0  0.11690592252E+03  0.27266383244E+02  0.96530916511E+02  0.17391618837E+03  0.80735199023E+02 0.  0.
          5    1    3    3  501    0 -0.26670519286E+02 -0.45795676157E+02 -0.17354117162E+03  0.18151360500E+03  0.47000000000E+01 0. -1.
        -13    1    4    4    0    0 -0.41476630195E+02 -0.81792717501E+01 -0.91153966090E+02  0.10048013173E+03  0.00000000000E+00 0.  1.
         14    1    4    4    0    0 -0.76136294498E+02  0.10777094814E+03 -0.33530205192E+03  0.36033148437E+03  0.00000000000E+00 0. -1.
         -5    1    5    5    0  502  0.27377521462E+02 -0.81062383473E+02  0.66334077234E+02  0.10836483977E+03  0.47000000000E+01 0.  1.
         11    1    6    6    0    0 -0.56131731015E+01  0.57082523722E+01 -0.80815653266E+01  0.11375568361E+02  0.00000000000E+00 0. -1.
        -12    1    6    6    0    0  0.12251909562E+03  0.21558130871E+02  0.10461248184E+03  0.16254062001E+03  0.00000000000E+00 0.  1.
</event>
<event>
12    1  0.8493057E-002  0.2033418E+03  0.7818608E-02  0.1147862E+00
         21   -1    0    0  501  502  0.00000000000E+00  0.00000000000E+00  0.57537240107E+03  0.57537240107E+03  0.00000000000E+00 0.  1.
         21   -1    0    0  502  503 -0.00000000000E+00 -0.00000000000E+00 -0.89816546253E+02  0.89816546253E+02  0.00000000000E+00 0.  1.
         -6    2    1    2    0  503  0.43500166846E+01 -0.99825151731E+02  0.39976713789E+03  0.44851049250E+03  0.17709859903E+03 0.  0.
        -24    2    3    3    0    0 -0.37505223983E+01 -0.44566550690E+02  0.37665293806E+03  0.38788468977E+03  0.81159429199E+02 0.  0.
          6    2    1    2  501    0 -0.43500166846E+01  0.99825151731E+02  0.85788716925E+02  0.21667845483E+03  0.17206355010E+03 0.  0.
         24    2    5    5    0    0 -0.21363551694E+02  0.13739000142E+03  0.86866639548E+02  0.17515942036E+03  0.61665189886E+02 0.  0.
          5    1    5    5  501    0  0.17013535009E+02 -0.37564849690E+02 -0.10779226235E+01  0.41519034465E+02  0.47000000000E+01 0. -1.
        -11    1    6    6    0    0  0.26515375912E+01  0.85249981401E+02  0.80710323389E+02  0.11742549247E+03  0.00000000000E+00 0.  1.
         12    1    6    6    0    0 -0.24015089285E+02  0.52140020020E+02  0.61563161591E+01  0.57733927890E+02  0.00000000000E+00 0. -1.
         -5    1    3    3    0  503  0.81005390829E+01 -0.55258601041E+02  0.23114199831E+02  0.60625802727E+02  0.47000000000E+01 0.  1.
         13    1    4    4    0    0  0.17297887207E+02  0.18721858977E+02  0.87354950109E+02  0.90997869283E+02  0.00000000000E+00 0. -1.
        -14    1    4    4    0    0 -0.21048409606E+02 -0.63288409667E+02  0.28929798795E+03  0.29688682049E+03  0.00000000000E+00 0.  1.
</event>
<event>
12    1  0.8493057E-002  0.1795620E+03  0.7818608E-02  0.1168311E+00
         21   -1    0    0  503  502  0.00000000000E+00  0.00000000000E+00  0.14984775472E+03  0.14984775472E+03  0.00000000000E+00 0. -1.
         21   -1    0    0  501  503 -0.00000000000E+00 -0.00000000000E+00 -0.21491755327E+03  0.21491755327E+03  0.00000000000E+00 0. -1.
          6    2    1    2  501    0 -0.11346889372E+02 -0.51325364457E+02 -0.27550232110E+02  0.18166324752E+03  0.17169588019E+03 0.  0.
         24    2    3    3    0    0  0.42973999082E+01 -0.80130644240E+02 -0.65888849234E+02  0.13100332753E+03  0.79882060431E+02 0.  0.
         -6    2    1    2    0  502  0.11346889372E+02  0.51325364457E+02 -0.37519566437E+02  0.18310206046E+03  0.17133476514E+03 0.  0.
        -24    2    5    5    0    0 -0.27030355975E+02 -0.26222864956E+02 -0.40216982290E+02  0.96407730211E+02  0.79112363063E+02 0.  0.
          5    1    3    3  501    0 -0.15644289281E+02  0.28805279783E+02  0.38338617124E+02  0.50659919990E+02  0.47000000000E+01 0. -1.
        -11    1    4    4    0    0 -0.29711537284E+02 -0.45294592766E+02 -0.61750977003E+02  0.82143525262E+02  0.00000000000E+00 0.  1.
         12    1    4    4    0    0  0.34008937192E+02 -0.34836051474E+02 -0.41378722305E+01  0.48859802270E+02  0.00000000000E+00 0. -1.
         -5    1    5    5    0  502  0.38377245347E+02  0.77548229413E+02  0.26974158529E+01  0.86694330252E+02  0.47000000000E+01 0.  1.
         11    1    6    6    0    0 -0.26461109796E+02  0.24290313567E+02 -0.90200577693E+01  0.37034728390E+02  0.00000000000E+00 0. -1.
        -12    1    6    6    0    0 -0.56924617926E+00 -0.50513178523E+02 -0.31196924520E+02  0.59373001821E+02  0.00000000000E+00 0.  1.
</event>
<event>
12    1  0.8493057E-002  0.1938849E+03  0.7818608E-02  0.1155067E+00
         21   -1    0    0  501  502  0.00000000000E+00  0.00000000000E+00  0.45607411641E+02  0.45607411641E+02  0.00000000000E+00 0. -1.
         21   -1    0    0  502  503 -0.00000000000E+00 -0.00000000000E+00 -0.16190400242E+04  0.16190400242E+04  0.00000000000E+00 0. -1.
         -6    2    1    2    0  503 -0.46249424457E+02  0.75376140731E+02 -0.13700365165E+04  0.13836468441E+04  0.17221486831E+03 0.  0.
        -24    2    3    3    0    0 -0.74864547540E+02  0.80736799474E+02 -0.13060624209E+04  0.13132029882E+04  0.81116642101E+02 0.  0.
          6    2    1    2  501    0  0.46249424457E+02 -0.75376140731E+02 -0.20339609615E+03  0.28100059181E+03  0.17254213633E+03 0.  0.
         24    2    5    5    0    0  0.61107510483E+02 -0.10529411734E+03 -0.20200273424E+03  0.24723849024E+03  0.74167293558E+02 0.  0.
          5    1    5    5  501    0 -0.14858086026E+02  0.29917976609E+02 -0.13933619177E+01  0.33762101566E+02  0.47000000000E+01 0. -1.
        -11    1    6    6    0    0  0.38662324111E+01  0.74943670138E+01  0.53657919667E+00  0.84499235043E+01  0.00000000000E+00 0.  1.
         12    1    6    6    0    0  0.57241278072E+02 -0.11278848435E+03 -0.20253931343E+03  0.23878856674E+03  0.00000000000E+00 0. -1.
         -5    1    3    3    0  503  0.28615123083E+02 -0.53606587423E+01 -0.63974095520E+02  0.70443855863E+02  0.47000000000E+01 0.  1.
         13    1    4    4    0    0  0.15347497258E+00  0.50294888573E+02 -0.69221744917E+03  0.69404221508E+03  0.00000000000E+00 0. -1.
        -14    1    4    4    0    0 -0.75018022513E+02  0.30441910901E+02 -0.61384497176E+03  0.61916077314E+03  0.00000000000E+00 0.  1.
</event>
<event>
12    1  0.8493057E-002  0.2270467E+03  0.7818608E-02  0.1128814E+00
         21   -1    0    0  501  502  0.00000000000E+00  0.00000000000E+00  0.10173791313E+03  0.10173791313E+03  0.00000000000E+00 0.  1.
         21   -1    0    0  502  503 -0.00000000000E+00 -0.00000000000E+00 -0.69134980212E+03  0.69134980212E+03  0.00000000000E+00 0. -1.
         -6    2    1    2    0  503 -0.13650209710E+03 -0.53918578830E+02 -0.50007701233E+03  0.54902479283E+03  0.17265911279E+03 0.  0.
        -24    2    3    3    0    0 -0.12248086650E+03 -0.99443199039E+02 -0.42120013809E+03  0.45676029672E+03  0.79560667680E+02 0.  0.
          6    2    1    2  501    0  0.13650209710E+03  0.53918578830E+02 -0.89534876664E+02  0.24406292241E+03  0.17323446626E+03 0.  0.
         24    2    5    5    0    0  0.73439734707E+02  0.94324214745E+02 -0.24763605744E+02  0.14493227881E+03  0.78113232874E+02 0.  0.
          5    1    5    5  501    0  0.63062362393E+02 -0.40405635915E+02 -0.64771270920E+02  0.99130643602E+02  0.47000000000E+01 0. -1.
        -11    1    6    6    0    0  0.50282240889E+02  0.22299157597E+02  0.18187750471E+02  0.57934018034E+02  0.00000000000E+00 0.  1.
         12    1    6    6    0    0  0.23157493818E+02  0.72025057148E+02 -0.42951356215E+02  0.86998260775E+02  0.00000000000E+00 0. -1.
         -5    1    3    3    0  503 -0.14021230601E+02  0.45524620209E+02 -0.78876874237E+02  0.92264496108E+02  0.47000000000E+01 0.  1.
         11    1    4    4    0    0 -0.11100178192E+01  0.10607138532E+02 -0.48183899041E+02  0.49350092747E+02  0.00000000000E+00 0. -1.
        -12    1    4    4    0    0 -0.12137084868E+03 -0.11005033757E+03 -0.37301623905E+03  0.40741020398E+03  0.00000000000E+00 0.  1.
</event>
<event>
12    1  0.8493057E-002  0.2339573E+03  0.7818608E-02  0.1123929E+00
         21   -1    0    0  503  502  0.00000000000E+00  0.00000000000E+00  0.11576274632E+04  0.11576274632E+04  0.00000000000E+00 0.  1.
         21   -1    0    0  501  503 -0.00000000000E+00 -0.00000000000E+00 -0.69984851119E+02  0.69984851119E+02  0.00000000000E+00 0.  1.
          6    2    1    2  501    0  0.14033482842E+03  0.78582959572E+02  0.19362698395E+03  0.30349111930E+03  0.16954735319E+03 0.  0.
         24    2    3    3    0    0  0.20203129915E+02 -0.88481585915E+01  0.83067952994E+02  0.11823126197E+03  0.81190455871E+02 0.  0.
         -6    2    1    2    0  502 -0.14033482842E+03 -0.78582959572E+02  0.89401562813E+03  0.92412119502E+03  0.16990260193E+03 0.  0.
        -24    2    5    5    0    0 -0.52855778096E+02 -0.10044512053E+03  0.46133391075E+03  0.48211882299E+03  0.82016015244E+02 0.  0.
          5    1    3    3  501    0  0.12013169851E+03  0.87431118164E+02  0.11055903096E+03  0.18525985732E+03  0.47000000000E+01 0. -1.
        -13    1    4    4    0    0  0.45556562995E+02 -0.21073895378E+02  0.72468705454E+02  0.88154539126E+02  0.00000000000E+00 0.  1.
         14    1    4    4    0    0 -0.25353433080E+02  0.12225736786E+02  0.10599247539E+02  0.30076722848E+02  0.00000000000E+00 0. -1.
         -5    1    5    5    0  502 -0.87479050324E+02  0.21862160954E+02  0.43268171738E+03  0.44200237203E+03  0.47000000000E+01 0.  1.
         13    1    6    6    0    0 -0.84140809057E+01 -0.86110296794E+02  0.36430309752E+03  0.37443627873E+03  0.00000000000E+00 0. -1.
        -14    1    6    6    0    0 -0.44441697191E+02 -0.14334823732E+02  0.97030813234E+02  0.10768254426E+03  0.00000000000E+00 0.  1.
</event>
<event>
12    1  0.8493057E-002  0.1789063E+03  0.7818608E-02  0.1169175E+00
         21   -1    0    0  503  502  0.00000000000E+00  0.00000000000E+00  0.16369101954E+03  0.16369101954E+03  0.00000000000E+00 0.  1.
         21   -1    0    0  501  503 -0.00000000000E+00 -0.00000000000E+00 -0.35620733248E+03  0.35620733248E+03  0.00000000000E+00 0.  1.
          6    2    1    2  501    0  0.30853991241E+02  0.43337280482E+02 -0.27177611693E+03  0.32537625215E+03  0.17081381407E+03 0.  0.
         24    2    3    3    0    0  0.58165801959E+02  0.59569055328E+02 -0.26896052762E+03  0.29313616744E+03  0.81592367119E+02 0.  0.
         -6    2    1    2    0  502 -0.30853991241E+02 -0.43337280482E+02  0.79259803996E+02  0.19452209986E+03  0.16948935704E+03 0.  0.
        -24    2    5    5    0    0 -0.35105586842E+02 -0.62998753731E+02 -0.26970424632E+01  0.11000189946E+03  0.83017459889E+02 0.  0.
          5    1    3    3  501    0 -0.27311810718E+02 -0.16231774846E+02 -0.28155893111E+01  0.32240084716E+02  0.47000000000E+01 0. -1.
        -13    1    4    4    0    0  0.42511987975E+02  0.59011580410E+02 -0.10107904174E+03  0.12452553321E+03  0.00000000000E+00 0.  1.
         14    1    4    4    0    0  0.15653813984E+02  0.55747491797E+00 -0.16788148588E+03  0.16861063422E+03  0.00000000000E+00 0. -1.
         -5    1    5    5    0  502  0.42515956007E+01  0.19661473249E+02  0.81956846459E+02  0.84520200408E+02  0.47000000000E+01 0.  1.
         13    1    6    6    0    0  0.20906866674E+02 -0.25852602524E+02 -0.22248394887E+02  0.40005564694E+02  0.00000000000E+00 0. -1.
        -14    1    6    6    0    0 -0.56012453516E+02 -0.37146151208E+02  0.19551352424E+02  0.69996334762E+02  0.00000000000E+00 0.  1.
</event>
<event>
12    1  0.8493057E-002  0.2573783E+03  0.7818608E-02  0.1109549E+00
         21   -1    0    0  501  502  0.00000000000E+00  0.00000000000E+00  0.26341146712E+03  0.26341146712E+03  0.00000000000E+00 0. -1.
         21   -1    0    0  502  503 -0.00000000000E+00 -0.00000000000E+00 -0.25882149056E+03  0.25882149056E+03  0.00000000000E+00 0. -1.
         -6    2    1    2    0  503  0.18516009941E+03 -0.38572547743E+02 -0.55146287823E+02  0.25801335259E+03  0.16660634203E+03 0.  0.
        -24    2    3    3    0    0  0.60770962726E+02  0.13925495735E+02 -0.36721083848E+02  0.12166717540E+03  0.97813262030E+02 0.  0.
          6    2    1    2  501    0 -0.18516009941E+03  0.38572547743E+02  0.59736264379E+02  0.26421960509E+03  0.17456080482E+03 0.  0.
         24    2    5    5    0    0 -0.17555988926E+03  0.61854256166E+02  0.92460165949E+02  0.22266066241E+03  0.79885321418E+02 0.  0.
          5    1    5    5  501    0 -0.96002101486E+01 -0.23281708422E+02 -0.32723901569E+02  0.41558942671E+02  0.47000000000E+01 0. -1.
        -13    1    6    6    0    0 -0.11664869049E+03  0.37542642326E+02  0.10042453174E+03  0.15843438251E+03  0.00000000000E+00 0.  1.
         14    1    6    6    0    0 -0.58911198766E+02  0.24311613839E+02 -0.79643657960E+01  0.64226279902E+02  0.00000000000E+00 0. -1.
         -5    1    3    3    0  503  0.12438913668E+03 -0.52498043478E+02 -0.18425203975E+02  0.13634617719E+03  0.47000000000E+01 0.  1.
         13    1    4    4    0    0  0.14653786421E+02 -0.38535280425E+02  0.29597240255E+01  0.41333536749E+02  0.00000000000E+00 0. -1.
        -14    1    4    4    0    0  0.46117176304E+02  0.52460776159E+02 -0.39680807874E+02  0.80333638652E+02  0.00000000000E+00 0.  1.
</event>
<event>
12    1  0.8493057E-002  0.2232453E+03  0.7818608E-02  0.1131513E+00
         21   -1    0    0  501  502  0.00000000000E+00  0.00000000000E+00  0.26398322270E+03  0.26398322270E+03  0.00000000000E+00 0.  1.
         21   -1    0    0  502  503 -0.00000000000E+00 -0.00000000000E+00 -0.22330049334E+03  0.22330049334E+03  0.00000000000E+00 0. -1.
         -6    2    1    2    0  503  0.11216784503E+03  0.84073451310E+02  0.11627927166E+03  0.25158623560E+03  0.17356495687E+03 0.  0.
        -24    2    3    3    0    0  0.13411988465E+03  0.28977555296E+02  0.84565200142E+02  0.18416723136E+03  0.89098001445E+02 0.  0.
          6    2    1    2  501    0 -0.11216784503E+03 -0.84073451310E+02 -0.75596542304E+02  0.23569748044E+03  0.17374836518E+03 0.  0.
         24    2    5    5    0    0 -0.78450636437E+02 -0.12223744807E+03 -0.32985700223E+02  0.16913086217E+03  0.80129245920E+02 0.  0.
          5    1    5    5  501    0 -0.33717208598E+02  0.38163996761E+02 -0.42610842080E+02  0.66566618265E+02  0.47000000000E+01 0. -1.
        -11    1    6    6    0    0  0.16666135761E+02 -0.23196219420E+02 -0.59889137238E+01  0.29183758568E+02  0.00000000000E+00 0.  1.
         12    1    6    6    0    0 -0.95116772197E+02 -0.99041228651E+02 -0.26996786500E+02  0.13994710360E+03  0.00000000000E+00 0. -1.
         -5    1    3    3    0  503 -0.21952039619E+02  0.55095896013E+02  0.31714071515E+02  0.67419004242E+02  0.47000000000E+01 0.  1.
         11    1    4    4    0    0  0.35177141011E+02 -0.88545255244E+01  0.67835718573E+02  0.76925409237E+02  0.00000000000E+00 0. -1.
        -12    1    4    4    0    0  0.98942743643E+02  0.37832080821E+02  0.16729481569E+02  0.10724182212E+03  0.00000000000E+00 0.  1.
</event>
<event>
12    1  0.8493057E-002  0.2042946E+03  0.7818608E-02  0.1146236E+00
         21   -1    0    0  501  502  0.00000000000E+00  0.00000000000E+00  0.25620294096E+03  0.25620294096E+03  0.00000000000E+00 0.  1.
         21   -1    0    0  502  503 -0.00000000000E+00 -0.00000000000E+00 -0.36948253969E+03  0.36948253969E+03  0.00000000000E+00 0.  1.
         -6    2    1    2    0  503  0.91442849066E+02  0.59880205205E+02 -0.29069579996E+03  0.35510688172E+03  0.17219005693E+03 0.  0.
        -24    2    3    3    0    0 -0.69511547638E+01 -0.12357668578E+02 -0.12980122753E+03  0.15309489238E+03  0.79929074053E+02 0.  0.
          6    2    1    2  501    0 -0.91442849066E+02 -0.59880205205E+02  0.17741620123E+03  0.27057859893E+03  0.17259442667E+03 0.  0.
         24    2    5    5    0    0 -0.27416626140E+02 -0.57149478703E+02  0.25480304794E+02  0.10561369140E+03  0.80543600448E+02 0.  0.
          5    1    5    5  501    0 -0.64026222926E+02 -0.27307265017E+01  0.15193589644E+03  0.16496490753E+03  0.47000000000E+01 0. -1.
        -11    1    6    6    0    0  0.72687612733E+01  0.16762107380E+02  0.14310470941E+02  0.23207600325E+02  0.00000000000E+00 0.  1.
         12    1    6    6    0    0 -0.34685387414E+02 -0.73911586084E+02  0.11169833852E+02  0.82406091072E+02  0.00000000000E+00 0. -1.
         -5    1    3    3    0  503  0.98394003830E+02  0.72237873783E+02 -0.16089457244E+03  0.20201198934E+03  0.47000000000E+01 0.  1.
         13    1    4    4    0    0 -0.14717947792E+02  0.10814016527E+02 -0.12721545592E+03  0.12851977733E+03  0.00000000000E+00 0. -1.
        -14    1    4    4    0    0  0.77667930287E+01 -0.23171685106E+02 -0.25857716063E+01  0.24575115043E+02  0.00000000000E+00 0.  1.
</event>
<event>
12    1  0.8493057E-002  0.1965831E+03  0.7818608E-02  0.1152780E+00
         21   -1    0    0  503  502  0.00000000000E+00  0.00000000000E+00  0.60176743573E+02  0.60176743573E+02  0.00000000000E+00 0. -1.
         21   -1    0    0  501  503 -0.00000000000E+00 -0.00000000000E+00 -0.66864495489E+03  0.66864495489E+03  0.00000000000E+00 0. -1.
          6    2    1    2  501    0 -0.93431372154E+02  0.10493262971E+02 -0.37883794027E+03  0.42653878946E+03  0.17198146428E+03 0.  0.
         24    2    3    3    0    0 -0.16298717221E+01  0.51526215251E+02 -0.18866780241E+03  0.21136911225E+03  0.80148328799E+02 0.  0.
         -6    2    1    2    0  502  0.93431372154E+02 -0.10493262971E+02 -0.22963027105E+03  0.30228290901E+03  0.17264230601E+03 0.  0.
        -24    2    5    5    0    0  0.19147375894E+02  0.17383270944E+02 -0.34846662645E+02  0.91907156254E+02  0.81017500337E+02 0.  0.
          5    1    3    3  501    0 -0.91801500432E+02 -0.41032952280E+02 -0.19017013787E+03  0.21516967721E+03  0.47000000000E+01 0. -1.
        -13    1    4    4    0    0  0.28457852584E+01 -0.16992231553E+02 -0.99065492007E+01  0.19873956424E+02  0.00000000000E+00 0.  1.
         14    1    4    4    0    0 -0.44756569805E+01  0.68518446804E+02 -0.17876125320E+03  0.19149515583E+03  0.00000000000E+00 0. -1.
         -5    1    5    5    0  502  0.74283996260E+02 -0.27876533915E+02 -0.19478360840E+03  0.21037575275E+03  0.47000000000E+01 0.  1.
         13    1    6    6    0    0  0.11518525594E+01 -0.10034965670E+02  0.23162355678E+02  0.25268993270E+02  0.00000000000E+00 0. -1.
        -14    1    6    6    0    0  0.17995523335E+02  0.27418236614E+02 -0.58009018323E+02  0.66638162984E+02  0.00000000000E+00 0.  1.
</event>
<event>
12    1  0.8493057E-002  0.1987086E+03  0.7818608E-02  0.1151041E+00
         21   -1    0    0  501  502  0.00000000000E+00  0.00000000000E+00  0.17532939013E+03  0.17532939013E+03  0.00000000000E+00 0. -1.
         21   -1    0    0  502  503 -0.00000000000E+00 -0.00000000000E+00 -0.48980387595E+03  0.48980387595E+03  0.00000000000E+00 0. -1.
         -6    2    1    2    0  503  0.92277250242E+02 -0.34371386156E+02 -0.40200249243E+03  0.44800133582E+03  0.17147218397E+03 0.  0.
        -24    2    3    3    0    0  0.13130046012E+03 -0.14077412413E+02 -0.30641192189E+03  0.34267183636E+03  0.78088009266E+02 0.  0.
          6    2    1    2  501    0 -0.92277250242E+02  0.34371386156E+02  0.87528006615E+02  0.21713193025E+03  0.17259385880E+03 0.  0.
         24    2    5    5    0    0  0.51670134105E+01 -0.14479714930E+02  0.43435614093E+01  0.79932963346E+02  0.78320188531E+02 0.  0.
          5    1    5    5  501    0 -0.97444263652E+02  0.48851101087E+02  0.83184445205E+02  0.13719896691E+03  0.47000000000E+01 0. -1.
        -11    1    6    6    0    0  0.21683737422E+02  0.56320817657E+01 -0.29624243300E+02  0.37141628999E+02  0.00000000000E+00 0.  1.
         12    1    6    6    0    0 -0.16516724011E+02 -0.20111796696E+02  0.33967804709E+02  0.42791334347E+02  0.00000000000E+00 0. -1.
         -5    1    3    3    0  503 -0.39023209878E+02 -0.20293973743E+02 -0.95590570544E+02  0.10532949946E+03  0.47000000000E+01 0.  1.
         11    1    4    4    0    0  0.97773273174E+02  0.58294979990E+01 -0.13444712230E+03  0.16634189096E+03  0.00000000000E+00 0. -1.
        -12    1    4    4    0    0  0.33527186945E+02 -0.19906910412E+02 -0.17196479959E+03  0.17632994540E+03  0.00000000000E+00 0.  1.
</event>
<event>
12    1  0.8493057E-002  0.2786543E+03  0.7818608E-02  0.1096567E+00
         21   -1    0    0  503  502  0.00000000000E+00  0.00000000000E+00  0.13081701700E+03  0.13081701700E+03  0.00000000000E+00 0. -1.
         21   -1    0    0  501  503 -0.00000000000E+00 -0.00000000000E+00 -0.65736989606E+03  0.65736989606E+03  0.00000000000E+00 0. -1.
          6    2    1    2  501    0  0.19315057305E+03 -0.10312609638E+03 -0.38769519552E+03  0.47685160058E+03  0.17069782871E+03 0.  0.
         24    2    3    3    0    0  0.12319333492E+03 -0.32780292008E+02 -0.32779027282E+03  0.36086351014E+03  0.80776634545E+02 0.  0.
         -6    2    1    2    0  502 -0.19315057305E+03  0.10312609638E+03 -0.13885768354E+03  0.31133531248E+03  0.17235453257E+03 0.  0.
        -24    2    5    5    0    0 -0.21068579713E+03  0.11618459846E+03 -0.13735293828E+03  0.28892186075E+03  0.81991743075E+02 0.  0.
          5    1    3    3  501    0  0.69957238134E+02 -0.70345804369E+02 -0.59904922702E+02  0.11598809044E+03  0.47000000000E+01 0. -1.
        -13    1    4    4    0    0  0.48738630357E+02 -0.51580942029E+02 -0.19440454570E+03  0.20695210813E+03  0.00000000000E+00 0.  1.
         14    1    4    4    0    0  0.74454704559E+02  0.18800650021E+02 -0.13338572712E+03  0.15391140202E+03  0.00000000000E+00 0. -1.
         -5    1    5    5    0  502  0.17535224082E+02 -0.13058502084E+02 -0.15047452611E+01  0.22413451733E+02  0.47000000000E+01 0.  1.
         11    1    6    6    0    0 -0.87201575486E+02  0.49804061679E+01 -0.57357093464E+02  0.10449284848E+03  0.00000000000E+00 0. -1.
        -12    1    6    6    0    0 -0.12348422165E+03  0.11120419229E+03 -0.79995844817E+02  0.18442901227E+03  0.00000000000E+00 0.  1.
</event>
<event>
12    1  0.8493057E-002  0.1762020E+03  0.7818608E-02  0.1171953E+00
         21   -1    0    0  501  502  0.00000000000E+00  0.00000000000E+00  0.13162542016E+03  0.13162542016E+03  0.00000000000E+00 0. -1.
         21   -1    0    0  502  503 -0.00000000000E+00 -0.00000000000E+00 -0.74460173911E+03  0.74460173911E+03  0.00000000000E+00 0. -1.
         -6    2    1    2    0  503  0.36573327510E+02  0.46651849724E+01 -0.66895790272E+03  0.69134589140E+03  0.17057283991E+03 0.  0.
        -24    2    3    3    0    0  0.32431485925E+02 -0.10024230805E+02 -0.16535581317E+03  0.18749066578E+03  0.81596068066E+02 0.  0.
          6    2    1    2  501    0 -0.36573327510E+02 -0.46651849724E+01  0.55981583761E+02  0.18488126787E+03  0.17230140235E+03 0.  0.
         24    2    5    5    0    0 -0.63326994986E+02  0.23113207984E+02 -0.13732535017E+02  0.10507183111E+03  0.79416487571E+02 0.  0.
          5    1    5    5  501    0  0.26753667476E+02 -0.27778392957E+02  0.69714118777E+02  0.79809436758E+02  0.47000000000E+01 0. -1.
        -13    1    6    6    0    0 -0.30825041496E+02  0.13625883969E-01 -0.44899303543E+02  0.54462196316E+02  0.00000000000E+00 0.  1.
         14    1    6    6    0    0 -0.32501953490E+02  0.23099582100E+02  0.31166768527E+02  0.50609634797E+02  0.00000000000E+00 0. -1.
         -5    1    3    3    0  503  0.41418415848E+01  0.14689415777E+02 -0.50360208955E+03  0.50385522562E+03  0.47000000000E+01 0.  1.
         11    1    4    4    0    0  0.49888878470E+01  0.12966078134E+02 -0.14625562872E+03  0.14691397862E+03  0.00000000000E+00 0. -1.
        -12    1    4    4    0    0  0.27442598078E+02 -0.22990308939E+02 -0.19100184450E+02  0.40576687154E+02  0.00000000000E+00 0.  1.
</event>
<event>
12    1  0.8493057E-002  0.1883913E+03  0.7818608E-02  0.1159927E+00
         21   -1    0    0  503  502  0.00000000000E+00  0.00000000000E+00  0.15373809442E+03  0.15373809442E+03  0.00000000000E+00 0.  1.
         21   -1    0    0  501  503 -0.00000000000E+00 -0.00000000000E+00 -0.32523796415E+03  0.32523796415E+03  0.00000000000E+00 0.  1.
          6    2    1    2  501    0  0.69127482339E+02 -0.34192257042E+02 -0.21479285432E+03  0.28570483327E+03  0.17188240815E+03 0.  0.
         24    2    3    3    0    0 -0.12620421287E+02 -0.41241632365E+02 -0.58908938420E+02  0.10948253424E+03  0.81584404172E+02 0.  0.
         -6    2    1    2    0  502 -0.69127482339E+02  0.34192257042E+02  0.43292984586E+02  0.19327122530E+03  0.17184808628E+03 0.  0.
        -24    2    5    5    0    0 -0.90975526442E+02  0.43195193630E+02  0.78542560431E+02  0.15057447489E+03  0.79758181550E+02 0.  0.
          5    1    3    3  501    0  0.81747903626E+02  0.70493753233E+01 -0.15588391590E+03  0.17622229903E+03  0.47000000000E+01 0. -1.
        -11    1    4    4    0    0 -0.43319493900E+02 -0.71030481891E+01 -0.41415037597E+02  0.60350950153E+02  0.00000000000E+00 0.  1.
         12    1    4    4    0    0  0.30699072612E+02 -0.34138584176E+02 -0.17493900823E+02  0.49131584086E+02  0.00000000000E+00 0. -1.
         -5    1    5    5    0  502  0.21848044103E+02 -0.90029365879E+01 -0.35249575846E+02  0.42696750411E+02  0.47000000000E+01 0.  1.
         11    1    6    6    0    0  0.12039596875E+02 -0.69410176729E+01  0.87637911049E+01  0.16429657750E+02  0.00000000000E+00 0. -1.
        -12    1    6    6    0    0 -0.10301512332E+03  0.50136211303E+02  0.69778769326E+02  0.13414481714E+03  0.00000000000E+00 0.  1.
</event>
<event>
12    1  0.8493057E-002  0.2929787E+03  0.7818608E-02  0.1089134E+00
         21   -1    0    0  501  502  0.00000000000E+00  0.00000000000E+00  0.41079191241E+03  0.41079191241E+03  0.00000000000E+00 0. -1.
         21   -1    0    0  502  503 -0.00000000000E+00 -0.00000000000E+00 -0.10395467544E+04  0.10395467544E+04  0.00000000000E+00 0.  1.
         -6    2    1    2    0  503 -0.20557251708E+03  0.11551202043E+03 -0.96356135792E+03  0.10071181809E+04  0.17387769613E+03 0.  0.
        -24    2    3    3    0    0 -0.24164544333E+02  0.55225344813E+02 -0.26425967617E+03  0.28214351382E+03  0.78345529727E+02 0.  0.
          6    2    1    2  501    0  0.20557251708E+03 -0.11551202043E+03  0.33480651597E+03  0.44322048586E+03  0.16954618635E+03 0.  0.
         24    2    5    5    0    0  0.21197108229E+03 -0.13342547107E+03  0.27282083032E+03  0.37821165125E+03  0.76673017608E+02 0.  0.
          5    1    5    5  501    0 -0.63985652162E+01  0.17913450643E+02  0.61985685651E+02  0.65008834603E+02  0.47000000000E+01 0. -1.
        -11    1    6    6    0    0  0.91345929729E+02 -0.17629037401E+02  0.77408609768E+02  0.12102460371E+03  0.00000000000E+00 0.  1.
         12    1    6    6    0    0  0.12062515256E+03 -0.11579643367E+03  0.19541222055E+03  0.25718704754E+03  0.00000000000E+00 0. -1.
         -5    1    3    3    0  503 -0.18140797274E+03  0.60286675617E+02 -0.69930168175E+03  0.72497466709E+03  0.47000000000E+01 0.  1.
         11    1    4    4    0    0  0.17254990003E+02 -0.32259688480E+01 -0.15990925014E+02  0.23745551958E+02  0.00000000000E+00 0. -1.
        -12    1    4    4    0    0 -0.41419534336E+02  0.58451313661E+02 -0.24826875116E+03  0.25839796186E+03  0.00000000000E+00 0.  1.
</event>
<event>
12    1  0.8493057E-002  0.1978801E+03  0.7818608E-02  0.1152271E+00
         21   -1    0    0  503  502  0.00000000000E+00  0.00000000000E+00  0.16070012917E+03  0.16070012917E+03  0.00000000000E+00 0.  1.
         21   -1    0    0  501  503 -0.00000000000E+00 -0.00000000000E+00 -0.42509789320E+03  0.42509789320E+03  0.00000000000E+00 0.  1.
          6    2    1    2  501    0  0.49313424550E+02 -0.82505127484E+02 -0.32636912134E+03  0.38167175236E+03  0.17296708729E+03 0.  0.
         24    2    3    3    0    0  0.31524254443E+01 -0.41371024650E+02 -0.30154226964E+03  0.31487867772E+03  0.80618495644E+02 0.  0.
         -6    2    1    2    0  502 -0.49313424550E+02  0.82505127484E+02  0.61971357308E+02  0.20412627000E+03  0.16908038052E+03 0.  0.
        -24    2    5    5    0    0  0.27381922467E+02  0.79170856478E+01  0.44377535426E+02  0.95603531339E+02  0.79738445125E+02 0.  0.
          5    1    3    3  501    0  0.46160999106E+02 -0.41134102834E+02 -0.24826851699E+02  0.66793074639E+02  0.47000000000E+01 0. -1.
        -13    1    4    4    0    0 -0.25597712236E+02 -0.51710135627E+01 -0.31542728338E+02  0.40950286494E+02  0.00000000000E+00 0.  1.
         14    1    4    4    0    0  0.28750137680E+02 -0.36200011087E+02 -0.26999954130E+03  0.27392839123E+03  0.00000000000E+00 0. -1.
         -5    1    5    5    0  502 -0.76695347017E+02  0.74588041836E+02  0.17593821883E+02  0.10852273867E+03  0.47000000000E+01 0.  1.
         13    1    6    6    0    0 -0.14127815453E+02  0.84897683495E+01 -0.15577581049E+02  0.22678896962E+02  0.00000000000E+00 0. -1.
        -14    1    6    6    0    0  0.41509737920E+02 -0.57268270175E+00  0.59955116474E+02  0.72924634377E+02  0.00000000000E+00 0.  1.
</event>
<event>
12    1  0.8493057E-002  0.3204259E+03  0.7818608E-02  0.1076060E+00
         21   -1    0    0  503  502  0.00000000000E+00  0.00000000000E+00  0.95020098976E+03  0.95020098976E+03  0.00000000000E+00 0.  1.
         21   -1    0    0  501  503 -0.00000000000E+00 -0.00000000000E+00 -0.10778367877E+03  0.10778367877E+03  0.00000000000E+00 0.  1.
          6    2    1    2  501    0 -0.17060004539E+03 -0.20980349088E+03  0.36250260012E+03  0.48381906788E+03  0.17190367966E+03 0.  0.
         24    2    3    3    0    0 -0.13194987154E+03 -0.59614001348E+02  0.17652270388E+03  0.24161805527E+03  0.79084903055E+02 0.  0.
         -6    2    1    2    0  502  0.17060004539E+03  0.20980349088E+03  0.47991471087E+03  0.57416560065E+03  0.16194482698E+03 0.  0.
        -24    2    5    5    0    0  0.33286658594E+02  0.47023460107E+02  0.18913704426E+03  0.21371304342E+03  0.81124817268E+02 0.  0.
          5    1    3    3  501    0 -0.38650173842E+02 -0.15018948953E+03  0.18597989624E+03  0.24220101261E+03  0.47000000000E+01 0. -1.
        -13    1    4    4    0    0 -0.17353747646E+02 -0.21362295995E+02 -0.22836772892E+00  0.27523669802E+02  0.00000000000E+00 0.  1.
         14    1    4    4    0    0 -0.11459612390E+03 -0.38251705353E+02  0.17675107161E+03  0.21409438547E+03  0.00000000000E+00 0. -1.
         -5    1    5    5    0  502  0.13731338679E+03  0.16278003077E+03  0.29077766661E+03  0.36045255723E+03  0.47000000000E+01 0.  1.
         13    1    6    6    0    0  0.50114103300E+02  0.55426654505E+02  0.17467627286E+03  0.18998773034E+03  0.00000000000E+00 0. -1.
        -14    1    6    6    0    0 -0.16827444706E+02 -0.84031943973E+01  0.14460771398E+02  0.23725313082E+02  0.00000000000E+00 0.  1.
</event>
<event>
12    1  0.8493057E-002  0.2214633E+03  0.7818608E-02  0.1132965E+00
         21   -1    0    0  503  502  0.00000000000E+00  0.00000000000E+00  0.81044721759E+03  0.81044721759E+03  0.00000000000E+00 0. -1.
         21   -1    0    0  501  503 -0.00000000000E+00 -0.00000000000E+00 -0.63254319642E+02  0.63254319642E+02  0.00000000000E+00 0.  1.
          6    2    1    2  501    0  0.13845073980E+03  0.29742192669E+02  0.46921643078E+03  0.51885455306E+03  0.17027267231E+03 0.  0.
         24    2    3    3    0    0  0.23804100658E+02 -0.34577995109E+02  0.19286507708E+03  0.21279393959E+03  0.79511318791E+02 0.  0.
         -6    2    1    2    0  502 -0.13845073980E+03 -0.29742192669E+02  0.27797646717E+03  0.35484698418E+03  0.16909246140E+03 0.  0.
        -24    2    5    5    0    0 -0.34406127533E+01 -0.26568170761E+02  0.12950669315E+03  0.15409048336E+03  0.79083424175E+02 0.  0.
          5    1    3    3  501    0  0.11464663914E+03  0.64320187777E+02  0.27635135370E+03  0.30606061347E+03  0.47000000000E+01 0. -1.
        -13    1    4    4    0    0  0.48723113071E+02 -0.12647578275E+02  0.74871764963E+02  0.90220198249E+02  0.00000000000E+00 0.  1.
         14    1    4    4    0    0 -0.24919012413E+02 -0.21930416834E+02  0.11799331212E+03  0.12257374134E+03  0.00000000000E+00 0. -1.
         -5    1    5    5    0  502 -0.13501012705E+03 -0.31740219075E+01  0.14846977402E+03  0.20075650081E+03  0.47000000000E+01 0.  1.
         11    1    6    6    0    0  0.20413494971E+02 -0.26517278707E+02  0.14217771574E+02  0.36359618748E+02  0.00000000000E+00 0. -1.
        -12    1    6    6    0    0 -0.23854107724E+02 -0.50892053995E-01  0.11528892157E+03  0.11773086462E+03  0.00000000000E+00 0.  1.
</event>
<event>
12    1  0.8493057E-002  0.1966589E+03  0.7818608E-02  0.1152622E+00
         21   -1    0    0  501  502  0.00000000000E+00  0.00000000000E+00  0.17236082133E+04  0.17236082133E+04  0.00000000000E+00 0.  1.
         21   -1    0    0  502  503 -0.00000000000E+00 -0.00000000000E+00 -0.33836122845E+02  0.33836122845E+02  0.00000000000E+00 0.  1.
         -6    2    1    2    0  503 -0.93704509050E+02  0.18962775206E+02  0.33470847991E+03  0.38820674967E+03  0.17185631238E+03 0.  0.
        -24    2    3    3    0    0  0.85701732219E+01 -0.19897034613E+02  0.13217634550E+03  0.15796437537E+03  0.83742568159E+02 0.  0.
          6    2    1    2  501    0  0.93704509050E+02 -0.18962775206E+02  0.13550636105E+04  0.13692375865E+04  0.17168010291E+03 0.  0.
         24    2    5    5    0    0  0.96109667333E+02 -0.55299585426E+02  0.70579292447E+03  0.71892945769E+03  0.80129898319E+02 0.  0.
          5    1    5    5  501    0 -0.24051582829E+01  0.36336810220E+02  0.64927068607E+03  0.65030812878E+03  0.47000000000E+01 0. -1.
        -13    1    6    6    0    0  0.86345181844E+02 -0.98777192081E+01  0.53111567486E+03  0.53817926367E+03  0.00000000000E+00 0.  1.
         14    1    6    6    0    0  0.97644854892E+01 -0.45421866218E+02  0.17467724961E+03  0.18075019402E+03  0.00000000000E+00 0. -1.
         -5    1    3    3    0  503 -0.10227468227E+03  0.38859809820E+02  0.20253213441E+03  0.23024237430E+03  0.47000000000E+01 0.  1.
         11    1    4    4    0    0  0.26415872122E+02 -0.47891666057E+01  0.13187557793E+03  0.13458046839E+03  0.00000000000E+00 0. -1.
        -12    1    4    4    0    0 -0.17845698900E+02 -0.15107868007E+02  0.30076757260E+00  0.23383906989E+02  0.00000000000E+00 0.  1.
</event>
<event>
12    1  0.8493057E-002  0.1761400E+03  0.7818608E-02  0.1172277E+00
         21   -1    0    0  501  502  0.00000000000E+00  0.00000000000E+00  0.17901390897E+03  0.17901390897E+03  0.00000000000E+00 0. -1.
         21   -1    0    0  502  503 -0.00000000000E+00 -0.00000000000E+00 -0.24118545059E+03  0.24118545059E+03  0.00000000000E+00 0. -1.
         -6    2    1    2    0  503 -0.69985887903E+01 -0.20859937033E+02 -0.14488621718E+03  0.22807307945E+03  0.17476039718E+03 0.  0.
        -24    2    3    3    0    0  0.25328264850E+02  0.19190792445E+02 -0.15127286839E+03  0.17599654240E+03  0.84151617391E+02 0.  0.
          6    2    1    2  501    0  0.69985887903E+01  0.20859937033E+02  0.82714675552E+02  0.19212628011E+03  0.17200776942E+03 0.  0.
         24    2    5    5    0    0  0.33146040047E+02  0.68090711863E+02  0.28417050017E+02  0.11541410743E+03  0.82327895940E+02 0.  0.
          5    1    5    5  501    0 -0.26147451257E+02 -0.47230774831E+02  0.54297625534E+02  0.76712172678E+02  0.47000000000E+01 0. -1.
        -13    1    6    6    0    0 -0.14545983622E+01  0.17184617806E+02 -0.27365088062E+02  0.32346174274E+02  0.00000000000E+00 0.  1.
         14    1    6    6    0    0  0.34600638409E+02  0.50906094058E+02  0.55782138079E+02  0.83067933158E+02  0.00000000000E+00 0. -1.
         -5    1    3    3    0  503 -0.32326853640E+02 -0.40050729477E+02  0.63866512100E+01  0.52076537055E+02  0.47000000000E+01 0.  1.
         13    1    4    4    0    0 -0.17090559033E+02  0.37277263572E+02 -0.49615785705E+02  0.64369307737E+02  0.00000000000E+00 0. -1.
        -14    1    4    4    0    0  0.42418823883E+02 -0.18086471128E+02 -0.10165708269E+03  0.11162723466E+03  0.00000000000E+00 0.  1.
</event>
<event>
12    1  0.8493057E-002  0.2192504E+03  0.7818608E-02  0.1134538E+00
         21   -1    0    0  503  502  0.00000000000E+00  0.00000000000E+00  0.40366751506E+03  0.40366751506E+03  0.00000000000E+00 0. -1.
         21   -1    0    0  501  503 -0.00000000000E+00 -0.00000000000E+00 -0.22872304074E+03  0.22872304074E+03  0.00000000000E+00 0.  1.
          6    2    1    2  501    0  0.11939686450E+03  0.60617866176E+02 -0.13166822571E+03  0.25574846608E+03  0.17361053911E+03 0.  0.
         24    2    3    3    0    0  0.83322497603E+01 -0.44118872599E+01 -0.90409209111E+02  0.12051306417E+03  0.79124474141E+02 0.  0.
         -6    2    1    2    0  502 -0.11939686450E+03 -0.60617866176E+02  0.30661270003E+03  0.37664208971E+03  0.17296756624E+03 0.  0.
        -24    2    5    5    0    0 -0.69629977982E+02 -0.64842541744E+01  0.66764209491E+02  0.12573059265E+03  0.80376258149E+02 0.  0.
          5    1    3    3  501    0  0.11106461474E+03  0.65029753436E+02 -0.41259016601E+02  0.13523540191E+03  0.47000000000E+01 0. -1.
        -11    1    4    4    0    0 -0.70047762565E+00  0.25048724013E+02 -0.65218115440E-01  0.25058601258E+02  0.00000000000E+00 0.  1.
         12    1    4    4    0    0  0.90327273859E+01 -0.29460611273E+02 -0.90343990996E+02  0.95454462911E+02  0.00000000000E+00 0. -1.
         -5    1    5    5    0  502 -0.49766886521E+02 -0.54133612002E+02  0.23984849054E+03  0.25091149706E+03  0.47000000000E+01 0.  1.
         13    1    6    6    0    0 -0.76054787973E+02  0.11796995581E+02  0.72279864553E+02  0.10558351528E+03  0.00000000000E+00 0. -1.
        -14    1    6    6    0    0  0.64248099914E+01 -0.18281249756E+02 -0.55156550620E+01  0.20147077377E+02  0.00000000000E+00 0.  1.
</event>
<event>
12    1  0.8493057E-002  0.1808137E+03  0.7818608E-02  0.1167789E+00
         21   -1    0    0  501  502  0.00000000000E+00  0.00000000000E+00  0.13564456111E+03  0.13564456111E+03  0.00000000000E+00 0.  1.
         21   -1    0    0  502  503 -0.00000000000E+00 -0.00000000000E+00 -0.28388708955E+03  0.28388708955E+03  0.00000000000E+00 0. -1.
         -6    2    1    2    0  503 -0.72817704603E+01  0.51966375174E+02 -0.15899223510E+03  0.23839863816E+03  0.16971108250E+03 0.  0.
        -24    2    3    3    0    0  0.27623415361E+02 -0.58683425954E+01 -0.14743040211E+03  0.16970371434E+03  0.79158932991E+02 0.  0.
          6    2    1    2  501    0  0.72817704603E+01 -0.51966375174E+02  0.10749706660E+02  0.18113301251E+03  0.17303203084E+03 0.  0.
         24    2    5    5    0    0 -0.11262044565E+02  0.36728850978E+02  0.20157806084E+02  0.89911750990E+02  0.78752420141E+02 0.  0.
          5    1    5    5  501    0  0.18543815025E+02 -0.88695226152E+02 -0.94080994246E+01  0.91221261516E+02  0.47000000000E+01 0. -1.
        -11    1    6    6    0    0 -0.40285896444E+02  0.26814724378E+02  0.30896357827E+02  0.57415745425E+02  0.00000000000E+00 0.  1.
         12    1    6    6    0    0  0.29023851880E+02  0.99141265999E+01 -0.10738551742E+02  0.32496005565E+02  0.00000000000E+00 0. -1.
         -5    1    3    3    0  503 -0.34905185821E+02  0.57834717769E+02 -0.11561832987E+02  0.68694923821E+02  0.47000000000E+01 0.  1.
         13    1    4    4    0    0  0.49554682780E+01  0.26684649174E+02 -0.11588804013E+03  0.11902380020E+03  0.00000000000E+00 0. -1.
        -14    1    4    4    0    0  0.22667947083E+02 -0.32552991770E+02 -0.31542361979E+02  0.50679914141E+02  0.00000000000E+00 0.  1.
</event>
<event>
12    1  0.8493057E-002  0.1872765E+03  0.7818608E-02  0.1162715E+00
         21   -1    0    0  501  502  0.00000000000E+00  0.00000000000E+00  0.14826469162E+03  0.14826469162E+03  0.00000000000E+00 0.  1.
         21   -1    0    0  502  503 -0.00000000000E+00 -0.00000000000E+00 -0.22878510967E+03  0.22878510967E+03  0.00000000000E+00 0.  1.
         -6    2    1    2    0  503  0.35749711057E+02 -0.72108926504E+02 -0.57224904780E+02  0.19582432367E+03  0.16909978383E+03 0.  0.
        -24    2    3    3    0    0 -0.18077585583E+02 -0.91004838606E+01 -0.74808242130E+02  0.11097913842E+03  0.79438518149E+02 0.  0.
          6    2    1    2  501    0 -0.35749711057E+02  0.72108926504E+02 -0.23295513267E+02  0.18122547762E+03  0.16069304178E+03 0.  0.
         24    2    5    5    0    0  0.14697742376E+02  0.83483648642E+02 -0.46034594419E+02  0.12453786281E+03  0.78771518757E+02 0.  0.
          5    1    5    5  501    0 -0.50447453433E+02 -0.11374722138E+02  0.22739081152E+02  0.56687614814E+02  0.47000000000E+01 0. -1.
        -11    1    6    6    0    0  0.27537006481E+02  0.37147890870E+02 -0.58786658809E+02  0.74793875257E+02  0.00000000000E+00 0.  1.
         12    1    6    6    0    0 -0.12839264105E+02  0.46335757772E+02  0.12752064389E+02  0.49743987549E+02  0.00000000000E+00 0. -1.
         -5    1    3    3    0  503  0.53827296640E+02 -0.63008442644E+02  0.17583337351E+02  0.84845185252E+02  0.47000000000E+01 0.  1.
         11    1    4    4    0    0 -0.96802750978E+01  0.35281041150E+02 -0.37559064984E+02  0.52432270150E+02  0.00000000000E+00 0. -1.
        -12    1    4    4    0    0 -0.83973104856E+01 -0.44381525010E+02 -0.37249177146E+02  0.58546868266E+02  0.00000000000E+00 0.  1.
</event>
<event>
12    1  0.8493057E-002  0.1774768E+03  0.7818608E-02  0.1170421E+00
         21   -1    0    0  501  502  0.00000000000E+00  0.00000000000E+00  0.95938462879E+03  0.95938462879E+03  0.00000000000E+00 0.  1.
         21   -1    0    0  502  503 -0.00000000000E+00 -0.00000000000E+00 -0.39007337574E+02  0.39007337574E+02  0.00000000000E+00 0.  1.
         -6    2    1    2    0  503 -0.27691000672E+02 -0.34772418149E+02  0.65997719076E+03  0.68326303485E+03  0.17117993426E+03 0.  0.
        -24    2    3    3    0    0  0.33573617611E+02  0.94958566163E+01  0.21637502980E+03  0.23324303440E+03  0.79792233217E+02 0.  0.
          6    2    1    2  501    0  0.27691000672E+02  0.34772418149E+02  0.26040010045E+03  0.31512893151E+03  0.17182001797E+03 0.  0.
         24    2    5    5    0    0  0.29153632890E+02  0.55315445209E+01  0.42771211144E+02  0.95489246008E+02  0.80051778899E+02 0.  0.
          5    1    5    5  501    0 -0.14626322177E+01  0.29240873628E+02  0.21762888931E+03  0.21963968550E+03  0.47000000000E+01 0. -1.
        -13    1    6    6    0    0 -0.73714763288E+01 -0.42105833337E+01 -0.20273911985E+02  0.21979517339E+02  0.00000000000E+00 0.  1.
         14    1    6    6    0    0  0.36525109219E+02  0.97421278547E+01  0.63045123129E+02  0.73509728669E+02  0.00000000000E+00 0. -1.
         -5    1    3    3    0  503 -0.61264618283E+02 -0.44268274765E+02  0.44360216096E+03  0.45002000045E+03  0.47000000000E+01 0.  1.
         11    1    4    4    0    0 -0.87412901620E+01  0.33749136010E+02  0.59502243283E+02  0.68963260442E+02  0.00000000000E+00 0. -1.
        -12    1    4    4    0    0  0.42314907773E+02 -0.24253279394E+02  0.15687278652E+03  0.16427977396E+03  0.00000000000E+00 0.  1.
</event>
<event>
12    1  0.8493057E-002  0.2004826E+03  0.7818608E-02  0.1149547E+00
         21   -1    0    0  503  502  0.00000000000E+00  0.00000000000E+00  0.60210936752E+03  0.60210936752E+03  0.00000000000E+00 0.  1.
         21   -1    0    0  501  503 -0.00000000000E+00 -0.00000000000E+00 -0.69749929268E+02  0.69749929268E+02  0.00000000000E+00 0. -1.
          6    2    1    2  501    0  0.86541429983E+02 -0.51479152364E+02  0.19337352487E+03  0.27854372372E+03  0.17336021363E+03 0.  0.
         24    2    3    3    0    0 -0.14125332816E+02 -0.59183593928E+02  0.97192050098E+02  0.13902268000E+03  0.78605267848E+02 0.  0.
         -6    2    1    2    0  502 -0.86541429983E+02  0.51479152364E+02  0.33898591339E+03  0.39331557308E+03  0.17218062701E+03 0.  0.
        -24    2    5    5    0    0 -0.57970207818E+02  0.85263678665E+02  0.15271017626E+03  0.20179938787E+03  0.82293104918E+02 0.  0.
          5    1    3    3  501    0  0.10066676280E+03  0.77044415638E+01  0.96181474770E+02  0.13952104372E+03  0.47000000000E+01 0. -1.
        -11    1    4    4    0    0 -0.15280687871E+01  0.93310158947E+01  0.58652232829E+02  0.59409488028E+02  0.00000000000E+00 0.  1.
         12    1    4    4    0    0 -0.12597264028E+02 -0.68514609823E+02  0.38539817268E+02  0.79613191967E+02  0.00000000000E+00 0. -1.
         -5    1    5    5    0  502 -0.28571222165E+02 -0.33784526300E+02  0.18627573713E+03  0.19151618521E+03  0.47000000000E+01 0.  1.
         13    1    6    6    0    0  0.74820666105E+01  0.13630328616E+02 -0.52546045753E+01  0.16412740423E+02  0.00000000000E+00 0. -1.
        -14    1    6    6    0    0 -0.65452274428E+02  0.71633350049E+02  0.15796478083E+03  0.18538664744E+03  0.00000000000E+00 0.  1.
</event>
<event>
12    1  0.8493057E-002  0.2862222E+03  0.7818608E-02  0.1092528E+00
         21   -1    0    0  501  502  0.00000000000E+00  0.00000000000E+00  0.43005913373E+02  0.43005913373E+02  0.00000000000E+00 0. -1.
         21   -1    0    0  502  503 -0.00000000000E+00 -0.00000000000E+00 -0.23469209557E+04  0.23469209557E+04  0.00000000000E+00 0.  1.
         -6    2    1    2    0  503  0.22817512156E+03  0.20621696807E+01 -0.16783936492E+04  0.17026239794E+04  0.17278609537E+03 0.  0.
        -24    2    3    3    0    0  0.23342917019E+03 -0.16730369883E+01 -0.12482650696E+04  0.12724214203E+04  0.79991314530E+02 0.  0.
          6    2    1    2  501    0 -0.22817512156E+03 -0.20621696807E+01 -0.62552139316E+03  0.68730288975E+03  0.17041159090E+03 0.  0.
         24    2    5    5    0    0 -0.15269980261E+03 -0.50068154322E+02 -0.51351660878E+03  0.54388650276E+03  0.79304291178E+02 0.  0.
          5    1    5    5  501    0 -0.75475318958E+02  0.48005984641E+02 -0.11200478438E+03  0.14341638699E+03  0.47000000000E+01 0. -1.
        -13    1    6    6    0    0  0.32791210476E+01 -0.85936250282E+01 -0.93106141211E+02  0.93559374502E+02  0.00000000000E+00 0.  1.
         14    1    6    6    0    0 -0.15597892365E+03 -0.41474529293E+02 -0.42041046757E+03  0.45032712826E+03  0.00000000000E+00 0. -1.
         -5    1    3    3    0  503 -0.52540486296E+01  0.37352066690E+01 -0.43012857962E+03  0.43020255903E+03  0.47000000000E+01 0.  1.
         13    1    4    4    0    0  0.16771062095E+03  0.31106754207E+02 -0.95412645458E+03  0.96925320421E+03  0.00000000000E+00 0. -1.
        -14    1    4    4    0    0  0.65718549248E+02 -0.32779791195E+02 -0.29413861501E+03  0.30316821612E+03  0.00000000000E+00 0.  1.
</event>
<event>
12    1  0.8493057E-002  0.2654830E+03  0.7818608E-02  0.1104623E+00
         21   -1    0    0  501  502  0.00000000000E+00  0.00000000000E+00  0.28363565622E+03  0.28363565622E+03  0.00000000000E+00 0.  1.
         21   -1    0    0  502  503 -0.00000000000E+00 -0.00000000000E+00 -0.30377474344E+03  0.30377474344E+03  0.00000000000E+00 0. -1.
         -6    2    1    2    0  503 -0.18312874166E+03  0.77218650046E+02  0.12025466793E+03  0.29144879235E+03  0.17601806005E+03 0.  0.
        -24    2    3    3    0    0 -0.14893309787E+02  0.32168931402E+02  0.34954203411E+02  0.97461945023E+02  0.83787729219E+02 0.  0.
          6    2    1    2  501    0  0.18312874166E+03 -0.77218650046E+02 -0.14039375514E+03  0.29596160732E+03  0.16847554893E+03 0.  0.
         24    2    5    5    0    0  0.48827275432E+02 -0.55970066900E+02 -0.11618604642E+03  0.15777155964E+03  0.76654526492E+02 0.  0.
          5    1    5    5  501    0  0.13430146623E+03 -0.21248583145E+02 -0.24207708721E+02  0.13819004768E+03  0.47000000000E+01 0. -1.
        -11    1    6    6    0    0 -0.15961530376E+02 -0.34876053857E+02 -0.36790020610E+02  0.53147109057E+02  0.00000000000E+00 0.  1.
         12    1    6    6    0    0  0.64788805808E+02 -0.21094013043E+02 -0.79396025813E+02  0.10462445058E+03  0.00000000000E+00 0. -1.
         -5    1    3    3    0  503 -0.16823543187E+03  0.45049718644E+02  0.85300464517E+02  0.19398684732E+03  0.47000000000E+01 0.  1.
         11    1    4    4    0    0 -0.34228159604E+02 -0.26033865442E+01  0.44835060156E+02  0.56467044819E+02  0.00000000000E+00 0. -1.
        -12    1    4    4    0    0  0.19334849816E+02  0.34772317946E+02 -0.98808567453E+01  0.40994900205E+02  0.00000000000E+00 0.  1.
</event>
<event>
12    1  0.8493057E-002  0.1976857E+03  0.7818608E-02  0.1152034E+00
         21   -1    0    0  503  502  0.00000000000E+00  0.00000000000E+00  0.27044471762E+03  0.27044471762E+03  0.00000000000E+00 0.  1.
         21   -1    0    0  501  503 -0.00000000000E+00 -0.00000000000E+00 -0.28693292883E+03  0.28693292883E+03  0.00000000000E+00 0. -1.
          6    2    1    2  501    0  0.93645058819E+02 -0.40952158638E+01 -0.20537404811E+03  0.28505811097E+03  0.17405016276E+03 0.  0.
         24    2    3    3    0    0  0.10297846574E+02  0.56954668574E+02 -0.11249984760E+03  0.14605612070E+03  0.72981468655E+02 0.  0.
         -6    2    1    2    0  502 -0.93645058819E+02  0.40952158638E+01  0.18888583689E+03  0.27231953548E+03  0.17231918695E+03 0.  0.
        -24    2    5    5    0    0 -0.33825526263E+00  0.45266548880E+02  0.11035113336E+03  0.14351337138E+03  0.79809399608E+02 0.  0.
          5    1    3    3  501    0  0.83347212245E+02 -0.61049884437E+02 -0.92874200507E+02  0.13900199027E+03  0.47000000000E+01 0. -1.
        -11    1    4    4    0    0  0.30750996894E+02  0.56809892547E+02 -0.54373638549E+02  0.84436249741E+02  0.00000000000E+00 0.  1.
         12    1    4    4    0    0 -0.20453150321E+02  0.14477602632E+00 -0.58126209054E+02  0.61619870960E+02  0.00000000000E+00 0. -1.
         -5    1    5    5    0  502 -0.93306803556E+02 -0.41171333016E+02  0.78534703529E+02  0.12880616410E+03  0.47000000000E+01 0.  1.
         13    1    6    6    0    0  0.31870150399E+02  0.29002373331E+02  0.22653067184E+02  0.48682703274E+02  0.00000000000E+00 0. -1.
        -14    1    6    6    0    0 -0.32208405661E+02  0.16264175549E+02  0.87698066181E+02  0.94830668105E+02  0.00000000000E+00 0.  1.
</event>
<event>
12    1  0.8493057E-002  0.2252186E+03  0.7818608E-02  0.1130291E+00
         21   -1    0    0  503  502  0.00000000000E+00  0.00000000000E+00  0.14567840407E+04  0.14567840407E+04  0.00000000000E+00 0. -1.
         21   -1    0    0  501  503 -0.00000000000E+00 -0.00000000000E+00 -0.11116669838E+03  0.11116669838E+03  0.00000000000E+00 0. -1.
          6    2    1    2  501    0  0.12173333343E+03  0.75116846890E+02  0.22856612817E+02  0.22637545997E+03  0.17395941759E+03 0.  0.
         24    2    3    3    0    0  0.12413977575E+02  0.21573538334E+02  0.56788340230E+02  0.99919698603E+02  0.78355001036E+02 0.  0.
         -6    2    1    2    0  502 -0.12173333343E+03 -0.75116846890E+02  0.13227607295E+04  0.13415752791E+04  0.17224034628E+03 0.  0.
        -24    2    5    5    0    0 -0.89515574750E+02 -0.11406305298E+03  0.84349220670E+03  0.85962590638E+03  0.80337898703E+02 0.  0.
          5    1    3    3  501    0  0.10931935586E+03  0.53543308556E+02 -0.33931727413E+02  0.12645576136E+03  0.47000000000E+01 0. -1.
        -13    1    4    4    0    0 -0.30945639138E+02  0.19245419133E+02  0.14237309730E+02  0.39124413447E+02  0.00000000000E+00 0.  1.
         14    1    4    4    0    0  0.43359616713E+02  0.23281192012E+01  0.42551030500E+02  0.60795285155E+02  0.00000000000E+00 0. -1.
         -5    1    5    5    0  502 -0.32217758684E+02  0.38946206094E+02  0.47926852282E+03  0.48194937277E+03  0.47000000000E+01 0.  1.
         11    1    6    6    0    0  0.17787055902E+01  0.14411583471E+01  0.17918479767E+03  0.17919942089E+03  0.00000000000E+00 0. -1.
        -12    1    6    6    0    0 -0.91294280340E+02 -0.11550421133E+03  0.66430740903E+03  0.68042648549E+03  0.00000000000E+00 0.  1.
</event>
<event>
12    1  0.8493057E-002  0.1939760E+03  0.7818608E-02  0.1155529E+00
         21   -1    0    0  501  502  0.00000000000E+00  0.00000000000E+00  0.10699489066E+04  0.10699489066E+04  0.00000000000E+00 0. -1.
         21   -1    0    0  502  503 -0.00000000000E+00 -0.00000000000E+00 -0.58547434093E+02  0.58547434093E+02  0.00000000000E+00 0. -1.
         -6    2    1    2    0  503  0.81849300408E+02  0.27832732427E+02  0.14325124865E+03  0.23893942200E+03  0.17057889134E+03 0.  0.
        -24    2    3    3    0    0  0.15798033327E+02  0.19317805992E+02  0.26368619435E+01  0.83280276412E+02  0.79409671407E+02 0.  0.
          6    2    1    2  501    0 -0.81849300408E+02 -0.27832732427E+02  0.86815022388E+03  0.88955691872E+03  0.17364541873E+03 0.  0.
         24    2    5    5    0    0 -0.77664768239E+02  0.41378777654E+02  0.64114366638E+03  0.65215049381E+03  0.80567029104E+02 0.  0.
          5    1    5    5  501    0 -0.41845321690E+01 -0.69211510081E+02  0.22700655750E+03  0.23740642490E+03  0.47000000000E+01 0. -1.
        -11    1    6    6    0    0 -0.93818053911E+02  0.28907376662E+02  0.55559350376E+03  0.56419996906E+03  0.00000000000E+00 0.  1.
         12    1    6    6    0    0  0.16153285672E+02  0.12471400992E+02  0.85550162618E+02  0.87950524755E+02  0.00000000000E+00 0. -1.
         -5    1    3    3    0  503  0.66051267081E+02  0.85149264349E+01  0.14061438671E+03  0.15565914558E+03  0.47000000000E+01 0.  1.
         13    1    4    4    0    0  0.39682731931E+02  0.34076626664E+02 -0.86560446544E+01  0.53017570742E+02  0.00000000000E+00 0. -1.
        -14    1    4    4    0    0 -0.23884698604E+02 -0.14758820672E+02  0.11292906598E+02  0.30262705670E+02  0.00000000000E+00 0.  1.
</event>
<event>
12    1  0.8493057E-002  0.2300117E+03  0.7818608E-02  0.1126834E+00
         21   -1    0    0  503  502  0.00000000000E+00  0.00000000000E+00  0.22009731789E+03  0.22009731789E+03  0.00000000000E+00 0. -1.
         21   -1    0    0  501  503 -0.00000000000E+00 -0.00000000000E+00 -0.24080205584E+03  0.24080205584E+03  0.00000000000E+00 0. -1.
          6    2    1    2  501    0  0.12711129499E+03 -0.82779699812E+02  0.86228678818E+01  0.22902554743E+03  0.17137265683E+03 0.  0.
         24    2    3    3    0    0  0.71914417973E+02  0.18062862050E+02 -0.25153612486E+02  0.10911367087E+03  0.75994331702E+02 0.  0.
         -6    2    1    2    0  502 -0.12711129499E+03  0.82779699812E+02 -0.29327605825E+02  0.23187382630E+03  0.17290344949E+03 0.  0.
        -24    2    5    5    0    0 -0.12954227435E+03  0.10175327797E+03  0.14568464993E+02  0.18376082014E+03  0.80130321507E+02 0.  0.
          5    1    3    3  501    0  0.55196877012E+02 -0.10084256186E+03  0.33776480368E+02  0.11991187656E+03  0.47000000000E+01 0. -1.
        -13    1    4    4    0    0  0.63205560787E+02  0.37195361756E+01 -0.48925799906E+02  0.80015696961E+02  0.00000000000E+00 0.  1.
         14    1    4    4    0    0  0.87088571860E+01  0.14343325874E+02  0.23772187420E+02  0.29097973904E+02  0.00000000000E+00 0. -1.
         -5    1    5    5    0  502  0.24309793615E+01 -0.18973578158E+02 -0.43896070818E+02  0.48113006163E+02  0.47000000000E+01 0.  1.
         11    1    6    6    0    0 -0.92996980466E+02  0.82681197562E+02  0.45211990633E+02  0.13239615894E+03  0.00000000000E+00 0. -1.
        -12    1    6    6    0    0 -0.36545293880E+02  0.19072080407E+02 -0.30643525640E+02  0.51364661193E+02  0.00000000000E+00 0.  1.
</event>
<event>
12    1  0.8493057E-002  0.1892084E+03  0.7818608E-02  0.1161358E+00
         21   -1    0    0  503  502  0.00000000000E+00  0.00000000000E+00  0.78081210599E+03  0.78081210599E+03  0.00000000000E+00 0.  1.
         21   -1    0    0  501  503 -0.00000000000E+00 -0.00000000000E+00 -0.84557245097E+02  0.84557245097E+02  0.00000000000E+00 0.  1.
          6    2    1    2  501    0 -0.23688222649E+02  0.42588582157E+02  0.51630060244E+02  0.19612615709E+03  0.18282474437E+03 0.  0.
         24    2    3    3    0    0  0.15520241759E+02 -0.13581401970E+02 -0.31501506539E+02  0.88305388252E+02  0.79875930644E+02 0.  0.
         -6    2    1    2    0  502  0.23688222649E+02 -0.42588582157E+02  0.64462480065E+03  0.66924319399E+03  0.17311961146E+03 0.  0.
        -24    2    5    5    0    0 -0.12236693115E+02  0.36026820985E+02  0.22227202831E+03  0.23811103851E+03  0.76448306753E+02 0.  0.
          5    1    3    3  501    0 -0.39208464408E+02  0.56169984126E+02  0.83131566783E+02  0.10782076884E+03  0.47000000000E+01 0. -1.
        -13    1    4    4    0    0  0.10281894216E+02  0.20447676233E+02 -0.45662286312E+02  0.51077090787E+02  0.00000000000E+00 0.  1.
         14    1    4    4    0    0  0.52383475429E+01 -0.34029078203E+02  0.14160779773E+02  0.37228297465E+02  0.00000000000E+00 0. -1.
         -5    1    5    5    0  502  0.35924915764E+02 -0.78615403142E+02  0.42235277234E+03  0.43113215548E+03  0.47000000000E+01 0.  1.
         11    1    6    6    0    0 -0.12907806359E+02  0.10491096547E+01 -0.15330107457E+00  0.12951277824E+02  0.00000000000E+00 0. -1.
        -12    1    6    6    0    0  0.67111324362E+00  0.34977711331E+02  0.22242532938E+03  0.22515976069E+03  0.00000000000E+00 0.  1.
</event>
<event>
12    1  0.8493057E-002  0.2323228E+03  0.7818608E-02  0.1125431E+00
         21   -1    0    0  501  502  0.00000000000E+00  0.00000000000E+00  0.97477652012E+03  0.97477652012E+03  0.00000000000E+00 0.  1.
         21   -1    0    0  502  503 -0.00000000000E+00 -0.00000000000E+00 -0.62818563076E+02  0.62818563076E+02  0.00000000000E+00 0. -1.
         -6    2    1    2    0  503 -0.91321580672E+02  0.12237478770E+03  0.27272775654E+03  0.35826569285E+03  0.17509613853E+03 0.  0.
        -24    2    3    3    0    0  0.72115818166E+01  0.38783596440E+02  0.17530942493E+03  0.19637470268E+03  0.79205145772E+02 0.  0.
          6    2    1    2  501    0  0.91321580672E+02 -0.12237478770E+03  0.63923020051E+03  0.67932939035E+03  0.17192426120E+03 0.  0.
         24    2    5    5    0    0 -0.86154305862E+01 -0.19963660157E+02  0.29672446404E+03  0.30810477536E+03  0.80064796664E+02 0.  0.
          5    1    5    5  501    0  0.99937011258E+02 -0.10241112754E+03  0.34250573646E+03  0.37122461499E+03  0.47000000000E+01 0. -1.
        -11    1    6    6    0    0  0.10011827932E+02  0.75716759130E+00  0.26763837711E+03  0.26782664338E+03  0.00000000000E+00 0.  1.
         12    1    6    6    0    0 -0.18627258519E+02 -0.20720827748E+02  0.29086086930E+02  0.40278131975E+02  0.00000000000E+00 0. -1.
         -5    1    3    3    0  503 -0.98533162489E+02  0.83591191258E+02  0.97418331604E+02  0.16189099017E+03  0.47000000000E+01 0.  1.
         11    1    4    4    0    0  0.16407077529E+02  0.67729722854E+01 -0.18184493723E+00  0.17751011639E+02  0.00000000000E+00 0. -1.
        -12    1    4    4    0    0 -0.91954957121E+01  0.32010624155E+02  0.17549126987E+03  0.17862369104E+03  0.00000000000E+00 0.  1.
</event>
<event>
12    1  0.8493057E-002  0.1977157E+03  0.7818608E-02  0.1151772E+00
         21   -1    0    0  503  502  0.00000000000E+00  0.00000000000E+00  0.56006276395E+03  0.56006276395E+03  0.00000000000E+00 0.  1.
         21   -1    0    0  501  503 -0.00000000000E+00 -0.00000000000E+00 -0.17518781447E+03  0.17518781447E+03  0.00000000000E+00 0. -1.
          6    2    1    2  501    0 -0.67479627799E+02 -0.67428285852E+02 -0.92982741094E+02  0.21810506352E+03  0.17269613397E+03 0.  0.
         24    2    3    3    0    0 -0.91520295217E+02 -0.49129302181E+02 -0.12266951086E+02  0.13179205610E+03  0.80181139875E+02 0.  0.
         -6    2    1    2    0  502  0.67479627799E+02  0.67428285852E+02  0.47785769057E+03  0.51714551491E+03  0.17318036047E+03 0.  0.
        -24    2    5    5    0    0  0.36110411580E+02  0.54505581867E+02  0.12123364042E+03  0.15888049129E+03  0.79187086466E+02 0.  0.
          5    1    3    3  501    0  0.24040667418E+02 -0.18298983670E+02 -0.80715790009E+02  0.86313007421E+02  0.47000000000E+01 0. -1.
        -11    1    4    4    0    0 -0.22218719609E+02 -0.41663868748E+02  0.24273950505E+02  0.53092128731E+02  0.00000000000E+00 0.  1.
         12    1    4    4    0    0 -0.69301575608E+02 -0.74654334334E+01 -0.36540901591E+02  0.78699927365E+02  0.00000000000E+00 0. -1.
         -5    1    5    5    0  502  0.31369216219E+02  0.12922703985E+02  0.35662405015E+03  0.35826502362E+03  0.47000000000E+01 0.  1.
         13    1    6    6    0    0  0.55835283052E+02  0.16370451238E+02  0.55793458035E+02  0.80613153187E+02  0.00000000000E+00 0. -1.
        -14    1    6    6    0    0 -0.19724871472E+02  0.38135130629E+02  0.65440182387E+02  0.78267338102E+02  0.00000000000E+00 0.  1.
</event>
<event>
12    1  0.8493057E-002  0.1789938E+03  0.7818608E-02  0.1168924E+00
         21   -1    0    0  501  502  0.00000000000E+00  0.00000000000E+00  0.51918667073E+03  0.51918667073E+03  0.00000000000E+00 0. -1.
         21   -1    0    0  502  503 -0.00000000000E+00 -0.00000000000E+00 -0.83382532749E+02  0.83382532749E+02  0.00000000000E+00 0. -1.
         -6    2    1    2    0  503 -0.25855878561E+02 -0.42617407264E+02  0.63317677356E+02  0.18930785916E+03  0.17129964219E+03 0.  0.
        -24    2    3    3    0    0  0.39290245362E+02 -0.63830229432E+02  0.40471331586E+02  0.11693350734E+03  0.80109268427E+02 0.  0.
          6    2    1    2  501    0  0.25855878561E+02  0.42617407264E+02  0.37248646062E+03  0.41326134432E+03  0.17191278458E+03 0.  0.
         24    2    5    5    0    0 -0.11427704497E+01 -0.33488855029E+02  0.11872488007E+03  0.14691923354E+03  0.79792572970E+02 0.  0.
          5    1    5    5  501    0  0.26998649011E+02  0.76106262293E+02  0.25376158056E+03  0.26634211078E+03  0.47000000000E+01 0. -1.
        -11    1    6    6    0    0  0.11392007728E+02  0.11410042487E+02 -0.31546378828E+01  0.16429201131E+02  0.00000000000E+00 0.  1.
         12    1    6    6    0    0 -0.12534778178E+02 -0.44898897515E+02  0.12187951795E+03  0.13049003241E+03  0.00000000000E+00 0. -1.
         -5    1    3    3    0  503 -0.65146123923E+02  0.21212822168E+02  0.22846345770E+02  0.72374351821E+02  0.47000000000E+01 0.  1.
         13    1    4    4    0    0 -0.57844242452E+01 -0.14221889266E+02 -0.20981244937E+02  0.25998737224E+02  0.00000000000E+00 0. -1.
        -14    1    4    4    0    0  0.45074669607E+02 -0.49608340166E+02  0.61452576523E+02  0.90934770113E+02  0.00000000000E+00 0.  1.
</event>
<event>
12    1  0.8493057E-002  0.2128193E+03  0.7818608E-02  0.1139598E+00
         21   -1    0    0  503  502  0.00000000000E+00  0.00000000000E+00  0.79517128382E+02  0.79517128382E+02  0.00000000000E+00 0.  1.
         21   -1    0    0  501  503 -0.00000000000E+00 -0.00000000000E+00 -0.63137806373E+03  0.63137806373E+03  0.00000000000E+00 0.  1.
          6    2    1    2  501    0 -0.12345305441E+03 -0.20111402194E+02 -0.38937873251E+03  0.44314063865E+03  0.17062445063E+03 0.  0.
         24    2    3    3    0    0 -0.70697534199E+02  0.54317714866E+02 -0.20392923205E+03  0.23641268795E+03  0.79719958926E+02 0.  0.
         -6    2    1    2    0  502  0.12345305441E+03  0.20111402194E+02 -0.16248220284E+03  0.26775455346E+03  0.17218277939E+03 0.  0.
        -24    2    5    5    0    0  0.96171898419E+01  0.15473477265E+02 -0.12189702639E+03  0.14672000898E+03  0.79598725824E+02 0.  0.
          5    1    3    3  501    0 -0.52755520213E+02 -0.74429117060E+02 -0.18544950046E+03  0.20672795070E+03  0.47000000000E+01 0. -1.
        -11    1    4    4    0    0 -0.76060822227E+02  0.36088067655E+02 -0.20001625909E+03  0.21701175361E+03  0.00000000000E+00 0.  1.
         12    1    4    4    0    0  0.53632880283E+01  0.18229647212E+02 -0.39129729569E+01  0.19400934341E+02  0.00000000000E+00 0. -1.
         -5    1    5    5    0  502  0.11383586457E+03  0.46379249290E+01 -0.40585176444E+02  0.12103454448E+03  0.47000000000E+01 0.  1.
         11    1    6    6    0    0 -0.78171594498E+01  0.30769277876E+01  0.10022237636E+02  0.13077488815E+02  0.00000000000E+00 0. -1.
        -12    1    6    6    0    0  0.17434349292E+02  0.12396549478E+02 -0.13191926403E+03  0.13364252017E+03  0.00000000000E+00 0.  1.
</event>
<event>
12    1  0.8493057E-002  0.1929861E+03  0.7818608E-02  0.1156136E+00
         21   -1    0    0  501  502  0.00000000000E+00  0.00000000000E+00  0.23648717314E+03  0.23648717314E+03  0.00000000000E+00 0. -1.
         21   -1    0    0  502  503 -0.00000000000E+00 -0.00000000000E+00 -0.21412622954E+03  0.21412622954E+03  0.00000000000E+00 0. -1.
         -6    2    1    2    0  503 -0.54936718914E+02 -0.67083395100E+02 -0.10593447456E+03  0.22014935536E+03  0.17241055879E+03 0.  0.
        -24    2    3    3    0    0 -0.55652155390E+02 -0.98230687013E+02 -0.12144440092E+03  0.18503079248E+03  0.82104941278E+02 0.  0.
          6    2    1    2  501    0  0.54936718914E+02  0.67083395100E+02  0.12829541816E+03  0.23046404732E+03  0.17069193831E+03 0.  0.
         24    2    5    5    0    0 -0.25269925202E+02  0.49695605312E+02  0.10872870309E+03  0.14596323470E+03  0.79844302883E+02 0.  0.
          5    1    5    5  501    0  0.80206644116E+02  0.17387789788E+02  0.19566715067E+02  0.84500812615E+02  0.47000000000E+01 0. -1.
        -13    1    6    6    0    0  0.21249170179E+02  0.16009424635E+02  0.45361628169E+01  0.26988991895E+02  0.00000000000E+00 0.  1.
         14    1    6    6    0    0 -0.46519095381E+02  0.33686180677E+02  0.10419254027E+03  0.11897424281E+03  0.00000000000E+00 0. -1.
         -5    1    3    3    0  503  0.71543647599E+00  0.31147291913E+02  0.15509926359E+02  0.35118562877E+02  0.47000000000E+01 0.  1.
         13    1    4    4    0    0 -0.53033789818E+02 -0.22695877999E+02 -0.80611500056E+02  0.99125676199E+02  0.00000000000E+00 0. -1.
        -14    1    4    4    0    0 -0.26183655718E+01 -0.75534809014E+02 -0.40832900860E+02  0.85905116283E+02  0.00000000000E+00 0.  1.
</event>
<event>
12    1  0.8493057E-002  0.2182321E+03  0.7818608E-02  0.1135240E+00
         21   -1    0    0  501  502  0.00000000000E+00  0.00000000000E+00  0.42206991746E+03  0.42206991746E+03  0.00000000000E+00 0. -1.
         21   -1    0    0  502  503 -0.00000000000E+00 -0.00000000000E+00 -0.63617005472E+03  0.63617005472E+03  0.00000000000E+00 0. -1.
         -6    2    1    2    0  503  0.62444334312E+02  0.12031723666E+03 -0.58700426033E+03  0.62625812326E+03  0.17102544542E+03 0.  0.
        -24    2    3    3    0    0  0.10790367936E+01  0.12680690475E+03 -0.47817920867E+03  0.50106707965E+03  0.79572025843E+02 0.  0.
          6    2    1    2  501    0 -0.62444334312E+02 -0.12031723666E+03  0.37290412307E+03  0.43198184892E+03  0.17080778808E+03 0.  0.
         24    2    5    5    0    0 -0.24177847034E+02 -0.11356548969E+03  0.36602509255E+03  0.39224117458E+03  0.79981759940E+02 0.  0.
          5    1    5    5  501    0 -0.38266487277E+02 -0.67517469736E+01  0.68790305122E+01  0.39740674334E+02  0.47000000000E+01 0. -1.
        -13    1    6    6    0    0  0.15587038535E+02  0.37461021349E+01  0.28418170147E+02  0.32627924329E+02  0.00000000000E+00 0.  1.
         14    1    6    6    0    0 -0.39764885570E+02 -0.11731159183E+03  0.33760692241E+03  0.35961325025E+03  0.00000000000E+00 0. -1.
         -5    1    3    3    0  503  0.61365297518E+02 -0.64896680842E+01 -0.10882505166E+03  0.12519104361E+03  0.47000000000E+01 0.  1.
         11    1    4    4    0    0 -0.87692040996E+01  0.11854469896E+02 -0.19115241767E+03  0.19172030194E+03  0.00000000000E+00 0. -1.
        -12    1    4    4    0    0  0.98482408932E+01  0.11495243485E+03 -0.28702679100E+03  0.30934677771E+03  0.00000000000E+00 0.  1.
</event>
<event>
12    1  0.8493057E-002  0.2020218E+03  0.7818608E-02  0.1148646E+00
         21   -1    0    0  503  502  0.00000000000E+00  0.00000000000E+00  0.51291462328E+02  0.51291462328E+02  0.00000000000E+00 0.  1.
         21   -1    0    0  501  503 -0.00000000000E+00 -0.00000000000E+00 -0.22121254609E+04  0.22121254609E+04  0.00000000000E+00 0.  1.
          6    2    1    2  501    0 -0.81755546912E+02  0.55320158049E+02 -0.19923144908E+04  0.20025308540E+04  0.17626259308E+03 0.  0.
         24    2    3    3    0    0 -0.55744947856E+02  0.87210644264E+01 -0.18025247804E+04  0.18053247411E+04  0.83176203278E+02 0.  0.
         -6    2    1    2    0  502  0.81755546912E+02 -0.55320158049E+02 -0.16851950779E+03  0.26088606923E+03  0.17296944029E+03 0.  0.
        -24    2    5    5    0    0  0.10376947054E+03 -0.75672761698E+02 -0.88696241748E+02  0.17548884965E+03  0.80217474245E+02 0.  0.
          5    1    3    3  501    0 -0.26010599056E+02  0.46599093623E+02 -0.18978971041E+03  0.19720611290E+03  0.47000000000E+01 0. -1.
        -11    1    4    4    0    0  0.30930977130E+01  0.48997557649E+01 -0.11799315062E+04  0.11799457336E+04  0.00000000000E+00 0.  1.
         12    1    4    4    0    0 -0.58838045569E+02  0.38213086615E+01 -0.62259327416E+03  0.62537900751E+03  0.00000000000E+00 0. -1.
         -5    1    5    5    0  502 -0.22013923625E+02  0.20352603649E+02 -0.79823266046E+02  0.85397219574E+02  0.47000000000E+01 0.  1.
         11    1    6    6    0    0  0.44555091549E+02 -0.80128953004E+02 -0.47884067545E+02  0.10343446823E+03  0.00000000000E+00 0. -1.
        -12    1    6    6    0    0  0.59214378989E+02  0.44561913057E+01 -0.40812174203E+02  0.72054381429E+02  0.00000000000E+00 0.  1.
</event>
<event>
12    1  0.8493057E-002  0.1858375E+03  0.7818608E-02  0.1166978E+00
         21   -1    0    0  501  502  0.00000000000E+00  0.00000000000E+00  0.24966793248E+03  0.24966793248E+03  0.00000000000E+00 0.  1.
         21   -1    0    0  502  503 -0.00000000000E+00 -0.00000000000E+00 -0.30983544613E+03  0.30983544613E+03  0.00000000000E+00 0. -1.
         -6    2    1    2    0  503  0.94318392632E+01 -0.59755468488E+02 -0.24569676592E+03  0.29690732925E+03  0.15532992556E+03 0.  0.
        -24    2    3    3    0    0 -0.44824499073E+02 -0.62042482552E+02 -0.18648813223E+03  0.21642917702E+03  0.78773471708E+02 0.  0.
          6    2    1    2  501    0 -0.94318392632E+01  0.59755468488E+02  0.18552925227E+03  0.26259604936E+03  0.17571541221E+03 0.  0.
         24    2    5    5    0    0 -0.74229018506E+02  0.54311776299E+02  0.12092765841E+03  0.17081498295E+03  0.78067557920E+02 0.  0.
          5    1    5    5  501    0  0.64797179243E+02  0.54436921887E+01  0.64601593860E+02  0.91781066412E+02  0.47000000000E+01 0. -1.
        -13    1    6    6    0    0  0.82575196718E+01  0.44179303293E+01  0.50667632347E+02  0.51525854744E+02  0.00000000000E+00 0.  1.
         14    1    6    6    0    0 -0.82486538178E+02  0.49893845970E+02  0.70260026059E+02  0.11928912821E+03  0.00000000000E+00 0. -1.
         -5    1    3    3    0  503  0.54256338336E+02  0.22870140639E+01 -0.59208633691E+02  0.80478152231E+02  0.47000000000E+01 0.  1.
         11    1    4    4    0    0  0.56511624565E+01 -0.34653324444E+02 -0.13435638307E+03  0.13886837726E+03  0.00000000000E+00 0. -1.
        -12    1    4    4    0    0 -0.50475661529E+02 -0.27389158108E+02 -0.52131749163E+02  0.77560799760E+02  0.00000000000E+00 0.  1.
</event>
<event>
12    1  0.8493057E-002  0.2404853E+03  0.7818608E-02  0.1119478E+00
         21   -1    0    0  503  502  0.00000000000E+00  0.00000000000E+00  0.67315339898E+03  0.67315339898E+03  0.00000000000E+00 0. -1.
         21   -1    0    0  501  503 -0.00000000000E+00 -0.00000000000E+00 -0.19316260815E+03  0.19316260815E+03  0.00000000000E+00 0.  1.
          6    2    1    2  501    0 -0.10435464278E+03  0.13112930739E+03 -0.82802803464E+02  0.25429493885E+03  0.17240888880E+03 0.  0.
         24    2    3    3    0    0 -0.10127621047E+03  0.13512315548E+03 -0.11642186870E+03  0.21997644361E+03  0.79501234423E+02 0.  0.
         -6    2    1    2    0  502  0.10435464278E+03 -0.13112930739E+03  0.56279359429E+03  0.61202106829E+03  0.17247716234E+03 0.  0.
        -24    2    5    5    0    0  0.78783545258E+01 -0.10659293917E+03  0.39446004281E+03  0.41639902936E+03  0.79782849831E+02 0.  0.
          5    1    3    3  501    0 -0.30784323045E+01 -0.39938480967E+01  0.33619065237E+02  0.34318495239E+02  0.47000000000E+01 0. -1.
        -13    1    4    4    0    0 -0.60011171302E+02  0.12100037947E+03 -0.57807278654E+02  0.14691532928E+03  0.00000000000E+00 0.  1.
         14    1    4    4    0    0 -0.41265039171E+02  0.14122776016E+02 -0.58614590047E+02  0.73061114326E+02  0.00000000000E+00 0. -1.
         -5    1    5    5    0  502  0.96476288251E+02 -0.24536368219E+02  0.16833355148E+03  0.19562203893E+03  0.47000000000E+01 0.  1.
         13    1    6    6    0    0  0.33861496947E+02 -0.92655236813E+02  0.24606315595E+03  0.26510124594E+03  0.00000000000E+00 0. -1.
        -14    1    6    6    0    0 -0.25983142421E+02 -0.13937702356E+02  0.14839688686E+03  0.15129778342E+03  0.00000000000E+00 0.  1.
</event>
<event>
12    1  0.8493057E-002  0.2381623E+03  0.7818608E-02  0.1121327E+00
         21   -1    0    0  501  502  0.00000000000E+00  0.00000000000E+00  0.98846446487E+03  0.98846446487E+03  0.00000000000E+00 0.  1.
         21   -1    0    0  502  503 -0.00000000000E+00 -0.00000000000E+00 -0.64144012937E+02  0.64144012937E+02  0.00000000000E+00 0. -1.
         -6    2    1    2    0  503 -0.78585966734E+02 -0.14522570539E+03  0.28747130236E+03  0.37331092980E+03  0.17162470961E+03 0.  0.
        -24    2    3    3    0    0 -0.37030953733E+02 -0.63090889914E+02  0.25167368980E+03  0.27443471383E+03  0.81381902735E+02 0.  0.
          6    2    1    2  501    0  0.78585966734E+02  0.14522570539E+03  0.63684914957E+03  0.67929754801E+03  0.16912143492E+03 0.  0.
         24    2    5    5    0    0  0.40461748803E+02  0.15963522047E+03  0.41394262398E+03  0.45264693745E+03  0.80126133693E+02 0.  0.
          5    1    5    5  501    0  0.38124217931E+02 -0.14409515083E+02  0.22290652559E+03  0.22665061057E+03  0.47000000000E+01 0. -1.
        -11    1    6    6    0    0  0.28645959461E+02  0.66002391176E+01  0.75695516609E+02  0.81203235062E+02  0.00000000000E+00 0.  1.
         12    1    6    6    0    0  0.11815789343E+02  0.15303498136E+03  0.33824710737E+03  0.37144370238E+03  0.00000000000E+00 0. -1.
         -5    1    3    3    0  503 -0.41555013001E+02 -0.82134815476E+02  0.35797612564E+02  0.98876215968E+02  0.47000000000E+01 0.  1.
         11    1    4    4    0    0 -0.29255797733E+02 -0.17119281616E+02  0.22778175192E+02  0.40838912438E+02  0.00000000000E+00 0. -1.
        -12    1    4    4    0    0 -0.77751560003E+01 -0.45971608299E+02  0.22889551461E+03  0.23359580139E+03  0.00000000000E+00 0.  1.
</event>
<event>
12    1  0.8493057E-002  0.4742905E+03  0.7818608E-02  0.1020739E+00
         21   -1    0    0  503  502  0.00000000000E+00  0.00000000000E+00  0.15633428780E+03  0.15633428780E+03  0.00000000000E+00 0.  1.
         21   -1    0    0  501  503 -0.00000000000E+00 -0.00000000000E+00 -0.16351857276E+04  0.16351857276E+04  0.00000000000E+00 0. -1.
          6    2    1    2  501    0 -0.13369435416E+03 -0.42134148847E+03 -0.42852827000E+03  0.63920886025E+03  0.17189723267E+03 0.  0.
         24    2    3    3    0    0 -0.92415956308E+01 -0.21716868854E+03 -0.17938158654E+03  0.29385226018E+03  0.83209079138E+02 0.  0.
         -6    2    1    2    0  502  0.13369435416E+03  0.42134148847E+03 -0.10503231698E+04  0.11523111552E+04  0.17099534212E+03 0.  0.
        -24    2    5    5    0    0  0.22843869502E+02  0.27044429465E+03 -0.55445126717E+03  0.62224622812E+03  0.78180572128E+02 0.  0.
          5    1    3    3  501    0 -0.12445275853E+03 -0.20417279993E+03 -0.24914668346E+03  0.34535660007E+03  0.47000000000E+01 0. -1.
        -11    1    4    4    0    0  0.35287336766E+02 -0.80736171584E+02 -0.82433743036E+02  0.12066004943E+03  0.00000000000E+00 0.  1.
         12    1    4    4    0    0 -0.44528932397E+02 -0.13643251696E+03 -0.96947843502E+02  0.17319221075E+03  0.00000000000E+00 0. -1.
         -5    1    5    5    0  502  0.11085048466E+03  0.15089719382E+03 -0.49587190267E+03  0.53006492706E+03  0.47000000000E+01 0.  1.
         11    1    6    6    0    0 -0.45574978146E+01  0.16891830705E+03 -0.41097945901E+03  0.44436278081E+03  0.00000000000E+00 0. -1.
        -12    1    6    6    0    0  0.27401367316E+02  0.10152598760E+03 -0.14347180817E+03  0.17788344731E+03  0.00000000000E+00 0.  1.
</event>
<event>
12    1  0.8493057E-002  0.2063670E+03  0.7818608E-02  0.1144539E+00
         21   -1    0    0  501  502  0.00000000000E+00  0.00000000000E+00  0.90144205436E+02  0.90144205436E+02  0.00000000000E+00 0. -1.
         21   -1    0    0  502  503 -0.00000000000E+00 -0.00000000000E+00 -0.76325363543E+03  0.76325363543E+03  0.00000000000E+00 0. -1.
         -6    2    1    2    0  503  0.72520174147E+00  0.11308769255E+03 -0.72685693233E+02  0.21849942282E+03  0.17224818040E+03 0.  0.
        -24    2    3    3    0    0 -0.59156854032E+01  0.98631566906E+02 -0.11599715690E+03  0.17211996793E+03  0.80042249016E+02 0.  0.
          6    2    1    2  501    0 -0.72520174147E+00 -0.11308769255E+03 -0.60042373676E+03  0.63489841804E+03  0.17262092991E+03 0.  0.
         24    2    5    5    0    0  0.23200497661E+02 -0.60540685433E+02 -0.18522190884E+03  0.21567499914E+03  0.89471291790E+02 0.  0.
          5    1    5    5  501    0 -0.23925699403E+02 -0.52547007116E+02 -0.41520182792E+03  0.41922341890E+03  0.47000000000E+01 0. -1.
        -13    1    6    6    0    0  0.31153537182E+02 -0.50189268670E+02 -0.19205958340E+03  0.20093876964E+03  0.00000000000E+00 0.  1.
         14    1    6    6    0    0 -0.79530395205E+01 -0.10351416763E+02  0.68376745556E+01  0.14736229502E+02  0.00000000000E+00 0. -1.
         -5    1    3    3    0  503  0.66408871446E+01  0.14456125643E+02  0.43311463670E+02  0.46379454890E+02  0.47000000000E+01 0.  1.
         13    1    4    4    0    0  0.33311016326E+02  0.28172788903E+02 -0.58958180816E+02  0.73344372166E+02  0.00000000000E+00 0. -1.
        -14    1    4    4    0    0 -0.39226701729E+02  0.70458778003E+02 -0.57038976087E+02  0.98775595767E+02  0.00000000000E+00 0.  1.
</event>
<event>
12    1  0.8493057E-002  0.1829808E+03  0.7818608E-02  0.1165024E+00
         21   -1    0    0  501  502  0.00000000000E+00  0.00000000000E+00  0.48961156312E+03  0.48961156312E+03  0.00000000000E+00 0. -1.
         21   -1    0    0  502  503 -0.00000000000E+00 -0.00000000000E+00 -0.74144919573E+02  0.74144919573E+02  0.00000000000E+00 0. -1.
         -6    2    1    2    0  503 -0.56906151836E+02 -0.25591193659E+02  0.12820477191E+03  0.22316674755E+03  0.17167910287E+03 0.  0.
        -24    2    3    3    0    0 -0.71800337183E+02  0.12866295415E+02  0.14496545784E+03  0.17840263451E+03  0.74105911082E+02 0.  0.
          6    2    1    2  501    0  0.56906151836E+02  0.25591193659E+02  0.28726187164E+03  0.34058973515E+03  0.17201385258E+03 0.  0.
         24    2    5    5    0    0  0.57323831615E+02 -0.81285997236E+01  0.28987449841E+03  0.30644131292E+03  0.80789588636E+02 0.  0.
          5    1    5    5  501    0 -0.41767977920E+00  0.33719793382E+02 -0.26126267650E+01  0.34148422229E+02  0.47000000000E+01 0. -1.
        -11    1    6    6    0    0  0.46978608064E+02 -0.42582519344E+02  0.18743600684E+03  0.19786995030E+03  0.00000000000E+00 0.  1.
         12    1    6    6    0    0  0.10345223551E+02  0.34453919621E+02  0.10243849156E+03  0.10857136262E+03  0.00000000000E+00 0. -1.
         -5    1    3    3    0  503  0.14894185347E+02 -0.38457489074E+02 -0.16760685930E+02  0.44764113036E+02  0.47000000000E+01 0.  1.
         11    1    4    4    0    0 -0.54498964410E+02 -0.26481047583E+02  0.76927215535E+02  0.97924355973E+02  0.00000000000E+00 0. -1.
        -12    1    4    4    0    0 -0.17301372774E+02  0.39347342998E+02  0.68038242303E+02  0.80478278538E+02  0.00000000000E+00 0.  1.
</event>
<event>
12    1  0.8493057E-002  0.2242362E+03  0.7818608E-02  0.1130989E+00
         21   -1    0    0  503  502  0.00000000000E+00  0.00000000000E+00  0.14230679371E+03  0.14230679371E+03  0.00000000000E+00 0.  1.
         21   -1    0    0  501  503 -0.00000000000E+00 -0.00000000000E+00 -0.43427525732E+03  0.43427525732E+03  0.00000000000E+00 0. -1.
          6    2    1    2  501    0  0.13891098281E+03 -0.33579897560E+02 -0.27225333841E+03  0.35270917432E+03  0.17279470685E+03 0.  0.
         24    2    3    3    0    0  0.77353439463E+02  0.42783452397E+02 -0.19175904778E+03  0.22573629068E+03  0.79820812607E+02 0.  0.
         -6    2    1    2    0  502 -0.13891098281E+03  0.33579897560E+02 -0.19715125204E+02  0.22387287671E+03  0.17119143700E+03 0.  0.
        -24    2    5    5    0    0 -0.87771800998E+02 -0.43904621777E+02 -0.40927423842E+02  0.12852552087E+03  0.72195918362E+02 0.  0.
          5    1    3    3  501    0  0.61557543344E+02 -0.76363349957E+02 -0.80494290621E+02  0.12697288365E+03  0.47000000000E+01 0. -1.
        -13    1    4    4    0    0  0.18800011579E+02  0.25139100735E+02 -0.84693302046E+01  0.32513756708E+02  0.00000000000E+00 0.  1.
         14    1    4    4    0    0  0.58553427884E+02  0.17644351662E+02 -0.18328971758E+03  0.19322253397E+03  0.00000000000E+00 0. -1.
         -5    1    5    5    0  502 -0.51139181809E+02  0.77484519336E+02  0.21212298639E+02  0.95347355844E+02  0.47000000000E+01 0.  1.
         11    1    6    6    0    0  0.54916271350E+01 -0.12198677188E+02 -0.25531665371E+02  0.28824150124E+02  0.00000000000E+00 0. -1.
        -12    1    6    6    0    0 -0.93263428133E+02 -0.31705944589E+02 -0.15395758471E+02  0.99701370744E+02  0.00000000000E+00 0.  1.
</event>
<event>
12    1  0.8493057E-002  0.2322202E+03  0.7818608E-02  0.1125104E+00
         21   -1    0    0  503  502  0.00000000000E+00  0.00000000000E+00  0.59007631394E+03  0.59007631394E+03  0.00000000000E+00 0. -1.
         21   -1    0    0  501  503 -0.00000000000E+00 -0.00000000000E+00 -0.18895599382E+03  0.18895599382E+03  0.00000000000E+00 0. -1.
          6    2    1    2  501    0 -0.12335596656E+03 -0.94680800232E+02 -0.79415287813E+02  0.24532761060E+03  0.17233020677E+03 0.  0.
         24    2    3    3    0    0 -0.13587758516E+02 -0.52922278737E+02  0.10537754982E+02  0.97319254343E+02  0.79841081015E+02 0.  0.
         -6    2    1    2    0  502  0.12335596656E+03  0.94680800232E+02  0.48053560793E+03  0.53370469717E+03  0.17246763426E+03 0.  0.
        -24    2    5    5    0    0  0.14745651364E+03  0.94085559970E+02  0.33720198967E+03  0.38828184200E+03  0.80387131926E+02 0.  0.
          5    1    3    3  501    0 -0.10976820804E+03 -0.41758521495E+02 -0.89953042795E+02  0.14800835626E+03  0.47000000000E+01 0. -1.
        -13    1    4    4    0    0  0.39640033011E+01 -0.35558341963E+02 -0.32087759840E+02  0.48059685151E+02  0.00000000000E+00 0.  1.
         14    1    4    4    0    0 -0.17551761817E+02 -0.17363936774E+02  0.42625514822E+02  0.49259569192E+02  0.00000000000E+00 0. -1.
         -5    1    5    5    0  502 -0.24100547084E+02  0.59524026219E+00  0.14333361826E+03  0.14542285517E+03  0.47000000000E+01 0.  1.
         13    1    6    6    0    0  0.14636452910E+03  0.64180068703E+02  0.30491195229E+03  0.34425710632E+03  0.00000000000E+00 0. -1.
        -14    1    6    6    0    0  0.10919845378E+01  0.29905491267E+02  0.32290037377E+02  0.44024735683E+02  0.00000000000E+00 0.  1.
</event>
<event>
12    1  0.8493057E-002  0.1730880E+03  0.7818608E-02  0.1176051E+00
         21   -1    0    0  501  502  0.00000000000E+00  0.00000000000E+00  0.21715663424E+04  0.21715663424E+04  0.00000000000E+00 0. -1.
         21   -1    0    0  502  503 -0.00000000000E+00 -0.00000000000E+00 -0.64876458137E+02  0.64876458137E+02  0.00000000000E+00 0. -1.
         -6    2    1    2    0  503 -0.31069417866E+02  0.60606834509E+01  0.60451441551E+02  0.18334073054E+03  0.17016875765E+03 0.  0.
        -24    2    3    3    0    0 -0.47608145133E+02  0.42091922758E+02 -0.10389642980E+02  0.10202450238E+03  0.79137784653E+02 0.  0.
          6    2    1    2  501    0  0.31069417866E+02 -0.60606834509E+01  0.20462384427E+04  0.20531020700E+04  0.16472493667E+03 0.  0.
         24    2    5    5    0    0  0.14134583049E+02  0.44216716762E+02  0.74299408015E+03  0.74876984078E+03  0.80381383724E+02 0.  0.
          5    1    5    5  501    0  0.16934834817E+02 -0.50277400213E+02  0.13032443626E+04  0.13043322292E+04  0.47000000000E+01 0. -1.
        -11    1    6    6    0    0  0.38887684228E+02 -0.22839962536E+01  0.25818733377E+03  0.26110949417E+03  0.00000000000E+00 0.  1.
         12    1    6    6    0    0 -0.24753101179E+02  0.46500713016E+02  0.48480674637E+03  0.48766034661E+03  0.00000000000E+00 0. -1.
         -5    1    3    3    0  503  0.16538727267E+02 -0.36031239308E+02  0.70841084532E+02  0.81316228167E+02  0.47000000000E+01 0.  1.
         11    1    4    4    0    0 -0.42357536427E+02 -0.84971875126E+01  0.14274835386E+02  0.45498725401E+02  0.00000000000E+00 0. -1.
        -12    1    4    4    0    0 -0.52506087059E+01  0.50589110271E+02 -0.24664478366E+02  0.56525776977E+02  0.00000000000E+00 0.  1.
</event>
<event>
12    1  0.8493057E-002  0.3335340E+03  0.7818608E-02  0.1069617E+00
         21   -1    0    0  503  502  0.00000000000E+00  0.00000000000E+00  0.53028099821E+02  0.53028099821E+02  0.00000000000E+00 0. -1.
         21   -1    0    0  501  503 -0.00000000000E+00 -0.00000000000E+00 -0.22357607057E+04  0.22357607057E+04  0.00000000000E+00 0.  1.
          6    2    1    2  501    0  0.57513946192E+02  0.27945036377E+03 -0.13771046833E+04  0.14168476998E+04  0.17216194656E+03 0.  0.
         24    2    3    3    0    0 -0.28299202027E+01  0.86367311490E+02 -0.33215142734E+03  0.35248317370E+03  0.80327430632E+02 0.  0.
         -6    2    1    2    0  502 -0.57513946192E+02 -0.27945036377E+03 -0.80562792258E+03  0.87194110572E+03  0.17275584618E+03 0.  0.
        -24    2    5    5    0    0 -0.79672188138E+02 -0.23176019558E+03 -0.48705072689E+03  0.54901873201E+03  0.64363900754E+02 0.  0.
          5    1    3    3  501    0  0.60343866395E+02  0.19308305228E+03 -0.10449532560E+04  0.10643645261E+04  0.47000000000E+01 0. -1.
        -13    1    4    4    0    0 -0.11557385124E+02  0.86710252184E+02 -0.33242760812E+03  0.34374460814E+03  0.00000000000E+00 0.  1.
         14    1    4    4    0    0  0.87274649208E+01 -0.34294069411E+00  0.27618077309E+00  0.87385655621E+01  0.00000000000E+00 0. -1.
         -5    1    5    5    0  502  0.22158241946E+02 -0.47690168193E+02 -0.31857719569E+03  0.32292237371E+03  0.47000000000E+01 0.  1.
         13    1    6    6    0    0 -0.69114435076E+02 -0.10412528981E+03 -0.25470815922E+03  0.28371663237E+03  0.00000000000E+00 0. -1.
        -14    1    6    6    0    0 -0.10557753063E+02 -0.12763490577E+03 -0.23234256767E+03  0.26530209963E+03  0.00000000000E+00 0.  1.
</event>
<event>
12    1  0.8493057E-002  0.2551021E+03  0.7818608E-02  0.1111385E+00
         21   -1    0    0  501  502  0.00000000000E+00  0.00000000000E+00  0.96640175103E+03  0.96640175103E+03  0.00000000000E+00 0.  1.
         21   -1    0    0  502  503 -0.00000000000E+00 -0.00000000000E+00 -0.78085760852E+02  0.78085760852E+02  0.00000000000E+00 0.  1.
         -6    2    1    2    0  503  0.16048002284E+03 -0.78080337985E+02  0.22629667554E+03  0.33501821771E+03  0.17081172070E+03 0.  0.
        -24    2    3    3    0    0  0.76825523710E+02  0.28180568261E+02  0.96662619877E+02  0.14762415748E+03  0.75848034057E+02 0.  0.
          6    2    1    2  501    0 -0.16048002284E+03  0.78080337985E+02  0.66201931464E+03  0.70946929417E+03  0.18228200544E+03 0.  0.
         24    2    5    5    0    0 -0.14596081203E+03  0.78830554496E+02  0.34475108870E+03  0.39183335871E+03  0.84624186065E+02 0.  0.
          5    1    5    5  501    0 -0.14519210813E+02 -0.75021651101E+00  0.31726822594E+03  0.31763593546E+03  0.47000000000E+01 0. -1.
        -11    1    6    6    0    0 -0.61598316496E+02  0.29299602413E+02  0.60348119008E+02  0.91075324675E+02  0.00000000000E+00 0.  1.
         12    1    6    6    0    0 -0.84362495531E+02  0.49530952083E+02  0.28440296969E+03  0.30075803403E+03  0.00000000000E+00 0. -1.
         -5    1    3    3    0  503  0.83654499130E+02 -0.10626090625E+03  0.12963405566E+03  0.18739406023E+03  0.47000000000E+01 0.  1.
         11    1    4    4    0    0  0.95352124485E+01  0.28589228682E+02  0.35852504886E+00  0.30139555625E+02  0.00000000000E+00 0. -1.
        -12    1    4    4    0    0  0.67290311262E+02 -0.40866042079E+00  0.96304094828E+02  0.11748460186E+03  0.00000000000E+00 0.  1.
</event>
<event>
12    1  0.8493057E-002  0.2139098E+03  0.7818608E-02  0.1138589E+00
         21   -1    0    0  501  502  0.00000000000E+00  0.00000000000E+00  0.67330270668E+03  0.67330270668E+03  0.00000000000E+00 0.  1.
         21   -1    0    0  502  503 -0.00000000000E+00 -0.00000000000E+00 -0.12032360514E+03  0.12032360514E+03  0.00000000000E+00 0.  1.
         -6    2    1    2    0  503  0.12343321262E+03  0.35657802859E+02  0.14533365570E+02  0.21440296071E+03  0.17102682235E+03 0.  0.
        -24    2    3    3    0    0  0.80146544609E+02 -0.49865745530E+01  0.70070395367E+02  0.13296493076E+03  0.79507722692E+02 0.  0.
          6    2    1    2  501    0 -0.12343321262E+03 -0.35657802859E+02  0.53844573597E+03  0.57922335112E+03  0.17049528735E+03 0.  0.
         24    2    5    5    0    0 -0.11127189626E+03  0.34678247736E+02  0.33334597622E+03  0.36200673324E+03  0.79657512447E+02 0.  0.
          5    1    5    5  501    0 -0.12161316361E+02 -0.70336050595E+02  0.20509975976E+03  0.21721661788E+03  0.47000000000E+01 0. -1.
        -13    1    6    6    0    0 -0.79314478774E+02  0.15708115201E+02  0.30424317917E+03  0.31480381748E+03  0.00000000000E+00 0.  1.
         14    1    6    6    0    0 -0.31957417482E+02  0.18970132535E+02  0.29102797041E+02  0.47202915759E+02  0.00000000000E+00 0. -1.
         -5    1    3    3    0  503  0.43286668008E+02  0.40644377412E+02 -0.55537029797E+02  0.81438029944E+02  0.47000000000E+01 0.  1.
         13    1    4    4    0    0 -0.12967518061E+02 -0.31090184232E+01  0.27502470125E+02  0.30564822643E+02  0.00000000000E+00 0. -1.
        -14    1    4    4    0    0  0.93114062670E+02 -0.18775561298E+01  0.42567925242E+02  0.10240010812E+03  0.00000000000E+00 0.  1.
</event>
<event>
12    1  0.8493057E-002  0.2003490E+03  0.7818608E-02  0.1149508E+00
         21   -1    0    0  501  502  0.00000000000E+00  0.00000000000E+00  0.86145540708E+03  0.86145540708E+03  0.00000000000E+00 0.  1.
         21   -1    0    0  502  503 -0.00000000000E+00 -0.00000000000E+00 -0.81158989660E+02  0.81158989660E+02  0.00000000000E+00 0. -1.
         -6    2    1    2    0  503  0.62265219493E+02  0.82209039875E+02  0.82102230365E+02  0.21624338819E+03  0.17142095236E+03 0.  0.
        -24    2    3    3    0    0  0.70298373679E+02  0.41357505976E+02 -0.11653061748E+02  0.11355198549E+03  0.78140609923E+02 0.  0.
          6    2    1    2  501    0 -0.62265219493E+02 -0.82209039875E+02  0.69819418706E+03  0.72637100855E+03  0.17176855193E+03 0.  0.
         24    2    5    5    0    0  0.28789642215E+02 -0.43804929905E+02  0.43203447680E+03  0.44241864483E+03  0.79578594871E+02 0.  0.
          5    1    5    5  501    0 -0.91054861708E+02 -0.38404109970E+02  0.26615971025E+03  0.28395236373E+03  0.47000000000E+01 0. -1.
        -13    1    6    6    0    0  0.28954543169E+02 -0.20883223912E+02  0.40665874533E+03  0.40822274528E+03  0.00000000000E+00 0.  1.
         14    1    6    6    0    0 -0.16490095479E+00 -0.22921705992E+02  0.25375731468E+02  0.34195899542E+02  0.00000000000E+00 0. -1.
         -5    1    3    3    0  503 -0.80331541862E+01  0.40851533899E+02  0.93755292113E+02  0.10269140269E+03  0.47000000000E+01 0.  1.
         13    1    4    4    0    0 -0.61890777360E+01  0.67285114048E+01 -0.26727876416E+02  0.28248131383E+02  0.00000000000E+00 0. -1.
        -14    1    4    4    0    0  0.76487451415E+02  0.34628994571E+02  0.15074814667E+02  0.85303854112E+02  0.00000000000E+00 0.  1.
</event>
<event>
12    1  0.8493057E-002  0.2066374E+03  0.7818608E-02  0.1144505E+00
         21   -1    0    0  501  502  0.00000000000E+00  0.00000000000E+00  0.22787762701E+03  0.22787762701E+03  0.00000000000E+00 0.  1.
         21   -1    0    0  502  503 -0.00000000000E+00 -0.00000000000E+00 -0.22941221232E+03  0.22941221232E+03  0.00000000000E+00 0.  1.
         -6    2    1    2    0  503  0.22911597107E+02 -0.11600183116E+03 -0.99917003188E+02  0.22842716199E+03  0.16797081501E+03 0.  0.
        -24    2    3    3    0    0 -0.42652535499E+02 -0.10024679133E+03 -0.90936448860E+02  0.16023906097E+03  0.74420836967E+02 0.  0.
          6    2    1    2  501    0 -0.22911597107E+02  0.11600183116E+03  0.98382417871E+02  0.22886267734E+03  0.16946285380E+03 0.  0.
         24    2    5    5    0    0  0.14411363818E+02  0.42614929866E+02  0.11273572201E+03  0.14515635719E+03  0.79607194160E+02 0.  0.
          5    1    5    5  501    0 -0.37322960925E+02  0.73386901289E+02 -0.14353304137E+02  0.83706320148E+02  0.47000000000E+01 0. -1.
        -13    1    6    6    0    0  0.38415515769E+02  0.51174785913E+02  0.66020869267E+02  0.91942186965E+02  0.00000000000E+00 0.  1.
         14    1    6    6    0    0 -0.24004151951E+02 -0.85598560462E+01  0.46714852741E+02  0.53214170227E+02  0.00000000000E+00 0. -1.
         -5    1    3    3    0  503  0.65564132606E+02 -0.15755039830E+02 -0.89805543279E+01  0.68188101018E+02  0.47000000000E+01 0.  1.
         11    1    4    4    0    0 -0.40768359578E+02 -0.10888639708E+02 -0.34781346805E+02  0.54684218042E+02  0.00000000000E+00 0. -1.
        -12    1    4    4    0    0 -0.18841759211E+01 -0.89358151618E+02 -0.56155102055E+02  0.10555484293E+03  0.00000000000E+00 0.  1.
</event>
<event>
12    1  0.8493057E-002  0.1759490E+03  0.7818608E-02  0.1172121E+00
         21   -1    0    0  503  502  0.00000000000E+00  0.00000000000E+00  0.28253125883E+02  0.28253125883E+02  0.00000000000E+00 0.  1.
         21   -1    0    0  501  503 -0.00000000000E+00 -0.00000000000E+00 -0.13181296876E+04  0.13181296876E+04  0.00000000000E+00 0. -1.
          6    2    1    2  501    0  0.13419813738E+02  0.31066596159E+02 -0.92868214282E+03  0.94520293244E+03  0.17266394033E+03 0.  0.
         24    2    3    3    0    0 -0.50964810027E+01 -0.46304775799E+02 -0.40996526098E+03  0.42039965893E+03  0.80586919787E+02 0.  0.
         -6    2    1    2    0  502 -0.13419813738E+02 -0.31066596159E+02 -0.36119441886E+03  0.40117988101E+03  0.17128532896E+03 0.  0.
        -24    2    5    5    0    0 -0.73373213339E+02 -0.32960925039E+02 -0.21403743247E+03  0.24219790956E+03  0.79860840710E+02 0.  0.
          5    1    3    3  501    0  0.18516294741E+02  0.77371371958E+02 -0.51871688185E+03  0.52480327351E+03  0.47000000000E+01 0. -1.
        -11    1    4    4    0    0  0.28411185229E+02 -0.11629029484E+02 -0.62802806394E+02  0.69904379432E+02  0.00000000000E+00 0.  1.
         12    1    4    4    0    0 -0.33507666231E+02 -0.34675746314E+02 -0.34716245458E+03  0.35049527950E+03  0.00000000000E+00 0. -1.
         -5    1    5    5    0  502  0.59953399601E+02  0.18943288801E+01 -0.14715698638E+03  0.15898197145E+03  0.47000000000E+01 0.  1.
         11    1    6    6    0    0 -0.32196179903E+02 -0.41864300592E+02 -0.18132629694E+03  0.18886090020E+03  0.00000000000E+00 0. -1.
        -12    1    6    6    0    0 -0.41177033437E+02  0.89033755532E+01 -0.32711135538E+02  0.53337009356E+02  0.00000000000E+00 0.  1.
</event>
<event>
12    1  0.8493057E-002  0.1928700E+03  0.7818608E-02  0.1156029E+00
         21   -1    0    0  501  502  0.00000000000E+00  0.00000000000E+00  0.37997647812E+02  0.37997647812E+02  0.00000000000E+00 0.  1.
         21   -1    0    0  502  503 -0.00000000000E+00 -0.00000000000E+00 -0.13869650506E+04  0.13869650506E+04  0.00000000000E+00 0.  1.
         -6    2    1    2    0  503 -0.65472711047E+02  0.57353564527E+02 -0.10615978898E+04  0.10788701085E+04  0.17144831344E+03 0.  0.
        -24    2    3    3    0    0 -0.51120643433E+02  0.77206025626E+01 -0.96058381880E+03  0.96531243464E+03  0.80211567970E+02 0.  0.
          6    2    1    2  501    0  0.65472711047E+02 -0.57353564527E+02 -0.28736951303E+03  0.34609258993E+03  0.17211256935E+03 0.  0.
         24    2    5    5    0    0 -0.64140903025E+01 -0.81214652375E+02 -0.20582519944E+03  0.23469856495E+03  0.77990020846E+02 0.  0.
          5    1    5    5  501    0  0.71886801349E+02  0.23861087848E+02 -0.81544313588E+02  0.11139402497E+03  0.47000000000E+01 0. -1.
        -11    1    6    6    0    0  0.42063759186E+01 -0.78468337075E+02 -0.94806126240E+02  0.12313884478E+03  0.00000000000E+00 0.  1.
         12    1    6    6    0    0 -0.10620466221E+02 -0.27463153003E+01 -0.11101907320E+03  0.11155972017E+03  0.00000000000E+00 0. -1.
         -5    1    3    3    0  503 -0.14352067614E+02  0.49632961964E+02 -0.10101407099E+03  0.11355767387E+03  0.47000000000E+01 0.  1.
         13    1    4    4    0    0  0.20207846497E+01 -0.29652486015E+02 -0.24848971601E+03  0.25026084884E+03  0.00000000000E+00 0. -1.
        -14    1    4    4    0    0 -0.53141428083E+02  0.37373088578E+02 -0.71209410279E+03  0.71505158580E+03  0.00000000000E+00 0.  1.
</event>
<event>
12    1  0.8493057E-002  0.2145690E+03  0.7818608E-02  0.1138181E+00
         21   -1    0    0  503  502  0.00000000000E+00  0.00000000000E+00  0.51130930889E+02  0.51130930889E+02  0.00000000000E+00 0. -1.
         21   -1    0    0  501  503 -0.00000000000E+00 -0.00000000000E+00 -0.10573912038E+04  0.10573912038E+04  0.00000000000E+00 0. -1.
          6    2    1    2  501    0  0.11844698211E+02 -0.12562936276E+03 -0.71841978322E+03  0.74950683745E+03  0.17236728456E+03 0.  0.
         24    2    3    3    0    0 -0.13160422546E+02 -0.19681384487E+02 -0.47986538708E+03  0.48724643235E+03  0.81103282905E+02 0.  0.
         -6    2    1    2    0  502 -0.11844698211E+02  0.12562936276E+03 -0.28784048967E+03  0.35901529723E+03  0.17354193294E+03 0.  0.
        -24    2    5    5    0    0  0.22626757562E+02  0.14888491451E+03 -0.25159666394E+03  0.30365459949E+03  0.78908469511E+02 0.  0.
          5    1    3    3  501    0  0.25005120756E+02 -0.10594797827E+03 -0.23855439614E+03  0.26226040510E+03  0.47000000000E+01 0. -1.
        -11    1    4    4    0    0  0.31723098012E+02  0.38260102093E+01 -0.13827531167E+03  0.14191918517E+03  0.00000000000E+00 0.  1.
         12    1    4    4    0    0 -0.44883520558E+02 -0.23507394696E+02 -0.34159007542E+03  0.34532724718E+03  0.00000000000E+00 0. -1.
         -5    1    5    5    0  502 -0.34471455772E+02 -0.23255551751E+02 -0.36243825735E+02  0.55360697739E+02  0.47000000000E+01 0.  1.
         11    1    6    6    0    0 -0.11751285376E+02  0.12297540235E+03 -0.21088453518E+03  0.24440402916E+03  0.00000000000E+00 0. -1.
        -12    1    6    6    0    0  0.34378042938E+02  0.25909512159E+02 -0.40712128759E+02  0.59250570332E+02  0.00000000000E+00 0.  1.
</event>
<event>
12    1  0.8493057E-002  0.2458043E+03  0.7818608E-02  0.1116275E+00
         21   -1    0    0  503  502  0.00000000000E+00  0.00000000000E+00  0.25550762712E+03  0.25550762712E+03  0.00000000000E+00 0. -1.
         21   -1    0    0  501  503 -0.00000000000E+00 -0.00000000000E+00 -0.72931699935E+03  0.72931699935E+03  0.00000000000E+00 0. -1.
          6    2    1    2  501    0 -0.59534383009E+01 -0.17388983939E+03 -0.64211632176E+03  0.68692033775E+03  0.17109371725E+03 0.  0.
         24    2    3    3    0    0 -0.18191056787E+01 -0.16195049143E+03 -0.34626471116E+03  0.39076175484E+03  0.81019923717E+02 0.  0.
         -6    2    1    2    0  502  0.59534383009E+01  0.17388983939E+03  0.16830694953E+03  0.29790428872E+03  0.17362780971E+03 0.  0.
        -24    2    5    5    0    0 -0.23410572178E+02  0.15664759701E+03  0.18761659661E+03  0.25847723577E+03  0.80771093533E+02 0.  0.
          5    1    3    3  501    0 -0.41343326221E+01 -0.11939347966E+02 -0.29585161060E+03  0.29615858291E+03  0.47000000000E+01 0. -1.
        -13    1    4    4    0    0 -0.29368205128E+02 -0.14663689130E+03 -0.28852347837E+03  0.32497794838E+03  0.00000000000E+00 0.  1.
         14    1    4    4    0    0  0.27549099449E+02 -0.15313600122E+02 -0.57741232786E+02  0.65783806463E+02  0.00000000000E+00 0. -1.
         -5    1    5    5    0  502  0.29364010479E+02  0.17242242381E+02 -0.19309647077E+02  0.39427052945E+02  0.47000000000E+01 0.  1.
         11    1    6    6    0    0  0.24963909890E+02  0.85689690700E+02  0.73281479600E+02  0.11548201220E+03  0.00000000000E+00 0. -1.
        -12    1    6    6    0    0 -0.48374482068E+02  0.70957906312E+02  0.11433511701E+03  0.14299522357E+03  0.00000000000E+00 0.  1.
</event>
<event>
12    1  0.8493057E-002  0.4004412E+03  0.7818608E-02  0.1043739E+00
         21   -1    0    0  501  502  0.00000000000E+00  0.00000000000E+00  0.13831952097E+03  0.13831952097E+03  0.00000000000E+00 0.  1.
         21   -1    0    0  502  503 -0.00000000000E+00 -0.00000000000E+00 -0.18083538219E+04  0.18083538219E+04  0.00000000000E+00 0. -1.
         -6    2    1    2    0  503  0.33863756120E+03 -0.12546069826E+03 -0.14206819749E+04  0.14760387572E+04  0.17302414385E+03 0.  0.
        -24    2    3    3    0    0  0.22859582207E+03 -0.31673252747E+02 -0.10548875329E+04  0.10826776850E+04  0.78383785829E+02 0.  0.
          6    2    1    2  501    0 -0.33863756120E+03  0.12546069826E+03 -0.24935232600E+03  0.47063458562E+03  0.17001337016E+03 0.  0.
         24    2    5    5    0    0 -0.21096466955E+03  0.12299157343E+02 -0.12680478034E+03  0.26052534605E+03  0.84478651428E+02 0.  0.
          5    1    5    5  501    0 -0.12767289165E+03  0.11316154092E+03 -0.12254754566E+03  0.21010923957E+03  0.47000000000E+01 0. -1.
        -13    1    6    6    0    0 -0.93769150927E+02  0.31551691817E+02 -0.20294639494E+02  0.10099522421E+03  0.00000000000E+00 0.  1.
         14    1    6    6    0    0 -0.11719551862E+03 -0.19252534474E+02 -0.10651014085E+03  0.15953012184E+03  0.00000000000E+00 0. -1.
         -5    1    3    3    0  503  0.11004173913E+03 -0.93787445511E+02 -0.36579444206E+03  0.39336107220E+03  0.47000000000E+01 0.  1.
         13    1    4    4    0    0  0.89128708933E+02  0.25910801000E+02 -0.40883054974E+03  0.41923467744E+03  0.00000000000E+00 0. -1.
        -14    1    4    4    0    0  0.13946711314E+03 -0.57584053747E+02 -0.64605698311E+03  0.66344300759E+03  0.00000000000E+00 0.  1.
</event>
<event>
12    1  0.8493057E-002  0.2200615E+03  0.7818608E-02  0.1133970E+00
         21   -1    0    0  501  502  0.00000000000E+00  0.00000000000E+00  0.70727576589E+03  0.70727576589E+03  0.00000000000E+00 0.  1.
         21   -1    0    0  502  503 -0.00000000000E+00 -0.00000000000E+00 -0.68288817452E+02  0.68288817452E+02  0.00000000000E+00 0.  1.
         -6    2    1    2    0  503 -0.12733915598E+03  0.52540135532E+02  0.31056495765E+03  0.38062798941E+03  0.17161394733E+03 0.  0.
        -24    2    3    3    0    0 -0.51019468286E+02 -0.46592688796E+02  0.15990687485E+03  0.18474036984E+03  0.61521791513E+02 0.  0.
          6    2    1    2  501    0  0.12733915598E+03 -0.52540135532E+02  0.32842199078E+03  0.39493659393E+03  0.17069909990E+03 0.  0.
         24    2    5    5    0    0  0.10581958528E+03 -0.24065643679E+02  0.10990315539E+03  0.17347224006E+03  0.78974519148E+02 0.  0.
          5    1    5    5  501    0  0.21519570698E+02 -0.28474491853E+02  0.21851883539E+03  0.22146435386E+03  0.47000000000E+01 0. -1.
        -11    1    6    6    0    0  0.51058936065E+02 -0.61321760399E+01  0.10340215388E+03  0.11548430180E+03  0.00000000000E+00 0.  1.
         12    1    6    6    0    0  0.54760649213E+02 -0.17933467639E+02  0.65010015098E+01  0.57987938267E+02  0.00000000000E+00 0. -1.
         -5    1    3    3    0  503 -0.76319687689E+02  0.99132824328E+02  0.15065808280E+03  0.19588761957E+03  0.47000000000E+01 0.  1.
         11    1    4    4    0    0 -0.45097819722E+01 -0.20958797218E+02  0.65011317632E+01  0.22402545134E+02  0.00000000000E+00 0. -1.
        -12    1    4    4    0    0 -0.46509686314E+02 -0.25633891578E+02  0.15340574308E+03  0.16233782470E+03  0.00000000000E+00 0.  1.
</event>
<event>
12    1  0.8493057E-002  0.2644089E+03  0.7818608E-02  0.1104550E+00
         21   -1    0    0  503  502  0.00000000000E+00  0.00000000000E+00  0.14718283263E+03  0.14718283263E+03  0.00000000000E+00 0.  1.
         21   -1    0    0  501  503 -0.00000000000E+00 -0.00000000000E+00 -0.86652299484E+03  0.86652299484E+03  0.00000000000E+00 0. -1.
          6    2    1    2  501    0  0.12161447995E+03 -0.16054830891E+03 -0.70044296986E+03  0.74862248497E+03  0.17102464659E+03 0.  0.
         24    2    3    3    0    0  0.11837124847E+03 -0.47123343890E+02 -0.39519322831E+03  0.42293055083E+03  0.80375376353E+02 0.  0.
         -6    2    1    2    0  502 -0.12161447995E+03  0.16054830891E+03 -0.18897192347E+02  0.26508334250E+03  0.17130742356E+03 0.  0.
        -24    2    5    5    0    0 -0.72419359573E+01  0.17129906873E+02  0.39501845555E+01  0.80167119600E+02  0.77879931697E+02 0.  0.
          5    1    3    3  501    0  0.32432314795E+01 -0.11342496502E+03 -0.30524974155E+03  0.32569193413E+03  0.47000000000E+01 0. -1.
        -11    1    4    4    0    0  0.44358113820E+02 -0.60390322830E+02 -0.21475645413E+03  0.22745322144E+03  0.00000000000E+00 0.  1.
         12    1    4    4    0    0  0.74013134649E+02  0.13266978940E+02 -0.18043677418E+03  0.19547732940E+03  0.00000000000E+00 0. -1.
         -5    1    5    5    0  502 -0.11437254399E+03  0.14341840204E+03 -0.22847376903E+02  0.18491622290E+03  0.47000000000E+01 0.  1.
         13    1    6    6    0    0  0.28449684994E+02  0.22302212740E+02 -0.15338078424E+02  0.39268688788E+02  0.00000000000E+00 0. -1.
        -14    1    6    6    0    0 -0.35691620952E+02 -0.51723058671E+01  0.19288262980E+02  0.40898430812E+02  0.00000000000E+00 0.  1.
</event>
<event>
12    1  0.8493057E-002  0.1891165E+03  0.7818608E-02  0.1159543E+00
         21   -1    0    0  503  502  0.00000000000E+00  0.00000000000E+00  0.22000771152E+03  0.22000771152E+03  0.00000000000E+00 0. -1.
         21   -1    0    0  501  503 -0.00000000000E+00 -0.00000000000E+00 -0.32599411339E+03  0.32599411339E+03  0.00000000000E+00 0. -1.
          6    2    1    2  501    0 -0.18643508188E+02 -0.72016311415E+02 -0.24700613089E+03  0.31109014296E+03  0.17387098333E+03 0.  0.
         24    2    3    3    0    0 -0.11389396993E+02 -0.31447037680E+02 -0.29558133362E+02  0.89721198146E+02  0.77830428537E+02 0.  0.
         -6    2    1    2    0  502  0.18643508188E+02  0.72016311415E+02  0.14101972901E+03  0.23491168196E+03  0.17251957814E+03 0.  0.
        -24    2    5    5    0    0  0.36298458851E+02  0.11098868631E+03  0.11335664432E+03  0.18374646386E+03  0.85305143838E+02 0.  0.
          5    1    3    3  501    0 -0.72541111951E+01 -0.40569273735E+02 -0.21744799752E+03  0.22136894481E+03  0.47000000000E+01 0. -1.
        -13    1    4    4    0    0 -0.33243783269E+02 -0.94113998435E+01  0.13115110875E+02  0.36955780418E+02  0.00000000000E+00 0.  1.
         14    1    4    4    0    0  0.21854386275E+02 -0.22035637837E+02 -0.42673244237E+02  0.52765417729E+02  0.00000000000E+00 0. -1.
         -5    1    5    5    0  502 -0.17654950663E+02 -0.38972374898E+02  0.27663084692E+02  0.51165218096E+02  0.47000000000E+01 0.  1.
         11    1    6    6    0    0 -0.15970047818E+02  0.21953213767E+02  0.63572527820E+02  0.69126350370E+02  0.00000000000E+00 0. -1.
        -12    1    6    6    0    0  0.52268506669E+02  0.89035472546E+02  0.49784116502E+02  0.11462011349E+03  0.00000000000E+00 0.  1.
</event>
<event>
12    1  0.8493057E-002  0.2122083E+03  0.7818608E-02  0.1140026E+00
         21   -1    0    0  501  502  0.00000000000E+00  0.00000000000E+00  0.34836538114E+03  0.34836538114E+03  0.00000000000E+00 0.  1.
         21   -1    0    0  502  503 -0.00000000000E+00 -0.00000000000E+00 -0.18853834611E+03  0.18853834611E+03  0.00000000000E+00 0.  1.
         -6    2    1    2    0  503 -0.57157119313E+02 -0.11078094906E+03 -0.71249720532E+02  0.22385009599E+03  0.17173522597E+03 0.  0.
        -24    2    3    3    0    0 -0.10205168942E+03 -0.66316488999E+02 -0.64037198698E+02  0.16007924760E+03  0.81927887009E+02 0.  0.
          6    2    1    2  501    0  0.57157119313E+02  0.11078094906E+03  0.23107675556E+03  0.31305363125E+03  0.17048974783E+03 0.  0.
         24    2    5    5    0    0  0.63607982616E+02  0.98363745693E+02  0.25085853681E+03  0.28837146267E+03  0.80664075470E+02 0.  0.
          5    1    5    5  501    0 -0.64508633031E+01  0.12417203365E+02 -0.19781781245E+02  0.24682168583E+02  0.47000000000E+01 0. -1.
        -13    1    6    6    0    0  0.77823815103E+02  0.55338898956E+02  0.15022636901E+03  0.17800815116E+03  0.00000000000E+00 0.  1.
         14    1    6    6    0    0 -0.14215832487E+02  0.43024846737E+02  0.10063216780E+03  0.11036331150E+03  0.00000000000E+00 0. -1.
         -5    1    3    3    0  503  0.44894570106E+02 -0.44464460059E+02 -0.72125218331E+01  0.63770848391E+02  0.47000000000E+01 0.  1.
         13    1    4    4    0    0  0.64520717381E+00  0.11491275184E+02  0.64720496533E+01  0.13204284318E+02  0.00000000000E+00 0. -1.
        -14    1    4    4    0    0 -0.10269689659E+03 -0.77807764183E+02 -0.70509248352E+02  0.14687496329E+03  0.00000000000E+00 0.  1.
</event>
<event>
12    1  0.8493057E-002  0.1791063E+03  0.7818608E-02  0.1169015E+00
         21   -1    0    0  503  502  0.00000000000E+00  0.00000000000E+00  0.11421763032E+04  0.11421763032E+04  0.00000000000E+00 0. -1.
         21   -1    0    0  501  503 -0.00000000000E+00 -0.00000000000E+00 -0.16505444393E+03  0.16505444393E+03  0.00000000000E+00 0. -1.
          6    2    1    2  501    0 -0.35067319091E+02  0.35646552574E+02 -0.10765537090E+03  0.20776691871E+03  0.17051985235E+03 0.  0.
         24    2    3    3    0    0 -0.80521584508E+02  0.38959950083E+02 -0.41457500463E+02  0.12726029228E+03  0.80466479760E+02 0.  0.
         -6    2    1    2    0  502  0.35067319091E+02 -0.35646552574E+02  0.10847772302E+04  0.10994638284E+04  0.17198452636E+03 0.  0.
        -24    2    5    5    0    0  0.72779464845E+02 -0.69357932280E+02  0.73734010934E+03  0.74833236301E+03  0.78889260494E+02 0.  0.
          5    1    3    3  501    0  0.45454265418E+02 -0.33133975089E+01 -0.66197870441E+02  0.80506626427E+02  0.47000000000E+01 0. -1.
        -13    1    4    4    0    0 -0.49017389420E+02  0.59083018640E+02 -0.46167766024E+02  0.89582197878E+02  0.00000000000E+00 0.  1.
         14    1    4    4    0    0 -0.31504195089E+02 -0.20123068556E+02  0.47102655603E+01  0.37678094405E+02  0.00000000000E+00 0. -1.
         -5    1    5    5    0  502 -0.37712145755E+02  0.33711379706E+02  0.34743712083E+03  0.35113146539E+03  0.47000000000E+01 0.  1.
         11    1    6    6    0    0  0.48936516295E+02  0.54717240693E+01  0.27867798507E+03  0.28299495005E+03  0.00000000000E+00 0. -1.
        -12    1    6    6    0    0  0.23842948550E+02 -0.74829656349E+02  0.45866212426E+03  0.46533741296E+03  0.00000000000E+00 0.  1.
</event>
<event>
12    1  0.8493057E-002  0.1802166E+03  0.7818608E-02  0.1169888E+00
         21   -1    0    0  501  502  0.00000000000E+00  0.00000000000E+00  0.22960459049E+03  0.22960459049E+03  0.00000000000E+00 0. -1.
         21   -1    0    0  502  503 -0.00000000000E+00 -0.00000000000E+00 -0.57441683226E+03  0.57441683226E+03  0.00000000000E+00 0. -1.
         -6    2    1    2    0  503 -0.25325875712E+02  0.14037923365E+01 -0.52533020568E+03  0.55538262313E+03  0.17842270725E+03 0.  0.
        -24    2    3    3    0    0 -0.30486378811E+02  0.84734897027E+01 -0.53519696351E+03  0.54138068316E+03  0.75206615614E+02 0.  0.
          6    2    1    2  501    0  0.25325875712E+02 -0.14037923365E+01  0.18051796390E+03  0.24863879962E+03  0.16908916810E+03 0.  0.
         24    2    5    5    0    0  0.26784121749E+02  0.52172448035E+02  0.57897376621E+02  0.11473421254E+03  0.79827813425E+02 0.  0.
          5    1    5    5  501    0 -0.14582460367E+01 -0.53576240371E+02  0.12262058728E+03  0.13390458707E+03  0.47000000000E+01 0. -1.
        -13    1    6    6    0    0 -0.13478974356E+02 -0.92613606509E+01 -0.59586630730E+01  0.17405781121E+02  0.00000000000E+00 0.  1.
         14    1    6    6    0    0  0.40263096105E+02  0.61433808686E+02  0.63856039694E+02  0.97328431421E+02  0.00000000000E+00 0. -1.
         -5    1    3    3    0  503  0.51605030992E+01 -0.70696973662E+01  0.98667578228E+01  0.14001939973E+02  0.47000000000E+01 0.  1.
         13    1    4    4    0    0 -0.40269072451E+02 -0.81700296282E+01 -0.14508347110E+03  0.15078979132E+03  0.00000000000E+00 0. -1.
        -14    1    4    4    0    0  0.97826936401E+01  0.16643519331E+02 -0.39011349240E+03  0.39059089184E+03  0.00000000000E+00 0.  1.
</event>
<event>
12    1  0.8493057E-002  0.2493518E+03  0.7818608E-02  0.1113766E+00
         21   -1    0    0  503  502  0.00000000000E+00  0.00000000000E+00  0.13522020049E+03  0.13522020049E+03  0.00000000000E+00 0.  1.
         21   -1    0    0  501  503 -0.00000000000E+00 -0.00000000000E+00 -0.45998046269E+03  0.45998046269E+03  0.00000000000E+00 0. -1.
          6    2    1    2  501    0  0.18018941310E+03 -0.64274698042E+01 -0.15041024870E+03  0.29120361782E+03  0.17224043415E+03 0.  0.
         24    2    3    3    0    0  0.20450104562E+03 -0.20795682179E+02 -0.12808604126E+03  0.25489988192E+03  0.79465576060E+02 0.  0.
         -6    2    1    2    0  502 -0.18018941310E+03  0.64274698042E+01 -0.17435001349E+03  0.30399704536E+03  0.17177525846E+03 0.  0.
        -24    2    5    5    0    0 -0.12918184922E+03  0.65706385898E+02 -0.13796304387E+03  0.21761496952E+03  0.85540599562E+02 0.  0.
          5    1    3    3  501    0 -0.24311632519E+02  0.14368212375E+02 -0.22324207440E+02  0.36303735902E+02  0.47000000000E+01 0. -1.
        -13    1    4    4    0    0  0.11503078828E+03  0.24078409867E+01 -0.27503463386E+02  0.11829759274E+03  0.00000000000E+00 0.  1.
         14    1    4    4    0    0  0.89470257341E+02 -0.23203523166E+02 -0.10058257788E+03  0.13660228918E+03  0.00000000000E+00 0. -1.
         -5    1    5    5    0  502 -0.51007563882E+02 -0.59278916094E+02 -0.36386969626E+02  0.86382075832E+02  0.47000000000E+01 0.  1.
         13    1    6    6    0    0 -0.54202667337E+02 -0.11456254853E+02 -0.74020996895E+02  0.92456924582E+02  0.00000000000E+00 0. -1.
        -14    1    6    6    0    0 -0.74979181880E+02  0.77162640751E+02 -0.63942046971E+02  0.12515804494E+03  0.00000000000E+00 0.  1.
</event>
<event>
12    1  0.8493057E-002  0.1816907E+03  0.7818608E-02  0.1166377E+00
         21   -1    0    0  503  502  0.00000000000E+00  0.00000000000E+00  0.85820417783E+02  0.85820417783E+02  0.00000000000E+00 0.  1.
         21   -1    0    0  501  503 -0.00000000000E+00 -0.00000000000E+00 -0.57286638791E+03  0.57286638791E+03  0.00000000000E+00 0.  1.
          6    2    1    2  501    0 -0.52705535856E+02 -0.16285967319E+02 -0.43355596840E+03  0.47008752550E+03  0.17311382861E+03 0.  0.
         24    2    3    3    0    0 -0.67000706511E+01  0.11201398782E+02 -0.11144046545E+03  0.14351051259E+03  0.89475849268E+02 0.  0.
         -6    2    1    2    0  502  0.52705535856E+02  0.16285967319E+02 -0.53490001733E+02  0.18859928020E+03  0.17223647106E+03 0.  0.
        -24    2    5    5    0    0 -0.88555829704E+01 -0.39884499923E+02  0.22220356599E+01  0.88245835551E+02  0.78186925798E+02 0.  0.
          5    1    3    3  501    0 -0.46005465205E+02 -0.27487366101E+02 -0.32211550295E+03  0.32657701291E+03  0.47000000000E+01 0. -1.
        -13    1    4    4    0    0 -0.43924005474E+02  0.72823983621E+00 -0.87828493578E+02  0.98202305851E+02  0.00000000000E+00 0.  1.
         14    1    4    4    0    0  0.37223934823E+02  0.10473158946E+02 -0.23611971870E+02  0.45308206736E+02  0.00000000000E+00 0. -1.
         -5    1    5    5    0  502  0.61561118827E+02  0.56170467242E+02 -0.55712037393E+02  0.10035344464E+03  0.47000000000E+01 0.  1.
         13    1    6    6    0    0 -0.29125481674E+02  0.81261052717E+01 -0.14472650879E+02  0.33522901024E+02  0.00000000000E+00 0. -1.
        -14    1    6    6    0    0  0.20269898703E+02 -0.48010605195E+02  0.16694686539E+02  0.54722934527E+02  0.00000000000E+00 0.  1.
</event>
<event>
12    1  0.8493057E-002  0.1782720E+03  0.7818608E-02  0.1169558E+00
         21   -1    0    0  501  502  0.00000000000E+00  0.00000000000E+00  0.32019575093E+03  0.32019575093E+03  0.00000000000E+00 0. -1.
         21   -1    0    0  502  503 -0.00000000000E+00 -0.00000000000E+00 -0.10561731057E+03  0.10561731057E+03  0.00000000000E+00 0.  1.
         -6    2    1    2    0  503  0.21192379163E+02 -0.62541608255E+02  0.54450710609E+02  0.18640217098E+03  0.16559082028E+03 0.  0.
        -24    2    3    3    0    0 -0.85400819316E+01  0.23338617455E+02  0.66498380446E+01  0.83608952192E+02  0.79552576806E+02 0.  0.
          6    2    1    2  501    0 -0.21192379163E+02  0.62541608255E+02  0.16012772975E+03  0.23941089052E+03  0.16527587534E+03 0.  0.
         24    2    5    5    0    0  0.50375626008E+02  0.27894101654E+02  0.59327684163E+02  0.11093844886E+03  0.73971485881E+02 0.  0.
          5    1    5    5  501    0 -0.71568005171E+02  0.34647506601E+02  0.10080004559E+03  0.12847244167E+03  0.47000000000E+01 0. -1.
        -11    1    6    6    0    0  0.20403542497E+02  0.38755476633E+02  0.65177870467E+02  0.78526723567E+02  0.00000000000E+00 0.  1.
         12    1    6    6    0    0  0.29972083510E+02 -0.10861374979E+02 -0.58501863038E+01  0.32411725289E+02  0.00000000000E+00 0. -1.
         -5    1    3    3    0  503  0.29732461095E+02 -0.85880225710E+02  0.47800872564E+02  0.10279321879E+03  0.47000000000E+01 0.  1.
         13    1    4    4    0    0 -0.22739525335E+02 -0.58398875535E+01  0.33899146362E+02  0.41235208538E+02  0.00000000000E+00 0. -1.
        -14    1    4    4    0    0  0.14199443403E+02  0.29178505009E+02 -0.27249308318E+02  0.42373743654E+02  0.00000000000E+00 0.  1.
</event>
<event>
12    1  0.8493057E-002  0.1730684E+03  0.7818608E-02  0.1174745E+00
         21   -1    0    0  503  502  0.00000000000E+00  0.00000000000E+00  0.78533755262E+02  0.78533755262E+02  0.00000000000E+00 0.  1.
         21   -1    0    0  501  503 -0.00000000000E+00 -0.00000000000E+00 -0.46141696769E+03  0.46141696769E+03  0.00000000000E+00 0.  1.
          6    2    1    2  501    0 -0.14798667897E+02  0.95434848811E+01 -0.30433834994E+03  0.35010642181E+03  0.17217025490E+03 0.  0.
         24    2    3    3    0    0  0.28827772355E+02 -0.25670810018E+02 -0.27101598677E+03  0.28471695215E+03  0.78256289298E+02 0.  0.
         -6    2    1    2    0  502  0.14798667897E+02 -0.95434848811E+01 -0.78544862492E+02  0.18984430115E+03  0.17193453573E+03 0.  0.
        -24    2    5    5    0    0 -0.35206053758E+02 -0.37694835493E+02 -0.90342798786E+02  0.13107141599E+03  0.79734107836E+02 0.  0.
          5    1    3    3  501    0 -0.43626440252E+02  0.35214294899E+02 -0.33322363168E+02  0.65389469652E+02  0.47000000000E+01 0. -1.
        -13    1    4    4    0    0  0.10277904646E+02 -0.50538881212E+02 -0.21032742086E+03  0.21655816263E+03  0.00000000000E+00 0.  1.
         14    1    4    4    0    0  0.18549867709E+02  0.24868071194E+02 -0.60688565908E+02  0.68158789520E+02  0.00000000000E+00 0. -1.
         -5    1    5    5    0  502  0.50004721655E+02  0.28151350612E+02  0.11797936294E+02  0.58772885158E+02  0.47000000000E+01 0.  1.
         13    1    6    6    0    0  0.20096985636E+01 -0.53148965839E+02 -0.39793747203E+02  0.66425851704E+02  0.00000000000E+00 0. -1.
        -14    1    6    6    0    0 -0.37215752321E+02  0.15454130347E+02 -0.50549051583E+02  0.64645564283E+02  0.00000000000E+00 0.  1.
</event>
<event>
12    1  0.8493057E-002  0.2193537E+03  0.7818608E-02  0.1134546E+00
         21   -1    0    0  501  502  0.00000000000E+00  0.00000000000E+00  0.19046610197E+03  0.19046610197E+03  0.00000000000E+00 0.  1.
         21   -1    0    0  502  503 -0.00000000000E+00 -0.00000000000E+00 -0.59213208648E+03  0.59213208648E+03  0.00000000000E+00 0. -1.
         -6    2    1    2    0  503 -0.84766943409E+02  0.10368828583E+03 -0.49779938270E+03  0.54398554674E+03  0.17372206058E+03 0.  0.
        -24    2    3    3    0    0  0.18411462215E+02  0.68950721106E+02 -0.29335886222E+03  0.31231660578E+03  0.79931572755E+02 0.  0.
          6    2    1    2  501    0  0.84766943409E+02 -0.10368828583E+03  0.96133398197E+02  0.23861264171E+03  0.17250410783E+03 0.  0.
         24    2    5    5    0    0  0.10881037706E+03 -0.28693893787E+02  0.45043753620E+02  0.14462068821E+03  0.78887045966E+02 0.  0.
          5    1    5    5  501    0 -0.24043433650E+02 -0.74994392041E+02  0.51089644577E+02  0.93991953498E+02  0.47000000000E+01 0. -1.
        -11    1    6    6    0    0  0.36594020380E+02 -0.33842962634E+01 -0.22043159737E+02  0.42854132589E+02  0.00000000000E+00 0.  1.
         12    1    6    6    0    0  0.72216356679E+02 -0.25309597524E+02  0.67086913357E+02  0.10176655562E+03  0.00000000000E+00 0. -1.
         -5    1    3    3    0  503 -0.10317840562E+03  0.34737564722E+02 -0.20444052048E+03  0.23166894096E+03  0.47000000000E+01 0.  1.
         13    1    4    4    0    0 -0.25151558025E+02  0.56482026421E+02 -0.17177491668E+03  0.18256352916E+03  0.00000000000E+00 0. -1.
        -14    1    4    4    0    0  0.43563020240E+02  0.12468694685E+02 -0.12158394554E+03  0.12975307662E+03  0.00000000000E+00 0.  1.
</event>
<event>
12    1  0.8493057E-002  0.2227395E+03  0.7818608E-02  0.1132165E+00
         21   -1    0    0  503  502  0.00000000000E+00  0.00000000000E+00  0.91221976990E+02  0.91221976990E+02  0.00000000000E+00 0. -1.
         21   -1    0    0  501  503 -0.00000000000E+00 -0.00000000000E+00 -0.65199251793E+03  0.65199251793E+03  0.00000000000E+00 0.  1.
          6    2    1    2  501    0 -0.11624625237E+03 -0.81189487785E+02 -0.43541239564E+03  0.48907756010E+03  0.17177887356E+03 0.  0.
         24    2    3    3    0    0 -0.73981270610E+02 -0.78023767553E+02 -0.15097296974E+03  0.20145936271E+03  0.78943654120E+02 0.  0.
         -6    2    1    2    0  502  0.11624625237E+03  0.81189487785E+02 -0.12535814530E+03  0.25413693482E+03  0.16960540360E+03 0.  0.
        -24    2    5    5    0    0  0.85583723803E+02 -0.94340668783E+01 -0.95407517783E+02  0.15377783256E+03  0.84447924418E+02 0.  0.
          5    1    3    3  501    0 -0.42264981755E+02 -0.31657202322E+01 -0.28443942589E+03  0.28761819739E+03  0.47000000000E+01 0. -1.
        -11    1    4    4    0    0 -0.15719510237E+00  0.14552321822E+02 -0.11833066773E+02  0.18756765445E+02  0.00000000000E+00 0.  1.
         12    1    4    4    0    0 -0.73824075507E+02 -0.92576089375E+02 -0.13913990297E+03  0.18270259727E+03  0.00000000000E+00 0. -1.
         -5    1    5    5    0  502  0.30662528563E+02  0.90623554664E+02 -0.29950627514E+02  0.10035910226E+03  0.47000000000E+01 0.  1.
         11    1    6    6    0    0  0.12520269754E+01  0.96964851341E+00 -0.62714365699E+02  0.62734356256E+02  0.00000000000E+00 0. -1.
        -12    1    6    6    0    0  0.84331696827E+02 -0.10403715392E+02 -0.32693152084E+02  0.91043476300E+02  0.00000000000E+00 0.  1.
</event>
<event>
12    1  0.8493057E-002  0.2438254E+03  0.7818608E-02  0.1117524E+00
         21   -1    0    0  503  502  0.00000000000E+00  0.00000000000E+00  0.23533675117E+03  0.23533675117E+03  0.00000000000E+00 0. -1.
         21   -1    0    0  501  503 -0.00000000000E+00 -0.00000000000E+00 -0.29205480069E+03  0.29205480069E+03  0.00000000000E+00 0.  1.
          6    2    1    2  501    0 -0.12704345161E+03  0.11472813004E+03 -0.12712652144E+03  0.27360385102E+03  0.17145067051E+03 0.  0.
         24    2    3    3    0    0 -0.10656420245E+03  0.12368834773E+03 -0.43082345234E+02  0.18651080478E+03  0.79217770860E+02 0.  0.
         -6    2    1    2    0  502  0.12704345161E+03 -0.11472813004E+03  0.70408471930E+02  0.25378770084E+03  0.17363254810E+03 0.  0.
        -24    2    5    5    0    0  0.14396704234E+03 -0.54821336353E+02  0.80250046728E+02  0.19058818781E+03  0.78434043218E+02 0.  0.
          5    1    3    3  501    0 -0.20479249163E+02 -0.89602176996E+01 -0.84044176211E+02  0.87093046235E+02  0.47000000000E+01 0. -1.
        -11    1    4    4    0    0 -0.26693314320E+02  0.44299116803E+02 -0.52256419357E+02  0.73523317002E+02  0.00000000000E+00 0.  1.
         12    1    4    4    0    0 -0.79870888130E+02  0.79389230931E+02  0.91740741237E+01  0.11298748778E+03  0.00000000000E+00 0. -1.
         -5    1    5    5    0  502 -0.16923590723E+02 -0.59906793682E+02 -0.98415747982E+01  0.63199513026E+02  0.47000000000E+01 0.  1.
         13    1    6    6    0    0  0.60153345198E+02  0.16366590687E+02  0.36496788245E+02  0.72237841755E+02  0.00000000000E+00 0. -1.
        -14    1    6    6    0    0  0.83813697138E+02 -0.71187927040E+02  0.43753258483E+02  0.11835034606E+03  0.00000000000E+00 0.  1.
</event>
<event>
12    1  0.8493057E-002  0.2049330E+03  0.7818608E-02  0.1146523E+00
         21   -1    0    0  503  502  0.00000000000E+00  0.00000000000E+00  0.95834452656E+02  0.95834452656E+02  0.00000000000E+00 0.  1.
         21   -1    0    0  501  503 -0.00000000000E+00 -0.00000000000E+00 -0.47217863200E+03  0.47217863200E+03  0.00000000000E+00 0.  1.
          6    2    1    2  501    0  0.45674222456E+02  0.94187012357E+02 -0.27568284532E+03  0.34350917995E+03  0.17618228517E+03 0.  0.
         24    2    3    3    0    0 -0.26372351069E+02  0.97600113035E+02 -0.20591273755E+03  0.24304866058E+03  0.80320065729E+02 0.  0.
         -6    2    1    2    0  502 -0.45674222456E+02 -0.94187012357E+02 -0.10066133402E+03  0.22450390471E+03  0.17120739227E+03 0.  0.
        -24    2    5    5    0    0 -0.31523857333E+02 -0.59859571166E+01  0.46709153755E+01  0.86313341565E+02  0.79991188377E+02 0.  0.
          5    1    3    3  501    0  0.72046573526E+02 -0.34131006781E+01 -0.69770107768E+02  0.10046051936E+03  0.47000000000E+01 0. -1.
        -11    1    4    4    0    0 -0.10254519584E+02  0.56204274039E+02 -0.36239055062E+02  0.67656076622E+02  0.00000000000E+00 0.  1.
         12    1    4    4    0    0 -0.16117831485E+02  0.41395838996E+02 -0.16967368249E+03  0.17539258396E+03  0.00000000000E+00 0. -1.
         -5    1    5    5    0  502 -0.14150365124E+02 -0.88201055240E+02 -0.10533224940E+03  0.13819056314E+03  0.47000000000E+01 0.  1.
         13    1    6    6    0    0 -0.31208991492E+02 -0.16131308823E+02 -0.32452918325E+02  0.47826898103E+02  0.00000000000E+00 0. -1.
        -14    1    6    6    0    0 -0.31486584018E+00  0.10145351706E+02  0.37123833701E+02  0.38486443462E+02  0.00000000000E+00 0.  1.
</event>
<event>
12    1  0.8493057E-002  0.1983811E+03  0.7818608E-02  0.1151284E+00
         21   -1    0    0  503  502  0.00000000000E+00  0.00000000000E+00  0.46179756800E+02  0.46179756800E+02  0.00000000000E+00 0.  1.
         21   -1    0    0  501  503 -0.00000000000E+00 -0.00000000000E+00 -0.90139417521E+03  0.90139417521E+03  0.00000000000E+00 0.  1.
          6    2    1    2  501    0 -0.50393093580E+02  0.85983164246E+02 -0.31394080733E+03  0.37136756962E+03  0.17152980163E+03 0.  0.
         24    2    3    3    0    0 -0.20698934588E+02  0.77770135203E+02 -0.31935502880E+03  0.33973529625E+03  0.83401422489E+02 0.  0.
         -6    2    1    2    0  502  0.50393093580E+02 -0.85983164246E+02 -0.54127361109E+03  0.57620636239E+03  0.17059918402E+03 0.  0.
        -24    2    5    5    0    0  0.31876465463E+02  0.18112571285E+02 -0.33241007884E+03  0.34205928730E+03  0.71860428776E+02 0.  0.
          5    1    3    3  501    0 -0.29694158992E+02  0.82130290430E+01  0.54142214772E+01  0.31632273369E+02  0.47000000000E+01 0. -1.
        -13    1    4    4    0    0 -0.21615239725E+02  0.95590672448E+02 -0.27368153221E+03  0.29069980448E+03  0.00000000000E+00 0.  1.
         14    1    4    4    0    0  0.91630513689E+00 -0.17820537245E+02 -0.45673496590E+02  0.49035491774E+02  0.00000000000E+00 0. -1.
         -5    1    5    5    0  502  0.18516628116E+02 -0.10409573553E+03 -0.20886353225E+03  0.23414707509E+03  0.47000000000E+01 0.  1.
         13    1    6    6    0    0  0.31782736816E+02 -0.18412482423E+02 -0.23822199781E+03  0.24103709696E+03  0.00000000000E+00 0. -1.
        -14    1    6    6    0    0  0.93728647177E-01  0.36525053708E+02 -0.94188081026E+02  0.10102219034E+03  0.00000000000E+00 0.  1.
</event>
<event>
12    1  0.8493057E-002  0.2229326E+03  0.7818608E-02  0.1132087E+00
         21   -1    0    0  503  502  0.00000000000E+00  0.00000000000E+00  0.16583173912E+03  0.16583173912E+03  0.00000000000E+00 0. -1.
         21   -1    0    0  501  503 -0.00000000000E+00 -0.00000000000E+00 -0.29739582337E+03  0.29739582337E+03  0.00000000000E+00 0. -1.
          6    2    1    2  501    0 -0.12303255480E+03  0.63662180245E+02 -0.74059882442E+02  0.23299793225E+03  0.17208511705E+03 0.  0.
         24    2    3    3    0    0 -0.59700303812E+02 -0.96539120884E+01 -0.91912209785E+02  0.13437228142E+03  0.77140984000E+02 0.  0.
         -6    2    1    2    0  502  0.12303255480E+03 -0.63662180245E+02 -0.57504201808E+02  0.23022963025E+03  0.17466844788E+03 0.  0.
        -24    2    5    5    0    0  0.64756061296E+02  0.26516648640E+02  0.43428530852E+01  0.10623156948E+03  0.79811063470E+02 0.  0.
          5    1    3    3  501    0 -0.63332250991E+02  0.73316092334E+02  0.17852327342E+02  0.98625650833E+02  0.47000000000E+01 0. -1.
        -13    1    4    4    0    0 -0.69180814440E+01 -0.31044343679E+02 -0.77245980079E+01  0.32730422235E+02  0.00000000000E+00 0.  1.
         14    1    4    4    0    0 -0.52782222368E+02  0.21390431590E+02 -0.84187611777E+02  0.10164185918E+03  0.00000000000E+00 0. -1.
         -5    1    5    5    0  502  0.58276493507E+02 -0.90178828885E+02 -0.61847054893E+02  0.12399806076E+03  0.47000000000E+01 0.  1.
         13    1    6    6    0    0  0.61950546090E+02 -0.15181801853E+02 -0.27419471347E+01  0.63842584083E+02  0.00000000000E+00 0. -1.
        -14    1    6    6    0    0  0.28055152065E+01  0.41698450493E+02  0.70848002199E+01  0.42388985400E+02  0.00000000000E+00 0.  1.
</event>
<event>
12    1  0.8493057E-002  0.1924299E+03  0.7818608E-02  0.1156292E+00
         21   -1    0    0  503  502  0.00000000000E+00  0.00000000000E+00  0.17362976310E+02  0.17362976310E+02  0.00000000000E+00 0.  1.
         21   -1    0    0  501  503 -0.00000000000E+00 -0.00000000000E+00 -0.33132851748E+04  0.33132851748E+04  0.00000000000E+00 0.  1.
          6    2    1    2  501    0  0.35259941582E+02  0.78314700840E+02 -0.65383664627E+03  0.68156558236E+03  0.17219996286E+03 0.  0.
         24    2    3    3    0    0  0.36405660121E+02 -0.72518454849E+01 -0.18045112997E+03  0.20048462913E+03  0.79079168294E+02 0.  0.
         -6    2    1    2    0  502 -0.35259941582E+02 -0.78314700840E+02 -0.26420855522E+04  0.26490825687E+04  0.17217994930E+03 0.  0.
        -24    2    5    5    0    0  0.73792342426E+00 -0.75521636755E+02 -0.89216018770E+03  0.89877844693E+03  0.78414501103E+02 0.  0.
          5    1    3    3  501    0 -0.11457185389E+01  0.85566546325E+02 -0.47338551630E+03  0.48108095323E+03  0.47000000000E+01 0. -1.
        -13    1    4    4    0    0  0.16965528528E+02  0.35230890796E+02 -0.63854112835E+02  0.74875847577E+02  0.00000000000E+00 0.  1.
         14    1    4    4    0    0  0.19440131593E+02 -0.42482736281E+02 -0.11659701714E+03  0.12560878155E+03  0.00000000000E+00 0. -1.
         -5    1    5    5    0  502 -0.35997865006E+02 -0.27930640856E+01 -0.17499253645E+04  0.17503041218E+04  0.47000000000E+01 0.  1.
         13    1    6    6    0    0 -0.10657291807E+02 -0.57076029604E+02 -0.26690493473E+03  0.27314738733E+03  0.00000000000E+00 0. -1.
        -14    1    6    6    0    0  0.11395215231E+02 -0.18445607151E+02 -0.62525525298E+03  0.62563105959E+03  0.00000000000E+00 0.  1.
</event>
<event>
12    1  0.8493057E-002  0.1925534E+03  0.7818608E-02  0.1157086E+00
         21   -1    0    0  503  502  0.00000000000E+00  0.00000000000E+00  0.11327808704E+03  0.11327808704E+03  0.00000000000E+00 0.  1.
         21   -1    0    0  501  503 -0.00000000000E+00 -0.00000000000E+00 -0.32130807343E+03  0.32130807343E+03  0.00000000000E+00 0. -1.
          6    2    1    2  501    0  0.73942918239E+02  0.26699058722E+02 -0.11405409051E+03  0.22032400620E+03  0.17132990764E+03 0.  0.
         24    2    3    3    0    0  0.77648560045E+02  0.31571202569E+02 -0.10022205882E+02  0.11600625802E+03  0.79567377614E+02 0.  0.
         -6    2    1    2    0  502 -0.73942918239E+02 -0.26699058722E+02 -0.93975895883E+02  0.21426215427E+03  0.17577373766E+03 0.  0.
        -24    2    5    5    0    0 -0.51752354557E+02  0.73818992695E+01 -0.12729928837E+03  0.16147511703E+03  0.84476659268E+02 0.  0.
          5    1    3    3  501    0 -0.37056418062E+01 -0.48721438469E+01 -0.10403188463E+03  0.10431774818E+03  0.47000000000E+01 0. -1.
        -11    1    4    4    0    0  0.58263846915E+02 -0.17023847463E+02 -0.17460725756E+02  0.63161413725E+02  0.00000000000E+00 0.  1.
         12    1    4    4    0    0  0.19384713130E+02  0.48595050032E+02  0.74385198734E+01  0.52844844295E+02  0.00000000000E+00 0. -1.
         -5    1    5    5    0  502 -0.22190563681E+02 -0.34080957991E+02  0.33323392485E+02  0.52787037242E+02  0.47000000000E+01 0.  1.
         13    1    6    6    0    0 -0.17156236222E+02  0.44010006461E+02 -0.46699342365E+02  0.66423231534E+02  0.00000000000E+00 0. -1.
        -14    1    6    6    0    0 -0.34596118336E+02 -0.36628107192E+02 -0.80599946002E+02  0.95051885494E+02  0.00000000000E+00 0.  1.
</event>
<event>
12    1  0.8493057E-002  0.1743456E+03  0.7818608E-02  0.1173488E+00
         21   -1    0    0  501  502  0.00000000000E+00  0.00000000000E+00  0.27783063809E+03  0.27783063809E+03  0.00000000000E+00 0. -1.
         21   -1    0    0  502  503 -0.00000000000E+00 -0.00000000000E+00 -0.14065333039E+03  0.14065333039E+03  0.00000000000E+00 0. -1.
         -6    2    1    2    0  503  0.10573885174E+02  0.24730887238E+02 -0.30355799729E+02  0.17696855660E+03  0.17225844426E+03 0.  0.
        -24    2    3    3    0    0 -0.44797630146E+02  0.45839348921E+02 -0.55342504435E+02  0.11248602195E+03  0.74042141784E+02 0.  0.
          6    2    1    2  501    0 -0.10573885174E+02 -0.24730887238E+02  0.16753310743E+03  0.24151541188E+03  0.17186892757E+03 0.  0.
         24    2    5    5    0    0 -0.93993388649E+01 -0.14622613118E+02  0.96530736293E+01  0.83237959806E+02  0.80828260755E+02 0.  0.
          5    1    5    5  501    0 -0.11745463095E+01 -0.10108274120E+02  0.15788003380E+03  0.15827745208E+03  0.47000000000E+01 0. -1.
        -13    1    6    6    0    0 -0.18938202461E+02  0.28216039701E+02  0.18164473052E+02  0.38532434262E+02  0.00000000000E+00 0.  1.
         14    1    6    6    0    0  0.95388635961E+01 -0.42838652819E+02 -0.85113994228E+01  0.44705525544E+02  0.00000000000E+00 0. -1.
         -5    1    3    3    0  503  0.55371515321E+02 -0.21108461683E+02  0.24986704706E+02  0.64482534655E+02  0.47000000000E+01 0.  1.
         13    1    4    4    0    0 -0.63214525901E+02  0.22150582676E+02 -0.45223255270E+02  0.80819969160E+02  0.00000000000E+00 0. -1.
        -14    1    4    4    0    0  0.18416895755E+02  0.23688766244E+02 -0.10119249166E+02  0.31666052787E+02  0.00000000000E+00 0.  1.
</event>
<event>
12    1  0.8493057E-002  0.2119123E+03  0.7818608E-02  0.1140458E+00
         21   -1    0    0  501  502  0.00000000000E+00  0.00000000000E+00  0.36678732288E+02  0.36678732288E+02  0.00000000000E+00 0. -1.
         21   -1    0    0  502  503 -0.00000000000E+00 -0.00000000000E+00 -0.12140116294E+04  0.12140116294E+04  0.00000000000E+00 0. -1.
         -6    2    1    2    0  503 -0.10246791617E+03 -0.63654605636E+02 -0.57084665427E+03  0.60891109286E+03  0.17422753413E+03 0.  0.
        -24    2    3    3    0    0 -0.13175380372E+03 -0.72043214700E+02 -0.53636780936E+03  0.56266271215E+03  0.79684447365E+02 0.  0.
          6    2    1    2  501    0  0.10246791617E+03  0.63654605636E+02 -0.60648624285E+03  0.64177926884E+03  0.17176578379E+03 0.  0.
         24    2    5    5    0    0  0.33845890157E+02  0.29128700430E+02 -0.51152056435E+03  0.51954346934E+03  0.79234483134E+02 0.  0.
          5    1    5    5  501    0  0.68622026018E+02  0.34525905206E+02 -0.94965678508E+02  0.12223579950E+03  0.47000000000E+01 0. -1.
        -13    1    6    6    0    0  0.98982109556E+01  0.51162828088E+02 -0.21422356600E+03  0.22047073681E+03  0.00000000000E+00 0.  1.
         14    1    6    6    0    0  0.23947679201E+02 -0.22034127658E+02 -0.29729699834E+03  0.29907273253E+03  0.00000000000E+00 0. -1.
         -5    1    3    3    0  503  0.29285887547E+02  0.83886090644E+01 -0.34478844917E+02  0.46248380710E+02  0.47000000000E+01 0.  1.
         11    1    4    4    0    0 -0.72580916859E+02 -0.49564590642E+02 -0.42995959519E+03  0.43885064843E+03  0.00000000000E+00 0. -1.
        -12    1    4    4    0    0 -0.59172886862E+02 -0.22478624058E+02 -0.10640821417E+03  0.12381206372E+03  0.00000000000E+00 0.  1.
</event>
<event>
12    1  0.8493057E-002  0.2033568E+03  0.7818608E-02  0.1147000E+00
         21   -1    0    0  501  502  0.00000000000E+00  0.00000000000E+00  0.67314154665E+02  0.67314154665E+02  0.00000000000E+00 0. -1.
         21   -1    0    0  502  503 -0.00000000000E+00 -0.00000000000E+00 -0.69378632747E+03  0.69378632747E+03  0.00000000000E+00 0. -1.
         -6    2    1    2    0  503  0.10342307322E+03 -0.33117531984E+02 -0.44295813737E+03  0.48740732265E+03  0.17193278837E+03 0.  0.
        -24    2    3    3    0    0  0.10778973896E+03 -0.76736585387E+02 -0.38033583823E+03  0.41082186751E+03  0.81314977861E+02 0.  0.
          6    2    1    2  501    0 -0.10342307322E+03  0.33117531984E+02 -0.18351403543E+03  0.27369315948E+03  0.17157342843E+03 0.  0.
         24    2    5    5    0    0  0.79601793668E+01 -0.35252062026E+01 -0.10568836916E+03  0.13288178369E+03  0.80073375897E+02 0.  0.
          5    1    5    5  501    0 -0.11138325259E+03  0.36642738187E+02 -0.77825666274E+02  0.14081137578E+03  0.47000000000E+01 0. -1.
        -11    1    6    6    0    0  0.17146978181E+02 -0.35942552791E+02 -0.29449927479E+02  0.49529629419E+02  0.00000000000E+00 0.  1.
         12    1    6    6    0    0 -0.91867988141E+01  0.32417346588E+02 -0.76238441681E+02  0.83352154274E+02  0.00000000000E+00 0. -1.
         -5    1    3    3    0  503 -0.43666657373E+01  0.43619053402E+02 -0.62622299138E+02  0.76585455138E+02  0.47000000000E+01 0.  1.
         11    1    4    4    0    0  0.94792005851E+02 -0.47471998917E+02 -0.35346118670E+03  0.36901751389E+03  0.00000000000E+00 0. -1.
        -12    1    4    4    0    0  0.12997733109E+02 -0.29264586470E+02 -0.26874651534E+02  0.41804353629E+02  0.00000000000E+00 0.  1.
</event>
<event>
12    1  0.8493057E-002  0.1725158E+03  0.7818608E-02  0.1175545E+00
         21   -1    0    0  503  502  0.00000000000E+00  0.00000000000E+00  0.87006378785E+02  0.87006378785E+02  0.00000000000E+00 0. -1.
         21   -1    0    0  501  503 -0.00000000000E+00 -0.00000000000E+00 -0.57091735131E+03  0.57091735131E+03  0.00000000000E+00 0. -1.
          6    2    1    2  501    0 -0.14248701644E+01  0.91296720299E+01 -0.45174978583E+03  0.48356960755E+03  0.17226814906E+03 0.  0.
         24    2    3    3    0    0  0.29700888350E+02 -0.36810519909E+02 -0.14563338823E+03  0.17242871830E+03  0.79280653278E+02 0.  0.
         -6    2    1    2    0  502  0.14248701644E+01 -0.91296720299E+01 -0.32161186697E+02  0.17435412255E+03  0.17111293626E+03 0.  0.
        -24    2    5    5    0    0  0.47387112927E+02 -0.53359747147E+02 -0.11898541906E+02  0.10726096285E+03  0.79186727200E+02 0.  0.
          5    1    3    3  501    0 -0.31125758514E+02  0.45940191939E+02 -0.30611639761E+03  0.31114088925E+03  0.47000000000E+01 0. -1.
        -13    1    4    4    0    0 -0.29764219300E+01  0.22852631949E+02 -0.25487032359E+02  0.34361180029E+02  0.00000000000E+00 0.  1.
         14    1    4    4    0    0  0.32677310280E+02 -0.59663151858E+02 -0.12014635587E+03  0.13806753827E+03  0.00000000000E+00 0. -1.
         -5    1    5    5    0  502 -0.45962242763E+02  0.44230075117E+02 -0.20262644791E+02  0.67093159701E+02  0.47000000000E+01 0.  1.
         11    1    6    6    0    0  0.12700833615E+02 -0.33711991460E+02  0.31841605941E+02  0.48080114514E+02  0.00000000000E+00 0. -1.
        -12    1    6    6    0    0  0.34686279312E+02 -0.19647755687E+02 -0.43740147847E+02  0.59180848335E+02  0.00000000000E+00 0.  1.
</event>
<event>
12    1  0.8493057E-002  0.2390702E+03  0.7818608E-02  0.1120502E+00
         21   -1    0    0  503  502  0.00000000000E+00  0.00000000000E+00  0.40683120810E+02  0.40683120810E+02  0.00000000000E+00 0.  1.
         21   -1    0    0  501  503 -0.00000000000E+00 -0.00000000000E+00 -0.15252721511E+04  0.15252721511E+04  0.00000000000E+00 0.  1.
          6    2    1    2  501    0  0.11594272006E+03 -0.11892979156E+03 -0.96432341264E+03  0.99339009740E+03  0.17122275487E+03 0.  0.
         24    2    3    3    0    0  0.19028157742E+02 -0.30790707424E+02 -0.60024606965E+03  0.60643359826E+03  0.78461624529E+02 0.  0.
         -6    2    1    2    0  502 -0.11594272006E+03  0.11892979156E+03 -0.52026561760E+03  0.57256517447E+03  0.17195219247E+03 0.  0.
        -24    2    5    5    0    0 -0.13677657777E+03  0.55788592176E+02 -0.31909590865E+03  0.36064018187E+03  0.80118303896E+02 0.  0.
          5    1    3    3  501    0  0.96914562317E+02 -0.88139084138E+02 -0.36407734300E+03  0.38695649914E+03  0.47000000000E+01 0. -1.
        -11    1    4    4    0    0  0.46977260904E+02 -0.23447985792E+02 -0.47520899514E+03  0.47810067992E+03  0.00000000000E+00 0.  1.
         12    1    4    4    0    0 -0.27949103162E+02 -0.73427216317E+01 -0.12503707451E+03  0.12833291834E+03  0.00000000000E+00 0. -1.
         -5    1    5    5    0  502  0.20833857709E+02  0.63141199386E+02 -0.20116970895E+03  0.21192499259E+03  0.47000000000E+01 0.  1.
         11    1    6    6    0    0 -0.84369509142E+02  0.33354796522E+02 -0.27188576703E+03  0.28662279539E+03  0.00000000000E+00 0. -1.
        -12    1    6    6    0    0 -0.52407068626E+02  0.22433795654E+02 -0.47210141619E+02  0.74017386479E+02  0.00000000000E+00 0.  1.
</event>
<event>
12    1  0.8493057E-002  0.1844404E+03  0.7818608E-02  0.1163978E+00
         21   -1    0    0  503  502  0.00000000000E+00  0.00000000000E+00  0.97485182702E+02  0.97485182702E+02  0.00000000000E+00 0.  1.
         21   -1    0    0  501  503 -0.00000000000E+00 -0.00000000000E+00 -0.37462301618E+03  0.37462301618E+03  0.00000000000E+00 0.  1.
          6    2    1    2  501    0 -0.57866286543E+02 -0.23078234673E+02 -0.20473997570E+03  0.27556619926E+03  0.17360057745E+03 0.  0.
         24    2    3    3    0    0 -0.53157503912E+02 -0.35068580149E+02 -0.22786498859E+03  0.24868131057E+03  0.76579472879E+02 0.  0.
         -6    2    1    2    0  502  0.57866286543E+02  0.23078234673E+02 -0.72397857785E+02  0.19654199963E+03  0.17177367601E+03 0.  0.
        -24    2    5    5    0    0 -0.32011272194E+02 -0.70599275313E+01 -0.18459573788E+02  0.87373721879E+02  0.78859668312E+02 0.  0.
          5    1    3    3  501    0 -0.47087826312E+01  0.11990345476E+02  0.23125012893E+02  0.26884888688E+02  0.47000000000E+01 0. -1.
        -11    1    4    4    0    0 -0.28903094195E+02  0.20855539796E+02 -0.11513822297E+03  0.12052863885E+03  0.00000000000E+00 0.  1.
         12    1    4    4    0    0 -0.24254409718E+02 -0.55924119945E+02 -0.11272676562E+03  0.12815267172E+03  0.00000000000E+00 0. -1.
         -5    1    5    5    0  502  0.89877558738E+02  0.30138162204E+02 -0.53938283997E+02  0.10916827775E+03  0.47000000000E+01 0.  1.
         11    1    6    6    0    0  0.18023269715E+01  0.26548234155E+02 -0.28137266011E+02  0.38726771849E+02  0.00000000000E+00 0. -1.
        -12    1    6    6    0    0 -0.33813599166E+02 -0.33608161686E+02  0.96776922233E+01  0.48646950030E+02  0.00000000000E+00 0.  1.
</event>
<event>
12    1  0.8493057E-002  0.2817784E+03  0.7818608E-02  0.1094783E+00
         21   -1    0    0  501  502  0.00000000000E+00  0.00000000000E+00  0.17784365616E+03  0.17784365616E+03  0.00000000000E+00 0. -1.
         21   -1    0    0  502  503 -0.00000000000E+00 -0.00000000000E+00 -0.51311054315E+03  0.51311054315E+03  0.00000000000E+00 0. -1.
         -6    2    1    2    0  503  0.15908050498E+03 -0.15608750202E+03 -0.42324476955E+02  0.28448853539E+03  0.17167542068E+03 0.  0.
        -24    2    3    3    0    0  0.12020304581E+03 -0.13006143174E+03  0.31580571315E+02  0.19689367637E+03  0.80031487956E+02 0.  0.
          6    2    1    2  501    0 -0.15908050498E+03  0.15608750202E+03 -0.29294241004E+03  0.40646566392E+03  0.17242147487E+03 0.  0.
         24    2    5    5    0    0 -0.78812890426E+02  0.75189992203E+02 -0.45644656604E+02  0.13413210760E+03  0.63584439834E+02 0.  0.
          5    1    5    5  501    0 -0.80267614550E+02  0.80897509819E+02 -0.24729775344E+03  0.27233355632E+03  0.47000000000E+01 0. -1.
        -13    1    6    6    0    0 -0.51276103024E+02  0.80690221272E+02 -0.23711221654E+02  0.98500622245E+02  0.00000000000E+00 0.  1.
         14    1    6    6    0    0 -0.27536787402E+02 -0.55002290692E+01 -0.21933434949E+02  0.35631485359E+02  0.00000000000E+00 0. -1.
         -5    1    3    3    0  503  0.38877459170E+02 -0.26026070284E+02 -0.73905048270E+02  0.87594859015E+02  0.47000000000E+01 0.  1.
         11    1    4    4    0    0  0.49781672788E+02 -0.97030882190E+02  0.44974924514E+02  0.11796588863E+03  0.00000000000E+00 0. -1.
        -12    1    4    4    0    0  0.70421373018E+02 -0.33030549549E+02 -0.13394353199E+02  0.78927787748E+02  0.00000000000E+00 0.  1.
</event>
<event>
12    1  0.8493057E-002  0.1893538E+03  0.7818608E-02  0.1159156E+00
         21   -1    0    0  503  502  0.00000000000E+00  0.00000000000E+00  0.22291996789E+02  0.22291996789E+02  0.00000000000E+00 0. -1.
         21   -1    0    0  501  503 -0.00000000000E+00 -0.00000000000E+00 -0.22121307276E+04  0.22121307276E+04  0.00000000000E+00 0.  1.
          6    2    1    2  501    0 -0.69365177858E+02  0.91922637875E+00 -0.16815805580E+04  0.16922080311E+04  0.17618874691E+03 0.  0.
         24    2    3    3    0    0  0.17624669025E+02 -0.70807988097E+01 -0.43819512450E+03  0.44574878181E+03  0.79474792711E+02 0.  0.
         -6    2    1    2    0  502  0.69365177858E+02 -0.91922637875E+00 -0.50825817281E+03  0.54221469331E+03  0.17566453977E+03 0.  0.
        -24    2    5    5    0    0 -0.42693055823E+01  0.68547346525E+01 -0.10282161158E+03  0.13004559354E+03  0.79210846690E+02 0.  0.
          5    1    3    3  501    0 -0.86989846883E+02  0.80000251884E+01 -0.12433854335E+04  0.12464592493E+04  0.47000000000E+01 0. -1.
        -11    1    4    4    0    0 -0.20474298396E+02 -0.30549542638E+02 -0.18266471264E+03  0.18632999945E+03  0.00000000000E+00 0.  1.
         12    1    4    4    0    0  0.38098967421E+02  0.23468743828E+02 -0.25553041186E+03  0.25941878236E+03  0.00000000000E+00 0. -1.
         -5    1    5    5    0  502  0.73634483440E+02 -0.77739610313E+01 -0.40543656123E+03  0.41216909977E+03  0.47000000000E+01 0.  1.
         11    1    6    6    0    0  0.11548151947E+02 -0.31144077828E+02 -0.23524382969E+02  0.40702702505E+02  0.00000000000E+00 0. -1.
        -12    1    6    6    0    0 -0.15817457529E+02  0.37998812481E+02 -0.79297228611E+02  0.89342891033E+02  0.00000000000E+00 0.  1.
</event>
<event>
12    1  0.8493057E-002  0.2089028E+03  0.7818608E-02  0.1142737E+00
         21   -1    0    0  501  502  0.00000000000E+00  0.00000000000E+00  0.48118992033E+03  0.48118992033E+03  0.00000000000E+00 0. -1.
         21   -1    0    0  502  503 -0.00000000000E+00 -0.00000000000E+00 -0.10458567987E+03  0.10458567987E+03  0.00000000000E+00 0.  1.
         -6    2    1    2    0  503 -0.22710723420E+02 -0.11652755087E+03  0.78511992479E+02  0.22177098950E+03  0.17006996134E+03 0.  0.
        -24    2    3    3    0    0 -0.72421313305E+02 -0.11876405137E+03  0.62524105807E+02  0.16929387828E+03  0.73494264387E+02 0.  0.
          6    2    1    2  501    0  0.22710723420E+02  0.11652755087E+03  0.29809224797E+03  0.36400461070E+03  0.17188927030E+03 0.  0.
         24    2    5    5    0    0 -0.70106073269E+01  0.76520212520E+02  0.71833599149E+02  0.13227414057E+03  0.80199069550E+02 0.  0.
          5    1    5    5  501    0  0.29721330747E+02  0.40007338350E+02  0.22625864882E+03  0.23173047014E+03  0.47000000000E+01 0. -1.
        -11    1    6    6    0    0 -0.12946649580E+02 -0.14729200704E+02  0.11818385769E+02  0.22896273297E+02  0.00000000000E+00 0.  1.
         12    1    6    6    0    0  0.59360422527E+01  0.91249413224E+02  0.60015213381E+02  0.10937786727E+03  0.00000000000E+00 0. -1.
         -5    1    3    3    0  503  0.49710589884E+02  0.22365005008E+01  0.15987886672E+02  0.52477111214E+02  0.47000000000E+01 0.  1.
         11    1    4    4    0    0  0.10102818225E+02 -0.11455417695E+02  0.24174371121E+02  0.28595344897E+02  0.00000000000E+00 0. -1.
        -12    1    4    4    0    0 -0.82524131530E+02 -0.10730863368E+03  0.38349734686E+02  0.14069853339E+03  0.00000000000E+00 0.  1.
</event>
<event>
12    1  0.8493057E-002  0.2740554E+03  0.7818608E-02  0.1099030E+00
         21   -1    0    0  501  502  0.00000000000E+00  0.00000000000E+00  0.48733287087E+03  0.48733287087E+03  0.00000000000E+00 0. -1.
         21   -1    0    0  502  503 -0.00000000000E+00 -0.00000000000E+00 -0.23746318254E+03  0.23746318254E+03  0.00000000000E+00 0.  1.
         -6    2    1    2    0  503 -0.19580222267E+03  0.84449729085E+02 -0.90071892173E+02  0.28814211744E+03  0.17158865620E+03 0.  0.
        -24    2    3    3    0    0 -0.19307227047E+03  0.21578813180E+02 -0.76301308243E+02  0.22355168713E+03  0.80068223271E+02 0.  0.
          6    2    1    2  501    0  0.19580222267E+03 -0.84449729085E+02  0.33994158051E+03  0.43665393597E+03  0.17215142897E+03 0.  0.
         24    2    5    5    0    0  0.48147918286E+02  0.10893727504E+02  0.15027324467E+03  0.17802614176E+03  0.81696779330E+02 0.  0.
          5    1    5    5  501    0  0.14765430438E+03 -0.95343456589E+02  0.18966833584E+03  0.25862779421E+03  0.47000000000E+01 0. -1.
        -13    1    6    6    0    0 -0.22755765134E+01 -0.12966923976E+02 -0.41760251026E+01  0.13811536900E+02  0.00000000000E+00 0.  1.
         14    1    6    6    0    0  0.50423494800E+02  0.23860651481E+02  0.15444926977E+03  0.16421460486E+03  0.00000000000E+00 0. -1.
         -5    1    3    3    0  503 -0.27299522056E+01  0.62870915905E+02 -0.13770583929E+02  0.64590430309E+02  0.47000000000E+01 0.  1.
         11    1    4    4    0    0 -0.48117487246E+01 -0.17237206637E+02 -0.58753699828E+01  0.18835981282E+02  0.00000000000E+00 0. -1.
        -12    1    4    4    0    0 -0.18826052174E+03  0.38816019817E+02 -0.70425938261E+02  0.20471570585E+03  0.00000000000E+00 0.  1.
</event>
<event>
12    1  0.8493057E-002  0.2441244E+03  0.7818608E-02  0.1117119E+00
         21   -1    0    0  503  502  0.00000000000E+00  0.00000000000E+00  0.82812110755E+03  0.82812110755E+03  0.00000000000E+00 0. -1.
         21   -1    0    0  501  503 -0.00000000000E+00 -0.00000000000E+00 -0.25059445103E+03  0.25059445103E+03  0.00000000000E+00 0. -1.
          6    2    1    2  501    0  0.57315939043E+02 -0.16245236983E+03 -0.16675295699E+03  0.29542196311E+03  0.17260271809E+03 0.  0.
         24    2    3    3    0    0  0.28234405304E+02 -0.26748545941E+02 -0.12139690848E+03  0.14933799904E+03  0.77794358503E+02 0.  0.
         -6    2    1    2    0  502 -0.57315939043E+02  0.16245236983E+03  0.74427961350E+03  0.78329359547E+03  0.17297636918E+03 0.  0.
        -24    2    5    5    0    0 -0.86461827426E+02  0.17074782912E+03  0.57545353863E+03  0.61170504395E+03  0.80036347506E+02 0.  0.
          5    1    3    3  501    0  0.29081533739E+02 -0.13570382388E+03 -0.45356048506E+02  0.14608396407E+03  0.47000000000E+01 0. -1.
        -11    1    4    4    0    0 -0.20194782644E+02  0.13185295622E+02 -0.36734882937E+02  0.43944657139E+02  0.00000000000E+00 0.  1.
         12    1    4    4    0    0  0.48429187948E+02 -0.39933841563E+02 -0.84662025545E+02  0.10539334190E+03  0.00000000000E+00 0. -1.
         -5    1    5    5    0  502  0.29145888383E+02 -0.82954592964E+01  0.16882607487E+03  0.17158855152E+03  0.47000000000E+01 0.  1.
         13    1    6    6    0    0 -0.24221137901E+02  0.11099440388E+03  0.40537153049E+03  0.42098990361E+03  0.00000000000E+00 0. -1.
        -14    1    6    6    0    0 -0.62240689525E+02  0.59753425242E+02  0.17008200814E+03  0.19071514034E+03  0.00000000000E+00 0.  1.
</event>
<event>
12    1  0.8493057E-002  0.2060037E+03  0.7818608E-02  0.1145298E+00
         21   -1    0    0  501  502  0.00000000000E+00  0.00000000000E+00  0.94104077489E+02  0.94104077489E+02  0.00000000000E+00 0.  1.
         21   -1    0    0  502  503 -0.00000000000E+00 -0.00000000000E+00 -0.48300442745E+03  0.48300442745E+03  0.00000000000E+00 0. -1.
         -6    2    1    2    0  503 -0.64799708014E+02  0.92482022636E+02 -0.27390497728E+03  0.34118165315E+03  0.16920123284E+03 0.  0.
        -24    2    3    3    0    0 -0.84558786413E+02  0.11332641168E+03 -0.26550951461E+03  0.31089166260E+03  0.78519166986E+02 0.  0.
          6    2    1    2  501    0  0.64799708014E+02 -0.92482022636E+02 -0.11499537268E+03  0.23592685179E+03  0.17229514500E+03 0.  0.
         24    2    5    5    0    0  0.53593426289E+02 -0.11775678415E+02 -0.23317283735E+01  0.96807185691E+02  0.79719961745E+02 0.  0.
          5    1    5    5  501    0  0.11206281725E+02 -0.80706344221E+02 -0.11266364431E+03  0.13911966610E+03  0.47000000000E+01 0. -1.
        -13    1    6    6    0    0 -0.12816762769E+02 -0.16040791274E+02  0.17913991492E+02  0.27248623520E+02  0.00000000000E+00 0.  1.
         14    1    6    6    0    0  0.66410189058E+02  0.42651128586E+01 -0.20245719866E+02  0.69558562171E+02  0.00000000000E+00 0. -1.
         -5    1    3    3    0  503  0.19759078399E+02 -0.20844389043E+02 -0.83954626696E+01  0.30289990544E+02  0.47000000000E+01 0.  1.
         13    1    4    4    0    0  0.86159457629E+01  0.43556688339E+02 -0.88925839546E+02  0.99394288364E+02  0.00000000000E+00 0. -1.
        -14    1    4    4    0    0 -0.93174732175E+02  0.69769723340E+02 -0.17658367506E+03  0.21149737424E+03  0.00000000000E+00 0.  1.
</event>
<event>
12    1  0.8493057E-002  0.2001712E+03  0.7818608E-02  0.1149882E+00
         21   -1    0    0  503  502  0.00000000000E+00  0.00000000000E+00  0.47885624839E+03  0.47885624839E+03  0.00000000000E+00 0.  1.
         21   -1    0    0  501  503 -0.00000000000E+00 -0.00000000000E+00 -0.85980617198E+02  0.85980617198E+02  0.00000000000E+00 0. -1.
          6    2    1    2  501    0 -0.53509705069E+02  0.87297495578E+02  0.14417619485E+03  0.24558789976E+03  0.17041860249E+03 0.  0.
         24    2    3    3    0    0 -0.17302652940E+02  0.82876367072E+02  0.16609480225E+03  0.20277420626E+03  0.79762280382E+02 0.  0.
         -6    2    1    2    0  502  0.53509705069E+02 -0.87297495578E+02  0.24869943633E+03  0.31924896583E+03  0.17200102115E+03 0.  0.
        -24    2    5    5    0    0  0.90646236873E+02 -0.25528843402E+02  0.12168767674E+03  0.17313748283E+03  0.79374020863E+02 0.  0.
          5    1    3    3  501    0 -0.36207052129E+02  0.44211285067E+01 -0.21918607392E+02  0.42813693501E+02  0.47000000000E+01 0. -1.
        -11    1    4    4    0    0 -0.40883952840E+02  0.31846124725E+02  0.42595201703E+02  0.67082221698E+02  0.00000000000E+00 0.  1.
         12    1    4    4    0    0  0.23581299900E+02  0.51030242346E+02  0.12349960054E+03  0.13569198456E+03  0.00000000000E+00 0. -1.
         -5    1    5    5    0  502 -0.37136531805E+02 -0.61768652177E+02  0.12701175960E+03  0.14611148299E+03  0.47000000000E+01 0.  1.
         13    1    6    6    0    0  0.17490067848E+02  0.19679939061E+02  0.29004437120E+01  0.26488017074E+02  0.00000000000E+00 0. -1.
        -14    1    6    6    0    0  0.73156169026E+02 -0.45208782463E+02  0.11878723302E+03  0.14664946576E+03  0.00000000000E+00 0.  1.
</event>
<event>
12    1  0.8493057E-002  0.1792020E+03  0.7818608E-02  0.1168651E+00
         21   -1    0    0  503  502  0.00000000000E+00  0.00000000000E+00  0.42104344920E+03  0.42104344920E+03  0.00000000000E+00 0. -1.
         21   -1    0    0  501  503 -0.00000000000E+00 -0.00000000000E+00 -0.18800523329E+03  0.18800523329E+03  0.00000000000E+00 0. -1.
          6    2    1    2  501    0  0.50227233332E+01 -0.47347768469E+02 -0.11833889585E+03  0.21474974654E+03  0.17276087647E+03 0.  0.
         24    2    3    3    0    0  0.44726389048E+02 -0.84025601795E+02 -0.74655836050E+02  0.14509384771E+03  0.80112290895E+02 0.  0.
         -6    2    1    2    0  502 -0.50227233332E+01  0.47347768469E+02  0.35137711175E+03  0.39429893595E+03  0.17244923109E+03 0.  0.
        -24    2    5    5    0    0  0.22048322820E+02  0.65757455600E+02  0.11926943457E+03  0.15984676188E+03  0.80719376580E+02 0.  0.
          5    1    3    3  501    0 -0.39703665715E+02  0.36677833326E+02 -0.43683059796E+02  0.69655898830E+02  0.47000000000E+01 0. -1.
        -13    1    4    4    0    0  0.23218341509E+02  0.99476890963E+01 -0.40088065740E+01  0.25575739108E+02  0.00000000000E+00 0.  1.
         14    1    4    4    0    0  0.21508047539E+02 -0.93973290891E+02 -0.70647029476E+02  0.11951810860E+03  0.00000000000E+00 0. -1.
         -5    1    5    5    0  502 -0.27071046153E+02 -0.18409687131E+02  0.23210767718E+03  0.23445217407E+03  0.47000000000E+01 0.  1.
         11    1    6    6    0    0 -0.15537753768E+02  0.63399132532E+02  0.94199356113E+02  0.11460536850E+03  0.00000000000E+00 0. -1.
        -12    1    6    6    0    0  0.37586076588E+02  0.23583230677E+01  0.25070078459E+02  0.45241393379E+02  0.00000000000E+00 0.  1.
</event>
<event>
12    1  0.8493057E-002  0.2498803E+03  0.7818608E-02  0.1113737E+00
         21   -1    0    0  503  502  0.00000000000E+00  0.00000000000E+00  0.27127608348E+03  0.27127608348E+03  0.00000000000E+00 0. -1.
         21   -1    0    0  501  503 -0.00000000000E+00 -0.00000000000E+00 -0.26075225410E+03  0.26075225410E+03  0.00000000000E+00 0.  1.
          6    2    1    2  501    0  0.20480366790E+02  0.18039225916E+03  0.99362668121E+02  0.26682556452E+03  0.16841059787E+03 0.  0.
         24    2    3    3    0    0  0.29459040872E+02  0.10845296414E+03 -0.67784974959E+01  0.13820241032E+03  0.80150344179E+02 0.  0.
         -6    2    1    2    0  502 -0.20480366790E+02 -0.18039225916E+03 -0.88838838739E+02  0.26520277307E+03  0.17169554154E+03 0.  0.
        -24    2    5    5    0    0 -0.30912317579E+02 -0.13300634338E+03 -0.12712864640E+03  0.20321527447E+03  0.80551202881E+02 0.  0.
          5    1    3    3  501    0 -0.89786740828E+01  0.71939295024E+02  0.10614116562E+03  0.12862315420E+03  0.47000000000E+01 0. -1.
        -11    1    4    4    0    0  0.45302621008E+02  0.22583049985E+02 -0.49906523677E+01  0.50864803429E+02  0.00000000000E+00 0.  1.
         12    1    4    4    0    0 -0.15843580136E+02  0.85869914151E+02 -0.17878451282E+01  0.87337606894E+02  0.00000000000E+00 0. -1.
         -5    1    5    5    0  502  0.10431950790E+02 -0.47385915781E+02  0.38289807660E+02  0.61987498597E+02  0.47000000000E+01 0.  1.
         13    1    6    6    0    0 -0.39341044574E+02 -0.33797717504E+02 -0.16607278152E+02  0.54459206607E+02  0.00000000000E+00 0. -1.
        -14    1    6    6    0    0  0.84287269952E+01 -0.99208625875E+02 -0.11052136825E+03  0.14875606786E+03  0.00000000000E+00 0.  1.
</event>
<event>
12    1  0.8493057E-002  0.2917448E+03  0.7818608E-02  0.1089528E+00
         21   -1    0    0  501  502  0.00000000000E+00  0.00000000000E+00  0.34339774733E+03  0.34339774733E+03  0.00000000000E+00 0. -1.
         21   -1    0    0  502  503 -0.00000000000E+00 -0.00000000000E+00 -0.24885203237E+03  0.24885203237E+03  0.00000000000E+00 0.  1.
         -6    2    1    2    0  503 -0.47382248989E+02 -0.23014176214E+03  0.70645494964E+02  0.29952760197E+03  0.17180131020E+03 0.  0.
        -24    2    3    3    0    0  0.24062723724E+02 -0.18930852275E+03  0.65316719129E+02  0.21693085012E+03  0.79849786961E+02 0.  0.
          6    2    1    2  501    0  0.47382248989E+02  0.23014176214E+03  0.23900219987E+02  0.29272217773E+03  0.17292988354E+03 0.  0.
         24    2    5    5    0    0  0.74035828073E+02  0.11197081086E+03 -0.31940667483E+02  0.15924902793E+03  0.79506479825E+02 0.  0.
          5    1    5    5  501    0 -0.26653579084E+02  0.11817095127E+03  0.55840887471E+02  0.13347314980E+03  0.47000000000E+01 0. -1.
        -13    1    6    6    0    0  0.43217585197E+01  0.12886320680E+01  0.18508636500E+02  0.19050138960E+02  0.00000000000E+00 0.  1.
         14    1    6    6    0    0  0.69714069553E+02  0.11068217879E+03 -0.50449303983E+02  0.14019888897E+03  0.00000000000E+00 0. -1.
         -5    1    3    3    0  503 -0.71444972713E+02 -0.40833239385E+02  0.53287758345E+01  0.82596751852E+02  0.47000000000E+01 0.  1.
         13    1    4    4    0    0  0.45281231150E+02 -0.83519101745E+02  0.51751032401E+02  0.10818502487E+03  0.00000000000E+00 0. -1.
        -14    1    4    4    0    0 -0.21218507426E+02 -0.10578942101E+03  0.13565686728E+02  0.10874582526E+03  0.00000000000E+00 0.  1.
</event>
<event>
12    1  0.8493057E-002  0.2039731E+03  0.7818608E-02  0.1146440E+00
         21   -1    0    0  503  502  0.00000000000E+00  0.00000000000E+00  0.11743261692E+03  0.11743261692E+03  0.00000000000E+00 0. -1.
         21   -1    0    0  501  503 -0.00000000000E+00 -0.00000000000E+00 -0.39839198481E+03  0.39839198481E+03  0.00000000000E+00 0.  1.
          6    2    1    2  501    0 -0.73458669827E+02  0.81022128055E+02 -0.22636019093E+03  0.30467044728E+03  0.17211735532E+03 0.  0.
         24    2    3    3    0    0 -0.54863169996E+02  0.10968101264E+03 -0.22702511934E+03  0.27017905111E+03  0.80102577312E+02 0.  0.
         -6    2    1    2    0  502  0.73458669827E+02 -0.81022128055E+02 -0.54599176960E+02  0.21115415444E+03  0.17217504293E+03 0.  0.
        -24    2    5    5    0    0  0.22678182998E+02 -0.11579126309E+03 -0.33069366298E+02  0.14578464060E+03  0.78978869670E+02 0.  0.
          5    1    3    3  501    0 -0.18595499831E+02 -0.28658884590E+02  0.66492840966E+00  0.34491396169E+02  0.47000000000E+01 0. -1.
        -11    1    4    4    0    0 -0.26581580454E+02  0.14231426782E+02 -0.12117538152E+03  0.12487028075E+03  0.00000000000E+00 0.  1.
         12    1    4    4    0    0 -0.28281589542E+02  0.95449585863E+02 -0.10584973783E+03  0.14530877037E+03  0.00000000000E+00 0. -1.
         -5    1    5    5    0  502  0.50780486828E+02  0.34769135035E+02 -0.21529810662E+02  0.65369513848E+02  0.47000000000E+01 0.  1.
         13    1    6    6    0    0  0.48032836708E+02 -0.56568896836E+02 -0.19391620560E+01  0.74235798918E+02  0.00000000000E+00 0. -1.
        -14    1    6    6    0    0 -0.25354653709E+02 -0.59222366253E+02 -0.31130204242E+02  0.71548841678E+02  0.00000000000E+00 0.  1.
</event>
<event>
12    1  0.8493057E-002  0.1757543E+03  0.7818608E-02  0.1172265E+00
         21   -1    0    0  503  502  0.00000000000E+00  0.00000000000E+00  0.14516302299E+04  0.14516302299E+04  0.00000000000E+00 0. -1.
         21   -1    0    0  501  503 -0.00000000000E+00 -0.00000000000E+00 -0.30379327734E+02  0.30379327734E+02  0.00000000000E+00 0. -1.
          6    2    1    2  501    0  0.34933982863E+02  0.24294109423E+01  0.30034402680E+03  0.34740751812E+03  0.17105310292E+03 0.  0.
         24    2    3    3    0    0  0.22256602543E+02 -0.40935470946E+02  0.28473938901E+03  0.29937811387E+03  0.79872813071E+02 0.  0.
         -6    2    1    2    0  502 -0.34933982863E+02 -0.24294109423E+01  0.11209068754E+04  0.11346020395E+04  0.17223030980E+03 0.  0.
        -24    2    5    5    0    0 -0.32913139707E+02 -0.61516068296E+02  0.89456820504E+03  0.90062212462E+03  0.77462484261E+02 0.  0.
          5    1    3    3  501    0  0.12677380320E+02  0.43364881888E+02  0.15604637783E+02  0.48029404257E+02  0.47000000000E+01 0. -1.
        -11    1    4    4    0    0 -0.19641545495E+02 -0.18027731491E+02  0.29716719629E+02  0.39923337005E+02  0.00000000000E+00 0.  1.
         12    1    4    4    0    0  0.41898148037E+02 -0.22907739455E+02  0.25502266938E+03  0.25945477686E+03  0.00000000000E+00 0. -1.
         -5    1    5    5    0  502 -0.20208431558E+01  0.59086657354E+02  0.22633867033E+03  0.23397991488E+03  0.47000000000E+01 0.  1.
         13    1    6    6    0    0 -0.43375808086E+02 -0.53744781902E+01  0.27801123939E+03  0.28142600266E+03  0.00000000000E+00 0. -1.
        -14    1    6    6    0    0  0.10462668379E+02 -0.56141590106E+02  0.61655696564E+03  0.61919612196E+03  0.00000000000E+00 0.  1.
</event>
<event>
12    1  0.8493057E-002  0.1842678E+03  0.7818608E-02  0.1163984E+00
         21   -1    0    0  501  502  0.00000000000E+00  0.00000000000E+00  0.35630308168E+03  0.35630308168E+03  0.00000000000E+00 0.  1.
         21   -1    0    0  502  503 -0.00000000000E+00 -0.00000000000E+00 -0.10303339802E+03  0.10303339802E+03  0.00000000000E+00 0.  1.
         -6    2    1    2    0  503  0.43703935829E+02  0.48383726590E+02  0.61184017801E+02  0.19315699224E+03  0.17121658976E+03 0.  0.
        -24    2    3    3    0    0 -0.37168450016E+02  0.46783832057E+02  0.53490545713E+02  0.11176791454E+03  0.77849904447E+02 0.  0.
          6    2    1    2  501    0 -0.43703935829E+02 -0.48383726590E+02  0.19208566587E+03  0.26617948746E+03  0.17234731651E+03 0.  0.
         24    2    5    5    0    0 -0.27419292529E+02 -0.41607485703E+02  0.21625313509E+03  0.23589312723E+03  0.79982176572E+02 0.  0.
          5    1    5    5  501    0 -0.16284643300E+02 -0.67762408864E+01 -0.24167469219E+02  0.30286360237E+02  0.47000000000E+01 0. -1.
        -11    1    6    6    0    0 -0.13242774773E+02 -0.58393065262E+02  0.92383953083E+02  0.11009048979E+03  0.00000000000E+00 0.  1.
         12    1    6    6    0    0 -0.14176517756E+02  0.16785579558E+02  0.12386918200E+03  0.12580263744E+03  0.00000000000E+00 0. -1.
         -5    1    3    3    0  503  0.80872385845E+02  0.15998945332E+01  0.76934720880E+01  0.81389077692E+02  0.47000000000E+01 0.  1.
         13    1    4    4    0    0 -0.32533298001E-01  0.56392682145E+02  0.45793910931E+02  0.72644462530E+02  0.00000000000E+00 0. -1.
        -14    1    4    4    0    0 -0.37135916718E+02 -0.96088500890E+01  0.76966347816E+01  0.39123452014E+02  0.00000000000E+00 0.  1.
</event>
<event>
12    1  0.8493057E-002  0.2178477E+03  0.7818608E-02  0.1135527E+00
         21   -1    0    0  501  502  0.00000000000E+00  0.00000000000E+00  0.38198931890E+03  0.38198931890E+03  0.00000000000E+00 0.  1.
         21   -1    0    0  502  503 -0.00000000000E+00 -0.00000000000E+00 -0.15580469165E+03  0.15580469165E+03  0.00000000000E+00 0. -1.
         -6    2    1    2    0  503  0.87528632464E+02  0.10006191148E+03 -0.81440991499E+01  0.21784467064E+03  0.17238424100E+03 0.  0.
        -24    2    3    3    0    0  0.87427258713E+02  0.22460974103E+01  0.10846184825E+02  0.11809165242E+03  0.78609338669E+02 0.  0.
          6    2    1    2  501    0 -0.87528632464E+02 -0.10006191148E+03  0.23432872640E+03  0.31994933991E+03  0.17258035944E+03 0.  0.
         24    2    5    5    0    0 -0.58311823868E+02 -0.45678002483E+02  0.23405810826E+03  0.25803492562E+03  0.79448575093E+02 0.  0.
          5    1    5    5  501    0 -0.29216808595E+02 -0.54383909000E+02  0.27061813430E+00  0.61914414289E+02  0.47000000000E+01 0. -1.
        -11    1    6    6    0    0 -0.58489201622E+02  0.42895158598E+01  0.12796615233E+03  0.14076477824E+03  0.00000000000E+00 0.  1.
         12    1    6    6    0    0  0.17737775328E+00 -0.49967518343E+02  0.10609195594E+03  0.11727014738E+03  0.00000000000E+00 0. -1.
         -5    1    3    3    0  503  0.10137375035E+00  0.97815814073E+02 -0.18990283975E+02  0.99753018224E+02  0.47000000000E+01 0.  1.
         11    1    4    4    0    0  0.26556806960E+01  0.12210616568E+02 -0.23076407239E+02  0.26242567862E+02  0.00000000000E+00 0. -1.
        -12    1    4    4    0    0  0.84771578017E+02 -0.99645191575E+01  0.33922592064E+02  0.91849084557E+02  0.00000000000E+00 0.  1.
</event>
<event>
12    1  0.8493057E-002  0.2648726E+03  0.7818608E-02  0.1104561E+00
         21   -1    0    0  501  502  0.00000000000E+00  0.00000000000E+00  0.38096121456E+03  0.38096121456E+03  0.00000000000E+00 0. -1.
         21   -1    0    0  502  503 -0.00000000000E+00 -0.00000000000E+00 -0.28217074930E+03  0.28217074930E+03  0.00000000000E+00 0. -1.
         -6    2    1    2    0  503  0.10225930146E+03 -0.17333313088E+03 -0.14759767879E+03  0.30137978705E+03  0.16894780927E+03 0.  0.
        -24    2    3    3    0    0  0.35116862920E+02 -0.12876180291E+02 -0.70550821178E+02  0.11108304952E+03  0.77220693087E+02 0.  0.
          6    2    1    2  501    0 -0.10225930146E+03  0.17333313088E+03  0.24638814406E+03  0.36175217682E+03  0.17220970038E+03 0.  0.
         24    2    5    5    0    0 -0.52998151134E+02  0.15157151700E+03  0.99037607180E+02  0.20479836359E+03  0.79694374343E+02 0.  0.
          5    1    5    5  501    0 -0.49261150326E+02  0.21761613882E+02  0.14735053688E+03  0.15695381323E+03  0.47000000000E+01 0. -1.
        -11    1    6    6    0    0  0.12193597903E+02 -0.99235272789E+00  0.14562930940E+01  0.12320283411E+02  0.00000000000E+00 0.  1.
         12    1    6    6    0    0 -0.65191749036E+02  0.15256386973E+03  0.97581314086E+02  0.19247808017E+03  0.00000000000E+00 0. -1.
         -5    1    3    3    0  503  0.67142438540E+02 -0.16045695059E+03 -0.77046857614E+02  0.19029673753E+03  0.47000000000E+01 0.  1.
         11    1    4    4    0    0  0.22278922618E+02 -0.33196737663E+02 -0.76504066780E+02  0.86320600197E+02  0.00000000000E+00 0. -1.
        -12    1    4    4    0    0  0.12837940302E+02  0.20320557372E+02  0.59532456020E+01  0.24762449320E+02  0.00000000000E+00 0.  1.
</event>
<event>
12    1  0.8493057E-002  0.1908531E+03  0.7818608E-02  0.1157795E+00
         21   -1    0    0  501  502  0.00000000000E+00  0.00000000000E+00  0.22270040179E+03  0.22270040179E+03  0.00000000000E+00 0.  1.
         21   -1    0    0  502  503 -0.00000000000E+00 -0.00000000000E+00 -0.20844467722E+03  0.20844467722E+03  0.00000000000E+00 0.  1.
         -6    2    1    2    0  503 -0.13778112635E+02 -0.80763759965E+02 -0.93342036055E+02  0.21205107965E+03  0.17187292798E+03 0.  0.
        -24    2    3    3    0    0  0.15635419763E+02  0.44385269984E+00 -0.76827001982E+00  0.85355284922E+02  0.83906323176E+02 0.  0.
          6    2    1    2  501    0  0.13778112635E+02  0.80763759965E+02  0.10759776063E+03  0.21909399936E+03  0.17237250695E+03 0.  0.
         24    2    5    5    0    0 -0.56049334974E+02  0.66434514416E+02  0.56006853845E+02  0.13097526480E+03  0.80390793349E+02 0.  0.
          5    1    5    5  501    0  0.69827447610E+02  0.14329245549E+02  0.51590906784E+02  0.88118734560E+02  0.47000000000E+01 0. -1.
        -13    1    6    6    0    0 -0.60450835750E+02  0.67858137298E+02  0.17945818420E+02  0.92634133769E+02  0.00000000000E+00 0.  1.
         14    1    6    6    0    0  0.44015007757E+01 -0.14236228818E+01  0.38061035424E+02  0.38341131031E+02  0.00000000000E+00 0. -1.
         -5    1    3    3    0  503 -0.29413532398E+02 -0.81207612665E+02 -0.92573766035E+02  0.12669579472E+03  0.47000000000E+01 0.  1.
         11    1    4    4    0    0  0.74189042057E+01  0.39900982094E+02 -0.14005689033E+02  0.42933528121E+02  0.00000000000E+00 0. -1.
        -12    1    4    4    0    0  0.82165155577E+01 -0.39457129394E+02  0.13237419013E+02  0.42421756800E+02  0.00000000000E+00 0.  1.
</event>
<event>
12    1  0.8493057E-002  0.1933675E+03  0.7818608E-02  0.1155627E+00
         21   -1    0    0  503  502  0.00000000000E+00  0.00000000000E+00  0.68524815123E+03  0.68524815123E+03  0.00000000000E+00 0. -1.
         21   -1    0    0  501  503 -0.00000000000E+00 -0.00000000000E+00 -0.72259563063E+02  0.72259563063E+02  0.00000000000E+00 0. -1.
          6    2    1    2  501    0  0.36559347750E+02  0.81418341420E+02  0.11748230584E+03  0.22560785925E+03  0.17067888487E+03 0.  0.
         24    2    3    3    0    0  0.74348884142E+02  0.63034157151E+02  0.35668133668E+02  0.13351184381E+03  0.83976991711E+02 0.  0.
         -6    2    1    2    0  502 -0.36559347750E+02 -0.81418341420E+02  0.49550628233E+03  0.53189985505E+03  0.17153847306E+03 0.  0.
        -24    2    5    5    0    0  0.22367262092E+02 -0.93410723676E+02  0.38282729955E+03  0.40409216459E+03  0.86648014918E+02 0.  0.
          5    1    3    3  501    0 -0.37789536392E+02  0.18384184269E+02  0.81814172167E+02  0.92096015437E+02  0.47000000000E+01 0. -1.
        -13    1    4    4    0    0  0.48863414462E+02  0.61703491318E+02  0.59443282559E+02  0.98632945587E+02  0.00000000000E+00 0.  1.
         14    1    4    4    0    0  0.25485469681E+02  0.13306658327E+01 -0.23775148891E+02  0.34878898222E+02  0.00000000000E+00 0. -1.
         -5    1    5    5    0  502 -0.58926609842E+02  0.11992382256E+02  0.11267898278E+03  0.12780769046E+03  0.47000000000E+01 0.  1.
         13    1    6    6    0    0 -0.26577333244E+02 -0.38635240867E+02  0.22734427792E+03  0.23213025908E+03  0.00000000000E+00 0. -1.
        -14    1    6    6    0    0  0.48944595337E+02 -0.54775482809E+02  0.15548302164E+03  0.17196190551E+03  0.00000000000E+00 0.  1.
</event>
<event>
12    1  0.8493057E-002  0.2197181E+03  0.7818608E-02  0.1134177E+00
         21   -1    0    0  503  502  0.00000000000E+00  0.00000000000E+00  0.17459407680E+04  0.17459407680E+04  0.00000000000E+00 0. -1.
         21   -1    0    0  501  503 -0.00000000000E+00 -0.00000000000E+00 -0.27599931706E+02  0.27599931706E+02  0.00000000000E+00 0. -1.
          6    2    1    2  501    0  0.37399600754E+02 -0.13095435912E+03  0.84528143866E+03  0.87325810513E+03  0.17184654007E+03 0.  0.
         24    2    3    3    0    0  0.28483745290E+02  0.31244740012E+01  0.30072147877E+03  0.31234432755E+03  0.79400787629E+02 0.  0.
         -6    2    1    2    0  502 -0.37399600754E+02  0.13095435912E+03  0.87305939766E+03  0.90028259459E+03  0.17241886202E+03 0.  0.
        -24    2    5    5    0    0 -0.57934493926E+02  0.10644218188E+03  0.84431280468E+03  0.85702770726E+03  0.83342877236E+02 0.  0.
          5    1    3    3  501    0  0.89158554641E+01 -0.13407883312E+03  0.54455995989E+03  0.56091377759E+03  0.47000000000E+01 0. -1.
        -13    1    4    4    0    0  0.52132073529E+02 -0.85260872156E+01  0.24594803164E+03  0.25155691508E+03  0.00000000000E+00 0.  1.
         14    1    4    4    0    0 -0.23648328239E+02  0.11650561217E+02  0.54773447124E+02  0.60787412472E+02  0.00000000000E+00 0. -1.
         -5    1    5    5    0  502  0.20534893173E+02  0.24512177243E+02  0.28746592974E+02  0.43254887335E+02  0.47000000000E+01 0.  1.
         13    1    6    6    0    0 -0.21946806067E+02  0.10858934385E+03  0.65750653826E+03  0.66677444143E+03  0.00000000000E+00 0. -1.
        -14    1    6    6    0    0 -0.35987687859E+02 -0.21471619700E+01  0.18680626642E+03  0.19025326582E+03  0.00000000000E+00 0.  1.
</event>
<event>
12    1  0.8493057E-002  0.2164259E+03  0.7818608E-02  0.1136578E+00
         21   -1    0    0  503  502  0.00000000000E+00  0.00000000000E+00  0.12186376831E+04  0.12186376831E+04  0.00000000000E+00 0.  1.
         21   -1    0    0  501  503 -0.00000000000E+00 -0.00000000000E+00 -0.42070711891E+02  0.42070711891E+02  0.00000000000E+00 0. -1.
          6    2    1    2  501    0  0.25293173101E+02 -0.12880772508E+03  0.40296765333E+03  0.45740516071E+03  0.17206213057E+03 0.  0.
         24    2    3    3    0    0  0.67222653079E+02 -0.12864951061E+03  0.36197886166E+03  0.39858103841E+03  0.82271296467E+02 0.  0.
         -6    2    1    2    0  502 -0.25293173101E+02  0.12880772508E+03  0.77359931791E+03  0.80330323430E+03  0.17207267920E+03 0.  0.
        -24    2    5    5    0    0 -0.69179635786E+02  0.37829228100E+02  0.32010639638E+03  0.33867324345E+03  0.77553776966E+02 0.  0.
          5    1    3    3  501    0 -0.41929479978E+02 -0.15821446969E+00  0.40988791666E+02  0.58824122308E+02  0.47000000000E+01 0. -1.
        -13    1    4    4    0    0  0.38554947907E+01 -0.10143327147E+02  0.13028134309E+03  0.13073247601E+03  0.00000000000E+00 0.  1.
         14    1    4    4    0    0  0.63367158288E+02 -0.11850618346E+03  0.23169751857E+03  0.26784856240E+03  0.00000000000E+00 0. -1.
         -5    1    5    5    0  502  0.43886462686E+02  0.90978496976E+02  0.45349292153E+03  0.46462999085E+03  0.47000000000E+01 0.  1.
         11    1    6    6    0    0 -0.65987865415E+01 -0.22429379760E+02  0.79305860034E+02  0.82680351329E+02  0.00000000000E+00 0. -1.
        -12    1    6    6    0    0 -0.62580849245E+02  0.60258607860E+02  0.24080053634E+03  0.25599289212E+03  0.00000000000E+00 0.  1.
</event>
<event>
12    1  0.8493057E-002  0.1910421E+03  0.7818608E-02  0.1157572E+00
         21   -1    0    0  501  502  0.00000000000E+00  0.00000000000E+00  0.39234526899E+03  0.39234526899E+03  0.00000000000E+00 0.  1.
         21   -1    0    0  502  503 -0.00000000000E+00 -0.00000000000E+00 -0.13870586073E+03  0.13870586073E+03  0.00000000000E+00 0.  1.
         -6    2    1    2    0  503  0.11982776774E+02  0.82519950149E+02 -0.25686678409E+02  0.19276125162E+03  0.17188358143E+03 0.  0.
        -24    2    3    3    0    0 -0.21806468682E+02  0.94950446125E+02  0.25871251622E+02  0.12970143487E+03  0.81621267154E+02 0.  0.
          6    2    1    2  501    0 -0.11982776774E+02 -0.82519950149E+02  0.27932608667E+03  0.33828987811E+03  0.17165037089E+03 0.  0.
         24    2    5    5    0    0  0.14499194686E+02 -0.97062098740E+02  0.28075763165E+03  0.30768092159E+03  0.78812588606E+02 0.  0.
          5    1    5    5  501    0 -0.26481971460E+02  0.14542148591E+02 -0.14315449817E+01  0.30608956517E+02  0.47000000000E+01 0. -1.
        -11    1    6    6    0    0  0.28979246752E+02 -0.13537439902E+01  0.60830328231E+02  0.67394051650E+02  0.00000000000E+00 0.  1.
         12    1    6    6    0    0 -0.14480052066E+02 -0.95708354750E+02  0.21992730342E+03  0.24028686994E+03  0.00000000000E+00 0. -1.
         -5    1    3    3    0  503  0.33789245456E+02 -0.12430495976E+02 -0.51557930032E+02  0.63059816744E+02  0.47000000000E+01 0.  1.
         11    1    4    4    0    0  0.62427866797E+01  0.11949558187E+02  0.38859382560E+02  0.41131690207E+02  0.00000000000E+00 0. -1.
        -12    1    4    4    0    0 -0.28049255362E+02  0.83000887938E+02 -0.12988130937E+02  0.88569744665E+02  0.00000000000E+00 0.  1.
</event>
<event>
12    1  0.8493057E-002  0.2076051E+03  0.7818608E-02  0.1145756E+00
         21   -1    0    0  501  502  0.00000000000E+00  0.00000000000E+00  0.87807717626E+03  0.87807717626E+03  0.00000000000E+00 0.  1.
         21   -1    0    0  502  503 -0.00000000000E+00 -0.00000000000E+00 -0.11201845740E+03  0.11201845740E+03  0.00000000000E+00 0.  1.
         -6    2    1    2    0  503 -0.54298127068E+02  0.75965195332E+02  0.88602574273E+01  0.20779406119E+03  0.18542079225E+03 0.  0.
        -24    2    3    3    0    0 -0.89041705164E+02  0.31151436374E+02 -0.42633116204E+02  0.13105393649E+03  0.80366127355E+02 0.  0.
          6    2    1    2  501    0  0.54298127068E+02 -0.75965195332E+02  0.75719846143E+03  0.78230157247E+03  0.17299492125E+03 0.  0.
         24    2    5    5    0    0  0.43906160336E+02 -0.68084289735E+02  0.75973656691E+03  0.76820782829E+03  0.79877374257E+02 0.  0.
          5    1    5    5  501    0  0.10391966732E+02 -0.78809055969E+01 -0.25381054746E+01  0.14093744179E+02  0.47000000000E+01 0. -1.
        -13    1    6    6    0    0 -0.39259349036E+00 -0.16090794095E+02  0.47938214334E+03  0.47965227732E+03  0.00000000000E+00 0.  1.
         14    1    6    6    0    0  0.44298753826E+02 -0.51993495640E+02  0.28035442357E+03  0.28855555097E+03  0.00000000000E+00 0. -1.
         -5    1    3    3    0  503  0.34743578096E+02  0.44813758959E+02  0.51493373631E+02  0.76740124699E+02  0.47000000000E+01 0.  1.
         13    1    4    4    0    0  0.55065262064E+01  0.22370796240E+02  0.67744092752E+01  0.24013891320E+02  0.00000000000E+00 0. -1.
        -14    1    4    4    0    0 -0.94548231370E+02  0.87806401331E+01 -0.49407525479E+02  0.10704004517E+03  0.00000000000E+00 0.  1.
</event>
<event>
12    1  0.8493057E-002  0.1878266E+03  0.7818608E-02  0.1160521E+00
         21   -1    0    0  503  502  0.00000000000E+00  0.00000000000E+00  0.11608462001E+04  0.11608462001E+04  0.00000000000E+00 0.  1.
         21   -1    0    0  501  503 -0.00000000000E+00 -0.00000000000E+00 -0.39761150496E+02  0.39761150496E+02  0.00000000000E+00 0.  1.
          6    2    1    2  501    0 -0.34345907665E+02 -0.67658167266E+02  0.26776951686E+03  0.32686470075E+03  0.17141397104E+03 0.  0.
         24    2    3    3    0    0 -0.18801079299E+02 -0.10040228729E+03  0.25819682455E+03  0.28908182734E+03  0.80427624705E+02 0.  0.
         -6    2    1    2    0  502  0.34345907665E+02  0.67658167266E+02  0.85331553272E+03  0.87374264982E+03  0.17181836561E+03 0.  0.
        -24    2    5    5    0    0 -0.28038372128E+02 -0.74256010212E+01  0.32717094627E+03  0.33859819598E+03  0.82259469823E+02 0.  0.
          5    1    3    3  501    0 -0.15544828366E+02  0.32744120021E+02  0.95726923058E+01  0.37782873406E+02  0.47000000000E+01 0. -1.
        -13    1    4    4    0    0 -0.22985365946E+02 -0.29913200889E+02  0.24577954852E+02  0.45024465569E+02  0.00000000000E+00 0.  1.
         14    1    4    4    0    0  0.41842866467E+01 -0.70489086398E+02  0.23361886970E+03  0.24405736177E+03  0.00000000000E+00 0. -1.
         -5    1    5    5    0  502  0.62384279793E+02  0.75083768288E+02  0.52614458645E+03  0.53514445384E+03  0.47000000000E+01 0.  1.
         13    1    6    6    0    0 -0.54616777465E+02  0.23562806846E+01  0.26027382926E+03  0.26595302337E+03  0.00000000000E+00 0. -1.
        -14    1    6    6    0    0  0.26578405337E+02 -0.97818817058E+01  0.66897117005E+02  0.72645172610E+02  0.00000000000E+00 0.  1.
</event>
<event>
12    1  0.8493057E-002  0.1942012E+03  0.7818608E-02  0.1155345E+00
         21   -1    0    0  501  502  0.00000000000E+00  0.00000000000E+00  0.36156007197E+03  0.36156007197E+03  0.00000000000E+00 0. -1.
         21   -1    0    0  502  503 -0.00000000000E+00 -0.00000000000E+00 -0.12957137144E+03  0.12957137144E+03  0.00000000000E+00 0. -1.
         -6    2    1    2    0  503  0.34123905442E+01  0.87094479178E+02  0.50626445476E+01  0.19426718734E+03  0.17354255096E+03 0.  0.
        -24    2    3    3    0    0  0.32081030986E+02  0.10135850619E+03  0.46069202785E+02  0.14202753544E+03  0.82138359202E+02 0.  0.
          6    2    1    2  501    0 -0.34123905442E+01 -0.87094479178E+02  0.22692605599E+03  0.29686425607E+03  0.17039911659E+03 0.  0.
         24    2    5    5    0    0 -0.52625794063E+02 -0.10085205145E+02  0.15087355877E+03  0.17787493006E+03  0.77494996244E+02 0.  0.
          5    1    5    5  501    0  0.49213403519E+02 -0.77009274033E+02  0.76052497217E+02  0.11898932602E+03  0.47000000000E+01 0. -1.
        -13    1    6    6    0    0 -0.24201360670E+02  0.71473604490E+01  0.14094134571E+03  0.14318258815E+03  0.00000000000E+00 0.  1.
         14    1    6    6    0    0 -0.28424433393E+02 -0.17232565594E+02  0.99322130653E+01  0.34692341908E+02  0.00000000000E+00 0. -1.
         -5    1    3    3    0  503 -0.28668640442E+02 -0.14264027013E+02 -0.41006558237E+02  0.52239651893E+02  0.47000000000E+01 0.  1.
         13    1    4    4    0    0  0.42737693680E+02  0.37342258816E+02 -0.83106286830E+01  0.57358707305E+02  0.00000000000E+00 0. -1.
        -14    1    4    4    0    0 -0.10656662695E+02  0.64016247374E+02  0.54379831468E+02  0.84668828137E+02  0.00000000000E+00 0.  1.
</event>
<event>
12    1  0.8493057E-002  0.1779758E+03  0.7818608E-02  0.1169825E+00
         21   -1    0    0  503  502  0.00000000000E+00  0.00000000000E+00  0.11656158194E+04  0.11656158194E+04  0.00000000000E+00 0. -1.
         21   -1    0    0  501  503 -0.00000000000E+00 -0.00000000000E+00 -0.27177904135E+02  0.27177904135E+02  0.00000000000E+00 0. -1.
          6    2    1    2  501    0 -0.68962882097E+01  0.42279796658E+02  0.59043733392E+03  0.61667790147E+03  0.17274330343E+03 0.  0.
         24    2    3    3    0    0  0.53449919780E+02  0.80850239921E+01  0.22698157812E+03  0.24663314239E+03  0.79906248719E+02 0.  0.
         -6    2    1    2    0  502  0.68962882097E+01 -0.42279796658E+02  0.54800058132E+03  0.57611582203E+03  0.17253887469E+03 0.  0.
        -24    2    5    5    0    0 -0.27001939982E+01  0.45998945046E+01  0.10956417859E+03  0.13505078471E+03  0.78777884865E+02 0.  0.
          5    1    3    3  501    0 -0.60346207990E+02  0.34194772666E+02  0.36345575580E+03  0.37004475908E+03  0.47000000000E+01 0. -1.
        -11    1    4    4    0    0 -0.71300400246E+01 -0.12107239055E+02  0.38853684876E+01  0.14578024440E+02  0.00000000000E+00 0.  1.
         12    1    4    4    0    0  0.60579959805E+02  0.20192263047E+02  0.22309620963E+03  0.23205511795E+03  0.00000000000E+00 0. -1.
         -5    1    5    5    0  502  0.95964822079E+01 -0.46879691163E+02  0.43843640272E+03  0.44106503732E+03  0.47000000000E+01 0.  1.
         13    1    6    6    0    0 -0.26605384613E+02 -0.19024966783E+02  0.17610374341E+02  0.37147289752E+02  0.00000000000E+00 0. -1.
        -14    1    6    6    0    0  0.23905190614E+02  0.23624861288E+02  0.91953804252E+02  0.97903494961E+02  0.00000000000E+00 0.  1.
</event>
<event>
12    1  0.8493057E-002  0.2596202E+03  0.7818608E-02  0.1107521E+00
         21   -1    0    0  503  502  0.00000000000E+00  0.00000000000E+00  0.46322620216E+03  0.46322620216E+03  0.00000000000E+00 0.  1.
         21   -1    0    0  501  503 -0.00000000000E+00 -0.00000000000E+00 -0.16628094476E+03  0.16628094476E+03  0.00000000000E+00 0.  1.
          6    2    1    2  501    0  0.16413915749E+03 -0.10325039373E+03  0.35500912538E+02  0.26105660610E+03  0.17113716712E+03 0.  0.
         24    2    3    3    0    0  0.99807730791E+02  0.18873967487E+02 -0.52504800374E+01  0.11705779339E+03  0.57940915412E+02 0.  0.
         -6    2    1    2    0  502 -0.16413915749E+03  0.10325039373E+03  0.26144434486E+03  0.36845054082E+03  0.17262777513E+03 0.  0.
        -24    2    5    5    0    0 -0.89199540961E+02  0.42089770600E+02  0.52316036826E+02  0.13798729610E+03  0.81088959048E+02 0.  0.
          5    1    3    3  501    0  0.64331426698E+02 -0.12212436122E+03  0.40751392575E+02  0.14399881271E+03  0.47000000000E+01 0. -1.
        -13    1    4    4    0    0  0.61611961324E+02  0.75931095791E+01  0.25124616430E+02  0.66969660609E+02  0.00000000000E+00 0.  1.
         14    1    4    4    0    0  0.38195769467E+02  0.11280857907E+02 -0.30375096467E+02  0.50088132783E+02  0.00000000000E+00 0. -1.
         -5    1    5    5    0  502 -0.74939616527E+02  0.61160623135E+02  0.20912830803E+03  0.23046324472E+03  0.47000000000E+01 0.  1.
         11    1    6    6    0    0 -0.99113658084E+02  0.16893827557E+02  0.43013070402E+02  0.10935740877E+03  0.00000000000E+00 0. -1.
        -12    1    6    6    0    0  0.99141171225E+01  0.25195943043E+02  0.93029664242E+01  0.28629887329E+02  0.00000000000E+00 0.  1.
</event>
<event>
12    1  0.8493057E-002  0.2276920E+03  0.7818608E-02  0.1128541E+00
         21   -1    0    0  501  502  0.00000000000E+00  0.00000000000E+00  0.10346484819E+03  0.10346484819E+03  0.00000000000E+00 0. -1.
         21   -1    0    0  502  503 -0.00000000000E+00 -0.00000000000E+00 -0.10978542165E+04  0.10978542165E+04  0.00000000000E+00 0.  1.
         -6    2    1    2    0  503 -0.13671526901E+03  0.58177430795E+02 -0.94199948815E+03  0.96912675963E+03  0.17253394545E+03 0.  0.
        -24    2    3    3    0    0 -0.19057477211E+01  0.13895549113E+02 -0.27001455013E+03  0.28230775946E+03  0.81197879345E+02 0.  0.
          6    2    1    2  501    0  0.13671526901E+03 -0.58177430795E+02 -0.52389880170E+02  0.23219230507E+03  0.17056637639E+03 0.  0.
         24    2    5    5    0    0  0.87800794810E+02  0.29513482395E+02 -0.55722971239E+02  0.13161635597E+03  0.75085221060E+02 0.  0.
          5    1    5    5  501    0  0.48914474198E+02 -0.87690913190E+02  0.33330910691E+01  0.10057594910E+03  0.47000000000E+01 0. -1.
        -11    1    6    6    0    0  0.90029197539E+02  0.16432078425E+02 -0.67624849114E+02  0.11379099186E+03  0.00000000000E+00 0.  1.
         12    1    6    6    0    0 -0.22284027283E+01  0.13081403970E+02  0.11901877875E+02  0.17825364106E+02  0.00000000000E+00 0. -1.
         -5    1    3    3    0  503 -0.13480952129E+03  0.44281881683E+02 -0.67198493801E+03  0.68681900017E+03  0.47000000000E+01 0.  1.
         11    1    4    4    0    0 -0.15587539078E+02 -0.21360094005E+02 -0.20798472900E+03  0.20965894325E+03  0.00000000000E+00 0. -1.
        -12    1    4    4    0    0  0.13681791357E+02  0.35255643118E+02 -0.62029821134E+02  0.72648816207E+02  0.00000000000E+00 0.  1.
</event>
<event>
12    1  0.8493057E-002  0.1833532E+03  0.7818608E-02  0.1164677E+00
         21   -1    0    0  501  502  0.00000000000E+00  0.00000000000E+00  0.21881270406E+04  0.21881270406E+04  0.00000000000E+00 0. -1.
         21   -1    0    0  502  503 -0.00000000000E+00 -0.00000000000E+00 -0.36535658490E+02  0.36535658490E+02  0.00000000000E+00 0. -1.
         -6    2    1    2    0  503 -0.51031469978E+02 -0.40149565864E+02  0.22890028863E+03  0.29328100890E+03  0.17147072485E+03 0.  0.
        -24    2    3    3    0    0 -0.37444968140E+02 -0.18439920307E+01  0.23739430469E+02  0.84080201681E+02  0.71417041455E+02 0.  0.
          6    2    1    2  501    0  0.51031469978E+02  0.40149565864E+02  0.19226910935E+04  0.19313816902E+04  0.17110813450E+03 0.  0.
         24    2    5    5    0    0 -0.74190967826E+01 -0.27596386192E+02  0.65470979003E+03  0.66023863818E+03  0.80333969515E+02 0.  0.
          5    1    5    5  501    0  0.58450566760E+02  0.67745952056E+02  0.12679813035E+04  0.12711430520E+04  0.47000000000E+01 0. -1.
        -11    1    6    6    0    0  0.13784761587E+02 -0.14383678081E+02  0.36990838032E+02  0.42014663457E+02  0.00000000000E+00 0.  1.
         12    1    6    6    0    0 -0.21203858369E+02 -0.13212708111E+02  0.61771895200E+03  0.61822397472E+03  0.00000000000E+00 0. -1.
         -5    1    3    3    0  503 -0.13586501837E+02 -0.38305573834E+02  0.20516085817E+03  0.20920080722E+03  0.47000000000E+01 0.  1.
         13    1    4    4    0    0 -0.15758252179E+02 -0.33078139254E+02  0.27582722319E+02  0.45861665678E+02  0.00000000000E+00 0. -1.
        -14    1    4    4    0    0 -0.21686715961E+02  0.31234147224E+02 -0.38432918499E+01  0.38218536003E+02  0.00000000000E+00 0.  1.
</event>
<event>
12    1  0.8493057E-002  0.1760308E+03  0.7818608E-02  0.1172033E+00
         21   -1    0    0  503  502  0.00000000000E+00  0.00000000000E+00  0.63994048334E+02  0.63994048334E+02  0.00000000000E+00 0.  1.
         21   -1    0    0  501  503 -0.00000000000E+00 -0.00000000000E+00 -0.11572874785E+04  0.11572874785E+04  0.00000000000E+00 0. -1.
          6    2    1    2  501    0 -0.20276888884E+00 -0.35490201156E+02 -0.10144544655E+04  0.10296138570E+04  0.17241588214E+03 0.  0.
         24    2    3    3    0    0  0.37054113540E+02  0.18556945390E+02 -0.32328032103E+03  0.33531352043E+03  0.78788472948E+02 0.  0.
         -6    2    1    2    0  502  0.20276888884E+00  0.35490201156E+02 -0.78838964636E+02  0.19166766983E+03  0.17105939851E+03 0.  0.
        -24    2    5    5    0    0 -0.12862495587E+02 -0.33752872855E+02 -0.82595587517E+02  0.12094633889E+03  0.80630550006E+02 0.  0.
          5    1    3    3  501    0 -0.37256882429E+02 -0.54047146546E+02 -0.69117414446E+03  0.69430033653E+03  0.47000000000E+01 0. -1.
        -13    1    4    4    0    0  0.49615058180E+02  0.79319749257E+01 -0.31034299995E+03  0.31438407696E+03  0.00000000000E+00 0.  1.
         14    1    4    4    0    0 -0.12560944640E+02  0.10624970464E+02 -0.12937321072E+02  0.20929443474E+02  0.00000000000E+00 0. -1.
         -5    1    5    5    0  502  0.13065264476E+02  0.69243074011E+02  0.37566228805E+01  0.70721330939E+02  0.47000000000E+01 0.  1.
         13    1    6    6    0    0  0.18678644933E+02 -0.38437694086E+02 -0.13449960989E+02  0.44802338709E+02  0.00000000000E+00 0. -1.
        -14    1    6    6    0    0 -0.31541140520E+02  0.46848212311E+01 -0.69145626528E+02  0.76144000179E+02  0.00000000000E+00 0.  1.
</event>
<event>
12    1  0.8493057E-002  0.2460630E+03  0.7818608E-02  0.1115853E+00
         21   -1    0    0  501  502  0.00000000000E+00  0.00000000000E+00  0.33242255728E+03  0.33242255728E+03  0.00000000000E+00 0.  1.
         21   -1    0    0  502  503 -0.00000000000E+00 -0.00000000000E+00 -0.27222229745E+03  0.27222229745E+03  0.00000000000E+00 0. -1.
         -6    2    1    2    0  503 -0.74728998971E+02  0.15969156012E+03 -0.14397423241E+03  0.28490395514E+03  0.17133553746E+03 0.  0.
        -24    2    3    3    0    0 -0.56506141012E+02  0.18953844963E+03 -0.13532954577E+03  0.24857586721E+03  0.66015967293E+02 0.  0.
          6    2    1    2  501    0  0.74728998971E+02 -0.15969156012E+03  0.20417449224E+03  0.31974089958E+03  0.17164265765E+03 0.  0.
         24    2    5    5    0    0  0.14596012328E+02 -0.82269079789E+02  0.18625728830E+03  0.21997450875E+03  0.81949752839E+02 0.  0.
          5    1    5    5  501    0  0.60132986644E+02 -0.77422480328E+02  0.17917203937E+02  0.99766390833E+02  0.47000000000E+01 0. -1.
        -13    1    6    6    0    0  0.31307948516E+02 -0.34140695819E+02  0.15118486351E+03  0.15812222395E+03  0.00000000000E+00 0.  1.
         14    1    6    6    0    0 -0.16711936188E+02 -0.48128383970E+02  0.35072424786E+02  0.61852284801E+02  0.00000000000E+00 0. -1.
         -5    1    3    3    0  503 -0.18222857959E+02 -0.29846889517E+02 -0.86446866424E+01  0.36328087937E+02  0.47000000000E+01 0.  1.
         13    1    4    4    0    0 -0.29676531694E+02  0.17223728680E+03 -0.12552103562E+03  0.21517878585E+03  0.00000000000E+00 0. -1.
        -14    1    4    4    0    0 -0.26829609319E+02  0.17301162831E+02 -0.98085101497E+01  0.33397081352E+02  0.00000000000E+00 0.  1.
</event>
<event>
12    1  0.8493057E-002  0.2794387E+03  0.7818608E-02  0.1096053E+00
         21   -1    0    0  503  502  0.00000000000E+00  0.00000000000E+00  0.71923645361E+02  0.71923645361E+02  0.00000000000E+00 0.  1.
         21   -1    0    0  501  503 -0.00000000000E+00 -0.00000000000E+00 -0.10857568572E+04  0.10857568572E+04  0.00000000000E+00 0. -1.
          6    2    1    2  501    0 -0.88197233056E+02 -0.20172081682E+03 -0.48438955151E+03  0.55921303015E+03  0.17209281109E+03 0.  0.
         24    2    3    3    0    0 -0.23641804153E+02 -0.62476832589E+02 -0.91666463745E+02  0.13753803184E+03  0.77792545348E+02 0.  0.
         -6    2    1    2    0  502  0.88197233056E+02  0.20172081682E+03 -0.52944366035E+03  0.59846747242E+03  0.17141378653E+03 0.  0.
        -24    2    5    5    0    0  0.64729633983E+02  0.75115838875E+02 -0.37737572722E+03  0.39915290966E+03  0.84132580055E+02 0.  0.
          5    1    3    3  501    0 -0.64555428903E+02 -0.13924398423E+03 -0.39272308776E+03  0.42167499832E+03  0.47000000000E+01 0. -1.
        -13    1    4    4    0    0 -0.50745040469E+02 -0.37596418180E+02 -0.72165149413E+02  0.95897646383E+02  0.00000000000E+00 0.  1.
         14    1    4    4    0    0  0.27103236315E+02 -0.24880414409E+02 -0.19501314332E+02  0.41640385452E+02  0.00000000000E+00 0. -1.
         -5    1    5    5    0  502  0.23467599074E+02  0.12660497794E+03 -0.15206793313E+03  0.19931456277E+03  0.47000000000E+01 0.  1.
         13    1    6    6    0    0  0.25269917045E+02 -0.15623646674E+02 -0.64719723949E+02  0.71213128781E+02  0.00000000000E+00 0. -1.
        -14    1    6    6    0    0  0.39459716938E+02  0.90739485549E+02 -0.31265600327E+03  0.32793978087E+03  0.00000000000E+00 0.  1.
</event>
<event>
12    1  0.8493057E-002  0.2079052E+03  0.7818608E-02  0.1143254E+00
         21   -1    0    0  503  502  0.00000000000E+00  0.00000000000E+00  0.98571685635E+03  0.98571685635E+03  0.00000000000E+00 0.  1.
         21   -1    0    0  501  503 -0.00000000000E+00 -0.00000000000E+00 -0.93610484715E+02  0.93610484715E+02  0.00000000000E+00 0. -1.
          6    2    1    2  501    0 -0.11581211734E+03 -0.12644846058E+02  0.52564846709E+02  0.21444730805E+03  0.17219827574E+03 0.  0.
         24    2    3    3    0    0 -0.40646752409E+02  0.23552105941E+02 -0.29390243955E+02  0.97405527888E+02  0.80107367000E+02 0.  0.
         -6    2    1    2    0  502  0.11581211734E+03  0.12644846058E+02  0.83954152493E+03  0.86488003301E+03  0.17209055980E+03 0.  0.
        -24    2    5    5    0    0  0.52477187698E+02 -0.34276928313E+02  0.67188490775E+03  0.67955923681E+03  0.80266207249E+02 0.  0.
          5    1    3    3  501    0 -0.75165364927E+02 -0.36196951999E+02  0.81955090664E+02  0.11704178017E+03  0.47000000000E+01 0. -1.
        -11    1    4    4    0    0 -0.19811265429E+02  0.46478254753E+02  0.54107684990E+01  0.50813293719E+02  0.00000000000E+00 0.  1.
         12    1    4    4    0    0 -0.20835486980E+02 -0.22926148812E+02 -0.34801012454E+02  0.46592234169E+02  0.00000000000E+00 0. -1.
         -5    1    5    5    0  502  0.63334929638E+02  0.46921774371E+02  0.16765661717E+03  0.18532079620E+03  0.47000000000E+01 0.  1.
         13    1    6    6    0    0 -0.57762619874E+01  0.42829876915E+01  0.44036618607E+01  0.84321660264E+01  0.00000000000E+00 0. -1.
        -14    1    6    6    0    0  0.58253449686E+02 -0.38559916005E+02  0.66748124589E+03  0.67112707079E+03  0.00000000000E+00 0.  1.
</event>
<event>
12    1  0.8493057E-002  0.1831319E+03  0.7818608E-02  0.1165024E+00
         21   -1    0    0  501  502  0.00000000000E+00  0.00000000000E+00  0.37413851483E+03  0.37413851483E+03  0.00000000000E+00 0.  1.
         21   -1    0    0  502  503 -0.00000000000E+00 -0.00000000000E+00 -0.79075626152E+03  0.79075626152E+03  0.00000000000E+00 0.  1.
         -6    2    1    2    0  503 -0.55550090319E+02  0.21520339235E+02 -0.75686736299E+03  0.77849202287E+03  0.17219955567E+03 0.  0.
        -24    2    3    3    0    0  0.26713146368E+02 -0.16444053993E+02 -0.47488318001E+03  0.48227300809E+03  0.78033458057E+02 0.  0.
          6    2    1    2  501    0  0.55550090319E+02 -0.21520339235E+02  0.34024961630E+03  0.38640275348E+03  0.17317144387E+03 0.  0.
         24    2    5    5    0    0  0.10227449371E+02 -0.33408536597E+02  0.62410936674E+02  0.10460159502E+03  0.76325864718E+02 0.  0.
          5    1    5    5  501    0  0.45322640947E+02  0.11888197362E+02  0.27783867962E+03  0.28180115847E+03  0.47000000000E+01 0. -1.
        -13    1    6    6    0    0 -0.13335944158E+02 -0.19300425607E+02  0.71832657371E+02  0.75566424424E+02  0.00000000000E+00 0.  1.
         14    1    6    6    0    0  0.23563393529E+02 -0.14108110991E+02 -0.94217206977E+01  0.29035170591E+02  0.00000000000E+00 0. -1.
         -5    1    3    3    0  503 -0.82263236687E+02  0.37964393229E+02 -0.28198418298E+03  0.29621901478E+03  0.47000000000E+01 0.  1.
         13    1    4    4    0    0  0.42087178762E+02  0.63425652068E+01 -0.14160639950E+03  0.14786457023E+03  0.00000000000E+00 0. -1.
        -14    1    4    4    0    0 -0.15374032393E+02 -0.22786619200E+02 -0.33327678051E+03  0.33440843786E+03  0.00000000000E+00 0.  1.
</event>
<event>
12    1  0.8493057E-002  0.2117780E+03  0.7818608E-02  0.1140305E+00
         21   -1    0    0  503  502  0.00000000000E+00  0.00000000000E+00  0.47389334607E+03  0.47389334607E+03  0.00000000000E+00 0. -1.
         21   -1    0    0  501  503 -0.00000000000E+00 -0.00000000000E+00 -0.11823483931E+03  0.11823483931E+03  0.00000000000E+00 0. -1.
          6    2    1    2  501    0  0.99548589509E+02 -0.73439424071E+02  0.44447772216E+02  0.21569484027E+03  0.17101283280E+03 0.  0.
         24    2    3    3    0    0  0.47610156853E+02 -0.78139749683E+02  0.86678880821E+02  0.14842485899E+03  0.78384710690E+02 0.  0.
         -6    2    1    2    0  502 -0.99548589509E+02  0.73439424071E+02  0.31121073454E+03  0.37643334510E+03  0.17189145216E+03 0.  0.
        -24    2    5    5    0    0 -0.10935957926E+03  0.62347948110E+02  0.32383212802E+03  0.35641670372E+03  0.79491102329E+02 0.  0.
          5    1    3    3  501    0  0.51938432656E+02  0.47003256120E+01 -0.42231108605E+02  0.67269981281E+02  0.47000000000E+01 0. -1.
        -11    1    4    4    0    0  0.48312904049E+02 -0.73395059675E+01  0.43971947928E+02  0.65738400118E+02  0.00000000000E+00 0.  1.
         12    1    4    4    0    0 -0.70274719579E+00 -0.70800243716E+02  0.42706932892E+02  0.82686458873E+02  0.00000000000E+00 0. -1.
         -5    1    5    5    0  502  0.98109897489E+01  0.11091475961E+02 -0.12621393471E+02  0.20016641377E+02  0.47000000000E+01 0.  1.
         11    1    6    6    0    0  0.40730074892E+01  0.25809594647E+02  0.32834589507E+02  0.41962302534E+02  0.00000000000E+00 0. -1.
        -12    1    6    6    0    0 -0.11343258675E+03  0.36538353463E+02  0.29099753851E+03  0.31445440119E+03  0.00000000000E+00 0.  1.
</event>
<event>
12    1  0.8493057E-002  0.2217573E+03  0.7818608E-02  0.1132810E+00
         21   -1    0    0  503  502  0.00000000000E+00  0.00000000000E+00  0.20248531223E+03  0.20248531223E+03  0.00000000000E+00 0.  1.
         21   -1    0    0  501  503 -0.00000000000E+00 -0.00000000000E+00 -0.26294381898E+03  0.26294381898E+03  0.00000000000E+00 0.  1.
          6    2    1    2  501    0 -0.75307819982E+01  0.13822542859E+03 -0.96605447049E+02  0.24074516170E+03  0.17164684294E+03 0.  0.
         24    2    3    3    0    0 -0.24814258336E+02  0.13393777978E+03 -0.16575015867E+02  0.15862292109E+03  0.79570243655E+02 0.  0.
         -6    2    1    2    0  502  0.75307819982E+01 -0.13822542859E+03  0.36146940301E+02  0.22468396951E+03  0.17324347917E+03 0.  0.
        -24    2    5    5    0    0 -0.14592187158E+01 -0.11396465620E+03 -0.39193218287E+02  0.14488650912E+03  0.80410944413E+02 0.  0.
          5    1    3    3  501    0  0.17283476337E+02  0.42876488139E+01 -0.80030431182E+02  0.82122240604E+02  0.47000000000E+01 0. -1.
        -13    1    4    4    0    0  0.23244480536E+02  0.81170529987E+02  0.34205336768E+01  0.84502431115E+02  0.00000000000E+00 0.  1.
         14    1    4    4    0    0 -0.48058738872E+02  0.52767249793E+02 -0.19995549544E+02  0.74120489976E+02  0.00000000000E+00 0. -1.
         -5    1    5    5    0  502  0.89900007140E+01 -0.24260772392E+02  0.75340158589E+02  0.79797460398E+02  0.47000000000E+01 0.  1.
         11    1    6    6    0    0  0.34187024692E+02 -0.82887608834E+02 -0.38534154314E+02  0.97590928904E+02  0.00000000000E+00 0. -1.
        -12    1    6    6    0    0 -0.35646243408E+02 -0.31077047368E+02 -0.65906397320E+00  0.47295580212E+02  0.00000000000E+00 0.  1.
</event>
<event>
12    1  0.8493057E-002  0.3501102E+03  0.7818608E-02  0.1062754E+00
         21   -1    0    0  503  502  0.00000000000E+00  0.00000000000E+00  0.16912259038E+04  0.16912259038E+04  0.00000000000E+00 0. -1.
         21   -1    0    0  501  503 -0.00000000000E+00 -0.00000000000E+00 -0.80689646267E+02  0.80689646267E+02  0.00000000000E+00 0.  1.
          6    2    1    2  501    0  0.30179152980E+03 -0.40303406326E+02  0.51819316349E+03  0.62538095320E+03  0.17284296317E+03 0.  0.
         24    2    3    3    0    0  0.19977096206E+03  0.32873955541E+02  0.38185256168E+03  0.43997876272E+03  0.82345604313E+02 0.  0.
         -6    2    1    2    0  502 -0.30179152980E+03  0.40303406326E+02  0.10923430940E+04  0.11465345968E+04  0.16919117793E+03 0.  0.
        -24    2    5    5    0    0 -0.16025771901E+03 -0.18976928988E+02  0.41549204218E+03  0.45249179260E+03  0.77926407053E+02 0.  0.
          5    1    3    3  501    0  0.10202056774E+03 -0.73177361867E+02  0.13634060181E+03  0.18540219048E+03  0.47000000000E+01 0. -1.
        -13    1    4    4    0    0  0.46603839654E+02  0.28050031424E+02  0.47633995614E+02  0.72302971388E+02  0.00000000000E+00 0.  1.
         14    1    4    4    0    0  0.15316712240E+03  0.48239241175E+01  0.33421856607E+03  0.36767579134E+03  0.00000000000E+00 0. -1.
         -5    1    5    5    0  502 -0.14153381079E+03  0.59280335313E+02  0.67685105184E+03  0.69404280425E+03  0.47000000000E+01 0.  1.
         11    1    6    6    0    0 -0.79622240220E+02 -0.13969820951E+02  0.30551538317E+03  0.31602928090E+03  0.00000000000E+00 0. -1.
        -12    1    6    6    0    0 -0.80635478790E+02 -0.50071080367E+01  0.10997665901E+03  0.13646251169E+03  0.00000000000E+00 0.  1.
</event>
<event>
12    1  0.8493057E-002  0.3547001E+03  0.7818608E-02  0.1061654E+00
         21   -1    0    0  501  502  0.00000000000E+00  0.00000000000E+00  0.36134106968E+03  0.36134106968E+03  0.00000000000E+00 0. -1.
         21   -1    0    0  502  503 -0.00000000000E+00 -0.00000000000E+00 -0.86860151274E+03  0.86860151274E+03  0.00000000000E+00 0.  1.
         -6    2    1    2    0  503  0.17789808507E+03  0.25360884430E+03  0.22518284573E+03  0.42014219683E+03  0.17276277657E+03 0.  0.
        -24    2    3    3    0    0  0.27957525976E+02  0.13860851478E+03  0.13472994136E+03  0.21059252501E+03  0.78759830261E+02 0.  0.
          6    2    1    2  501    0 -0.17789808507E+03 -0.25360884430E+03 -0.73244328878E+03  0.80980038559E+03  0.15276884054E+03 0.  0.
         24    2    5    5    0    0 -0.15860165427E+03 -0.17952642016E+03 -0.64885292861E+03  0.69635438028E+03  0.80716043577E+02 0.  0.
          5    1    5    5  501    0 -0.19296430805E+02 -0.74082424139E+02 -0.83590360169E+02  0.11344600531E+03  0.47000000000E+01 0. -1.
        -11    1    6    6    0    0 -0.19933591485E+02 -0.37331248844E+02 -0.50441821987E+02  0.65843356652E+02  0.00000000000E+00 0.  1.
         12    1    6    6    0    0 -0.13866806278E+03 -0.14219517132E+03 -0.59841110663E+03  0.63051102363E+03  0.00000000000E+00 0. -1.
         -5    1    3    3    0  503  0.14994055910E+03  0.11500032953E+03  0.90452904366E+02  0.20954967182E+03  0.47000000000E+01 0.  1.
         13    1    4    4    0    0  0.50419482459E+02  0.11894873973E+03  0.92567565452E+02  0.15893294520E+03  0.00000000000E+00 0. -1.
        -14    1    4    4    0    0 -0.22461956483E+02  0.19659775043E+02  0.42162375910E+02  0.51659579810E+02  0.00000000000E+00 0.  1.
</event>
<event>
12    1  0.8493057E-002  0.1877281E+03  0.7818608E-02  0.1160843E+00
         21   -1    0    0  503  502  0.00000000000E+00  0.00000000000E+00  0.63688524544E+02  0.63688524544E+02  0.00000000000E+00 0.  1.
         21   -1    0    0  501  503 -0.00000000000E+00 -0.00000000000E+00 -0.10092228073E+04  0.10092228073E+04  0.00000000000E+00 0.  1.
          6    2    1    2  501    0 -0.54947921814E+02  0.43602091914E+02 -0.83396540350E+03  0.85453219378E+03  0.17264576286E+03 0.  0.
         24    2    3    3    0    0  0.30139587766E+02  0.46486058515E+02 -0.39204298306E+03  0.40445918054E+03  0.82584379725E+02 0.  0.
         -6    2    1    2    0  502  0.54947921814E+02 -0.43602091914E+02 -0.11156887927E+03  0.21837913809E+03  0.17413045856E+03 0.  0.
        -24    2    5    5    0    0  0.80666597091E+02 -0.40581824239E+02 -0.13521271834E+03  0.18299985883E+03  0.83979073508E+02 0.  0.
          5    1    3    3  501    0 -0.85087509580E+02 -0.28839666012E+01 -0.44192242045E+03  0.45007301324E+03  0.47000000000E+01 0. -1.
        -11    1    4    4    0    0  0.20653639954E+02  0.32148211627E+01 -0.31419645497E+03  0.31489096563E+03  0.00000000000E+00 0.  1.
         12    1    4    4    0    0  0.94859478124E+01  0.43271237352E+02 -0.77846528086E+02  0.89568214914E+02  0.00000000000E+00 0. -1.
         -5    1    5    5    0  502 -0.25718675276E+02 -0.30202676744E+01  0.23643839065E+02  0.35379279254E+02  0.47000000000E+01 0.  1.
         13    1    6    6    0    0  0.61813024005E+02  0.10961903051E+02 -0.99066737110E+02  0.11728269973E+03  0.00000000000E+00 0. -1.
        -14    1    6    6    0    0  0.18853573086E+02 -0.51543727290E+02 -0.36145981230E+02  0.65717159100E+02  0.00000000000E+00 0.  1.
</event>
<event>
12    1  0.8493057E-002  0.2129434E+03  0.7818608E-02  0.1139514E+00
         21   -1    0    0  501  502  0.00000000000E+00  0.00000000000E+00  0.40540903570E+02  0.40540903570E+02  0.00000000000E+00 0.  1.
         21   -1    0    0  502  503 -0.00000000000E+00 -0.00000000000E+00 -0.11119513945E+04  0.11119513945E+04  0.00000000000E+00 0.  1.
         -6    2    1    2    0  503  0.17028877362E+02 -0.12179394305E+03 -0.54473326642E+03  0.58439566135E+03  0.17222139886E+03 0.  0.
        -24    2    3    3    0    0 -0.45809186638E+02 -0.34009111147E+02 -0.31447095705E+03  0.33003839269E+03  0.82330168233E+02 0.  0.
          6    2    1    2  501    0 -0.17028877362E+02  0.12179394305E+03 -0.52667722451E+03  0.56809663673E+03  0.17384229236E+03 0.  0.
         24    2    5    5    0    0  0.51558367099E+02  0.10771584822E+03 -0.35541284081E+03  0.38301292058E+03  0.78228132707E+02 0.  0.
          5    1    5    5  501    0 -0.68587244461E+02  0.14078094833E+02 -0.17126438370E+03  0.18508371614E+03  0.47000000000E+01 0. -1.
        -11    1    6    6    0    0  0.20685112936E+02 -0.55808519458E+00 -0.12341995604E+03  0.12514260228E+03  0.00000000000E+00 0.  1.
         12    1    6    6    0    0  0.30873254163E+02  0.10827393341E+03 -0.23199288477E+03  0.25787031831E+03  0.00000000000E+00 0. -1.
         -5    1    3    3    0  503  0.62838064001E+02 -0.87784831903E+02 -0.23026230937E+03  0.25435726865E+03  0.47000000000E+01 0.  1.
         11    1    4    4    0    0 -0.61432639376E+01  0.20844575396E+02 -0.15888605940E+03  0.16036525773E+03  0.00000000000E+00 0. -1.
        -12    1    4    4    0    0 -0.39665922701E+02 -0.54853686543E+02 -0.15558489765E+03  0.16967313497E+03  0.00000000000E+00 0.  1.
</event>
<event>
12    1  0.8493057E-002  0.2356091E+03  0.7818608E-02  0.1122824E+00
         21   -1    0    0  501  502  0.00000000000E+00  0.00000000000E+00  0.85617607810E+03  0.85617607810E+03  0.00000000000E+00 0.  1.
         21   -1    0    0  502  503 -0.00000000000E+00 -0.00000000000E+00 -0.81239840407E+02  0.81239840407E+02  0.00000000000E+00 0.  1.
         -6    2    1    2    0  503 -0.96462543757E+02  0.12869414706E+03  0.17639866952E+03  0.29432657909E+03  0.17217560430E+03 0.  0.
        -24    2    3    3    0    0 -0.43105064339E+02  0.91102395167E+01  0.12191086182E+03  0.15241695031E+03  0.80172473318E+02 0.  0.
          6    2    1    2  501    0  0.96462543757E+02 -0.12869414706E+03  0.59853756818E+03  0.64308933942E+03  0.17160848498E+03 0.  0.
         24    2    5    5    0    0  0.24888350356E+02 -0.12898674666E+03  0.31581094237E+03  0.35140563106E+03  0.80575153911E+02 0.  0.
          5    1    5    5  501    0  0.71574193401E+02  0.29259960812E+00  0.28272662581E+03  0.29168370835E+03  0.47000000000E+01 0. -1.
        -13    1    6    6    0    0  0.70812710523E+01 -0.81037209000E+01  0.12079223176E+03  0.12127068049E+03  0.00000000000E+00 0.  1.
         14    1    6    6    0    0  0.17807079303E+02 -0.12088302576E+03  0.19501871060E+03  0.23013495058E+03  0.00000000000E+00 0. -1.
         -5    1    3    3    0  503 -0.53357479417E+02  0.11958390754E+03  0.54487807700E+02  0.14190962878E+03  0.47000000000E+01 0.  1.
         13    1    4    4    0    0  0.23768058258E+02 -0.58611760312E+00  0.28212172047E+02  0.36894319059E+02  0.00000000000E+00 0. -1.
        -14    1    4    4    0    0 -0.66873122597E+02  0.96963571198E+01  0.93698689771E+02  0.11552263125E+03  0.00000000000E+00 0.  1.
</event>
<event>
12    1  0.8493057E-002  0.1897020E+03  0.7818608E-02  0.1160506E+00
         21   -1    0    0  501  502  0.00000000000E+00  0.00000000000E+00  0.17604779534E+03  0.17604779534E+03  0.00000000000E+00 0. -1.
         21   -1    0    0  502  503 -0.00000000000E+00 -0.00000000000E+00 -0.47016347403E+03  0.47016347403E+03  0.00000000000E+00 0. -1.
         -6    2    1    2    0  503 -0.40872286612E+02  0.44561647223E+02 -0.39240153891E+03  0.43255976675E+03  0.17167614818E+03 0.  0.
        -24    2    3    3    0    0 -0.66127412732E+02 -0.19711889491E+02 -0.30366297549E+03  0.32001852295E+03  0.73751332505E+02 0.  0.
          6    2    1    2  501    0  0.40872286612E+02 -0.44561647223E+02  0.98285860218E+02  0.21365150262E+03  0.17980703556E+03 0.  0.
         24    2    5    5    0    0 -0.11964908661E+01 -0.71872180201E+02  0.12420566292E+03  0.15699840542E+03  0.63674254823E+02 0.  0.
          5    1    5    5  501    0  0.42068777478E+02  0.27310532978E+02 -0.25919802699E+02  0.56653097197E+02  0.47000000000E+01 0. -1.
        -13    1    6    6    0    0  0.16358348625E+02 -0.37134171393E+02  0.18964535244E+02  0.44790577713E+02  0.00000000000E+00 0.  1.
         14    1    6    6    0    0 -0.17554839491E+02 -0.34738008808E+02  0.10524112767E+03  0.11220782771E+03  0.00000000000E+00 0. -1.
         -5    1    3    3    0  503  0.25255126120E+02  0.64273536714E+02 -0.88738563421E+02  0.11254124380E+03  0.47000000000E+01 0.  1.
         11    1    4    4    0    0 -0.35676829830E+02  0.24251365759E+02 -0.18332827508E+03  0.18833539596E+03  0.00000000000E+00 0. -1.
        -12    1    4    4    0    0 -0.30450582902E+02 -0.43963255250E+02 -0.12033470042E+03  0.13168312700E+03  0.00000000000E+00 0.  1.
</event>
<event>
12    1  0.8493057E-002  0.1825839E+03  0.7818608E-02  0.1165514E+00
         21   -1    0    0  501  502  0.00000000000E+00  0.00000000000E+00  0.98847947804E+02  0.98847947804E+02  0.00000000000E+00 0. -1.
         21   -1    0    0  502  503 -0.00000000000E+00 -0.00000000000E+00 -0.45251815716E+03  0.45251815716E+03  0.00000000000E+00 0. -1.
         -6    2    1    2    0  503  0.54834972142E+02 -0.24260061232E+02 -0.31656405787E+03  0.36504986457E+03  0.17161927672E+03 0.  0.
        -24    2    3    3    0    0  0.88946286246E+02  0.22795043972E+02 -0.25011109593E+03  0.27664256381E+03  0.74461345268E+02 0.  0.
          6    2    1    2  501    0 -0.54834972142E+02  0.24260061232E+02 -0.37106151486E+02  0.18631624040E+03  0.17245709675E+03 0.  0.
         24    2    5    5    0    0  0.17934091882E+02 -0.18571441672E+02  0.17374416853E+02  0.85717549322E+02  0.79869254431E+02 0.  0.
          5    1    5    5  501    0 -0.72769064024E+02  0.42831502904E+02 -0.54480568339E+02  0.10059869108E+03  0.47000000000E+01 0. -1.
        -11    1    6    6    0    0  0.81061049258E+01  0.42105904088E+01 -0.30476807578E+02  0.31816250703E+02  0.00000000000E+00 0.  1.
         12    1    6    6    0    0  0.98279869564E+01 -0.22782032081E+02  0.47851224430E+02  0.53901298619E+02  0.00000000000E+00 0. -1.
         -5    1    3    3    0  503 -0.34111314104E+02 -0.47055105204E+02 -0.66452961939E+02  0.88407300751E+02  0.47000000000E+01 0.  1.
         11    1    4    4    0    0  0.84705856854E+02  0.42689598250E+02 -0.17773995041E+03  0.20146705427E+03  0.00000000000E+00 0. -1.
        -12    1    4    4    0    0  0.42404293913E+01 -0.19894554277E+02 -0.72371145518E+02  0.75175509542E+02  0.00000000000E+00 0.  1.
</event>
<event>
12    1  0.8493057E-002  0.2348177E+03  0.7818608E-02  0.1123333E+00
         21   -1    0    0  503  502  0.00000000000E+00  0.00000000000E+00  0.70788076491E+03  0.70788076491E+03  0.00000000000E+00 0.  1.
         21   -1    0    0  501  503 -0.00000000000E+00 -0.00000000000E+00 -0.10498113749E+03  0.10498113749E+03  0.00000000000E+00 0. -1.
          6    2    1    2  501    0  0.14156465346E+03 -0.73897807050E+02  0.50808130182E+03  0.55962313498E+03  0.17184297178E+03 0.  0.
         24    2    3    3    0    0  0.13240131627E+03 -0.29319858172E+02  0.48169694300E+03  0.50680850949E+03  0.80206968337E+02 0.  0.
         -6    2    1    2    0  502 -0.14156465346E+03  0.73897807050E+02  0.94818325597E+02  0.25323876742E+03  0.17215667707E+03 0.  0.
        -24    2    5    5    0    0 -0.11063720221E+03 -0.17547591090E+02  0.51569530177E+02  0.14735526357E+03  0.80657602208E+02 0.  0.
          5    1    3    3  501    0  0.91633371931E+01 -0.44577948878E+02  0.26384358818E+02  0.52814625484E+02  0.47000000000E+01 0. -1.
        -11    1    4    4    0    0  0.47656287398E+02  0.27954481589E+02  0.17266691416E+03  0.18129103126E+03  0.00000000000E+00 0.  1.
         12    1    4    4    0    0  0.84745028869E+02 -0.57274339761E+02  0.30903002884E+03  0.32551747824E+03  0.00000000000E+00 0. -1.
         -5    1    5    5    0  502 -0.30927451249E+02  0.91445398141E+02  0.43248795420E+02  0.10588350385E+03  0.47000000000E+01 0.  1.
         11    1    6    6    0    0 -0.24858192478E+02  0.26036068850E+01 -0.21435423427E+02  0.32926977991E+02  0.00000000000E+00 0. -1.
        -12    1    6    6    0    0 -0.85779009734E+02 -0.20151197975E+02  0.73004953605E+02  0.11442828558E+03  0.00000000000E+00 0.  1.
</event>
<event>
12    1  0.8493057E-002  0.1912642E+03  0.7818608E-02  0.1161239E+00
         21   -1    0    0  501  502  0.00000000000E+00  0.00000000000E+00  0.92034024008E+02  0.92034024008E+02  0.00000000000E+00 0.  1.
         21   -1    0    0  502  503 -0.00000000000E+00 -0.00000000000E+00 -0.37725303292E+03  0.37725303292E+03  0.00000000000E+00 0.  1.
         -6    2    1    2    0  503  0.40652266646E+02 -0.19233240672E+02 -0.19348733515E+03  0.27206495158E+03  0.18590176084E+03 0.  0.
        -24    2    3    3    0    0 -0.24919180514E+02  0.48775687316E+02 -0.10051570462E+03  0.13943522997E+03  0.79616224803E+02 0.  0.
          6    2    1    2  501    0 -0.40652266646E+02  0.19233240672E+02 -0.91731673766E+02  0.19722210536E+03  0.16869894647E+03 0.  0.
         24    2    5    5    0    0  0.12533667664E+02 -0.50508983974E+01  0.84561683250E+01  0.81126641527E+02  0.79545086480E+02 0.  0.
          5    1    5    5  501    0 -0.53185934310E+02  0.24284139070E+02 -0.10018784209E+03  0.11609546383E+03  0.47000000000E+01 0. -1.
        -13    1    6    6    0    0  0.32723925462E+02  0.21797108737E+02  0.21826874256E+02  0.44970898220E+02  0.00000000000E+00 0.  1.
         14    1    6    6    0    0 -0.20190257798E+02 -0.26848007135E+02 -0.13370705931E+02  0.36155743308E+02  0.00000000000E+00 0. -1.
         -5    1    3    3    0  503  0.65571447161E+02 -0.68008927988E+02 -0.92971630533E+02  0.13262972160E+03  0.47000000000E+01 0.  1.
         11    1    4    4    0    0 -0.20072981739E+01  0.51603954864E+02 -0.10397287848E+03  0.11609201895E+03  0.00000000000E+00 0. -1.
        -12    1    4    4    0    0 -0.22911882340E+02 -0.28282675484E+01  0.34571738655E+01  0.23343211023E+02  0.00000000000E+00 0.  1.
</event>
<event>
12    1  0.8493057E-002  0.2839590E+03  0.7818608E-02  0.1093952E+00
         21   -1    0    0  501  502  0.00000000000E+00  0.00000000000E+00  0.10881155585E+03  0.10881155585E+03  0.00000000000E+00 0.  1.
         21   -1    0    0  502  503 -0.00000000000E+00 -0.00000000000E+00 -0.77731618866E+03  0.77731618866E+03  0.00000000000E+00 0. -1.
         -6    2    1    2    0  503 -0.98274450004E+02 -0.20315766168E+03 -0.43812382772E+03  0.52046665257E+03  0.16733841458E+03 0.  0.
        -24    2    3    3    0    0 -0.42126456980E+01 -0.11713084564E+03 -0.15233181556E+03  0.20750115875E+03  0.78194420928E+02 0.  0.
          6    2    1    2  501    0  0.98274450004E+02  0.20315766168E+03 -0.23038080509E+03  0.36566109195E+03  0.17234214746E+03 0.  0.
         24    2    5    5    0    0  0.38609773576E+02  0.78738452649E+02 -0.29910591374E+02  0.12224702133E+03  0.79744794228E+02 0.  0.
          5    1    5    5  501    0  0.59664676428E+02  0.12441920903E+03 -0.20047021371E+03  0.24341407062E+03  0.47000000000E+01 0. -1.
        -13    1    6    6    0    0  0.32670894986E+02  0.95129127317E+02 -0.29456981551E+02  0.10480769058E+03  0.00000000000E+00 0.  1.
         14    1    6    6    0    0  0.59388785900E+01 -0.16390674669E+02 -0.45360982290E+00  0.17439330746E+02  0.00000000000E+00 0. -1.
         -5    1    3    3    0  503 -0.94061804306E+02 -0.86026816034E+02 -0.28579201216E+03  0.31296549382E+03  0.47000000000E+01 0.  1.
         11    1    4    4    0    0 -0.26974019573E+02 -0.81563584190E+01 -0.43397775965E+02  0.51744476742E+02  0.00000000000E+00 0. -1.
        -12    1    4    4    0    0  0.22761373875E+02 -0.10897448722E+03 -0.10893403960E+03  0.15575668200E+03  0.00000000000E+00 0.  1.
</event>
<event>
12    1  0.8493057E-002  0.2467336E+03  0.7818608E-02  0.1115680E+00
         21   -1    0    0  503  502  0.00000000000E+00  0.00000000000E+00  0.27225806151E+03  0.27225806151E+03  0.00000000000E+00 0.  1.
         21   -1    0    0  501  503 -0.00000000000E+00 -0.00000000000E+00 -0.23627046949E+03  0.23627046949E+03  0.00000000000E+00 0.  1.
          6    2    1    2  501    0  0.17272898668E+03  0.30712435547E+02 -0.44650976498E+02  0.24895187277E+03  0.17089402774E+03 0.  0.
         24    2    3    3    0    0  0.13117219624E+03 -0.41218196581E+02 -0.83426174405E+01  0.15816988332E+03  0.77736914843E+02 0.  0.
         -6    2    1    2    0  502 -0.17272898668E+03 -0.30712435547E+02  0.80638568517E+02  0.25957665824E+03  0.17349036352E+03 0.  0.
        -24    2    5    5    0    0 -0.15366487336E+03  0.36219841988E+02  0.53521930332E+02  0.18473835081E+03  0.79617152525E+02 0.  0.
          5    1    3    3  501    0  0.41556790438E+02  0.71930632128E+02 -0.36308359057E+02  0.90781989443E+02  0.47000000000E+01 0. -1.
        -11    1    4    4    0    0  0.90234344487E+02  0.10705199531E+02 -0.13427803994E+02  0.91853928289E+02  0.00000000000E+00 0.  1.
         12    1    4    4    0    0  0.40937851752E+02 -0.51923396112E+02  0.50851865530E+01  0.66315955035E+02  0.00000000000E+00 0. -1.
         -5    1    5    5    0  502 -0.19064113320E+02 -0.66932277535E+02  0.27116638185E+02  0.74838307431E+02  0.47000000000E+01 0.  1.
         13    1    6    6    0    0 -0.96786617702E+02  0.51539268676E+01 -0.55017894372E+01  0.97079771401E+02  0.00000000000E+00 0. -1.
        -14    1    6    6    0    0 -0.56878255655E+02  0.31065915120E+02  0.59023719769E+02  0.87658579409E+02  0.00000000000E+00 0.  1.
</event>
<event>
12    1  0.8493057E-002  0.1918327E+03  0.7818608E-02  0.1156912E+00
         21   -1    0    0  501  502  0.00000000000E+00  0.00000000000E+00  0.17727302234E+03  0.17727302234E+03  0.00000000000E+00 0.  1.
         21   -1    0    0  502  503 -0.00000000000E+00 -0.00000000000E+00 -0.27845881394E+03  0.27845881394E+03  0.00000000000E+00 0.  1.
         -6    2    1    2    0  503 -0.81896438715E+02 -0.20475234640E+02 -0.16595815149E+03  0.25365703898E+03  0.17226004607E+03 0.  0.
        -24    2    3    3    0    0 -0.11711780554E+03 -0.20467464622E+02 -0.87568680746E+02  0.16758994966E+03  0.79262979348E+02 0.  0.
          6    2    1    2  501    0  0.81896438715E+02  0.20475234640E+02  0.64772359888E+02  0.20207479731E+03  0.17179203472E+03 0.  0.
         24    2    5    5    0    0  0.67035072191E+02  0.25553099111E+02  0.10958338558E+03  0.15435936011E+03  0.81680058032E+02 0.  0.
          5    1    5    5  501    0  0.14861366524E+02 -0.50778644711E+01 -0.44811025697E+02  0.47715437193E+02  0.47000000000E+01 0. -1.
        -11    1    6    6    0    0  0.20729833518E+02 -0.27389423256E+02  0.17688584915E+02  0.38636673515E+02  0.00000000000E+00 0.  1.
         12    1    6    6    0    0  0.46305238672E+02  0.52942522367E+02  0.91894800670E+02  0.11572268660E+03  0.00000000000E+00 0. -1.
         -5    1    3    3    0  503  0.35221366828E+02 -0.77700179320E-02 -0.78389470743E+02  0.86067089325E+02  0.47000000000E+01 0.  1.
         11    1    4    4    0    0 -0.22401545975E+02 -0.38455924051E+02 -0.41044529690E+02  0.60542057895E+02  0.00000000000E+00 0. -1.
        -12    1    4    4    0    0 -0.94716259568E+02  0.17988459429E+02 -0.46524151056E+02  0.10704789176E+03  0.00000000000E+00 0.  1.
</event>
<event>
12    1  0.8493057E-002  0.1729870E+03  0.7818608E-02  0.1174891E+00
         21   -1    0    0  501  502  0.00000000000E+00  0.00000000000E+00  0.85248017966E+03  0.85248017966E+03  0.00000000000E+00 0. -1.
         21   -1    0    0  502  503 -0.00000000000E+00 -0.00000000000E+00 -0.39300192695E+02  0.39300192695E+02  0.00000000000E+00 0. -1.
         -6    2    1    2    0  503  0.10154166363E+01  0.48373729027E+01  0.25867771406E+03  0.31092127889E+03  0.17243390233E+03 0.  0.
        -24    2    3    3    0    0  0.34671675571E+02 -0.14673553475E+02  0.25777515362E+03  0.27172530169E+03  0.77260413501E+02 0.  0.
          6    2    1    2  501    0 -0.10154166363E+01 -0.48373729027E+01  0.55450227290E+03  0.58085909346E+03  0.17291640913E+03 0.  0.
         24    2    5    5    0    0 -0.10611854289E+02  0.64335600704E+02  0.35789779358E+03  0.37216696811E+03  0.78522229530E+02 0.  0.
          5    1    5    5  501    0  0.95964376524E+01 -0.69172973606E+02  0.19660447932E+03  0.20869212535E+03  0.47000000000E+01 0. -1.
        -13    1    6    6    0    0  0.10496130096E+02 -0.14812031497E+02  0.97958139380E+02  0.99626111511E+02  0.00000000000E+00 0.  1.
         14    1    6    6    0    0 -0.21107984385E+02  0.79147632201E+02  0.25993965420E+03  0.27254085660E+03  0.00000000000E+00 0. -1.
         -5    1    3    3    0  503 -0.33656258934E+02  0.19510926377E+02  0.90256043268E+00  0.39195977203E+02  0.47000000000E+01 0.  1.
         11    1    4    4    0    0  0.19738455710E+02 -0.10585910617E+02  0.11899547458E+02  0.25362716083E+02  0.00000000000E+00 0. -1.
        -12    1    4    4    0    0  0.14933219861E+02 -0.40876428576E+01  0.24587560617E+03  0.24636258561E+03  0.00000000000E+00 0.  1.
</event>
<event>
12    1  0.8493057E-002  0.1777804E+03  0.7818608E-02  0.1170185E+00
         21   -1    0    0  501  502  0.00000000000E+00  0.00000000000E+00  0.29303635209E+02  0.29303635209E+02  0.00000000000E+00 0. -1.
         21   -1    0    0  502  503 -0.00000000000E+00 -0.00000000000E+00 -0.10810690612E+04  0.10810690612E+04  0.00000000000E+00 0. -1.
         -6    2    1    2    0  503  0.29240168077E+02  0.36205403077E+02 -0.47993355805E+03  0.51180277363E+03  0.17158100217E+03 0.  0.
        -24    2    3    3    0    0  0.43245178200E+01  0.36172367761E+02 -0.11181313910E+03  0.14281019434E+03  0.81027352717E+02 0.  0.
          6    2    1    2  501    0 -0.29240168077E+02 -0.36205403077E+02 -0.57183186798E+03  0.59856992282E+03  0.17067058513E+03 0.  0.
         24    2    5    5    0    0  0.48956274755E+02 -0.16719899964E+02 -0.27637216420E+03  0.29228101499E+03  0.79814451616E+02 0.  0.
          5    1    5    5  501    0 -0.78196442832E+02 -0.19485503113E+02 -0.29545970378E+03  0.30628890783E+03  0.47000000000E+01 0. -1.
        -13    1    6    6    0    0  0.96279295635E+01 -0.34010097270E+02 -0.46395526116E+02  0.58326054106E+02  0.00000000000E+00 0.  1.
         14    1    6    6    0    0  0.39328345192E+02  0.17290197305E+02 -0.22997663808E+03  0.23395496088E+03  0.00000000000E+00 0. -1.
         -5    1    3    3    0  503  0.24915650257E+02  0.33035315958E-01 -0.36812041895E+03  0.36899257929E+03  0.47000000000E+01 0.  1.
         11    1    4    4    0    0  0.29567708434E+02  0.48830978696E+02 -0.92151789559E+02  0.10840048977E+03  0.00000000000E+00 0. -1.
        -12    1    4    4    0    0 -0.25243190614E+02 -0.12658610935E+02 -0.19661349540E+02  0.34409704574E+02  0.00000000000E+00 0.  1.
</event>
<event>
12    1  0.8493057E-002  0.2723066E+03  0.7818608E-02  0.1100075E+00
         21   -1    0    0  501  502  0.00000000000E+00  0.00000000000E+00  0.15119009049E+04  0.15119009049E+04  0.00000000000E+00 0. -1.
         21   -1    0    0  502  503 -0.00000000000E+00 -0.00000000000E+00 -0.59282631628E+02  0.59282631628E+02  0.00000000000E+00 0. -1.
         -6    2    1    2    0  503  0.16580688775E+03 -0.12952110118E+03  0.39849601196E+03  0.48264890824E+03  0.17286774543E+03 0.  0.
        -24    2    3    3    0    0  0.12728872567E+03 -0.10027582555E+03  0.38921089248E+03  0.43317933780E+03  0.99506577660E+02 0.  0.
          6    2    1    2  501    0 -0.16580688775E+03  0.12952110118E+03  0.10541222613E+04  0.10885346282E+04  0.17165737820E+03 0.  0.
         24    2    5    5    0    0 -0.46668831295E+02  0.11951017255E+03  0.55076077490E+03  0.57114795354E+03  0.80074293703E+02 0.  0.
          5    1    5    5  501    0 -0.11913805646E+03  0.10010928626E+02  0.50336148638E+03  0.51738667470E+03  0.47000000000E+01 0. -1.
        -13    1    6    6    0    0 -0.15121450128E+02  0.63585024019E+02  0.42446122506E+03  0.42946367148E+03  0.00000000000E+00 0.  1.
         14    1    6    6    0    0 -0.31547381167E+02  0.55925148534E+02  0.12629954983E+03  0.14168428207E+03  0.00000000000E+00 0. -1.
         -5    1    3    3    0  503  0.38518162084E+02 -0.29245275624E+02  0.92851194784E+01  0.49469570449E+02  0.47000000000E+01 0.  1.
         13    1    4    4    0    0  0.50823179755E+02  0.41123731161E+01  0.18091366408E+03  0.18796186066E+03  0.00000000000E+00 0. -1.
        -14    1    4    4    0    0  0.76465545914E+02 -0.10438819867E+03  0.20829722840E+03  0.24521747713E+03  0.00000000000E+00 0.  1.
</event>
<event>
12    1  0.8493057E-002  0.2359378E+03  0.7818608E-02  0.1122692E+00
         21   -1    0    0  503  502  0.00000000000E+00  0.00000000000E+00  0.12494035285E+04  0.12494035285E+04  0.00000000000E+00 0.  1.
         21   -1    0    0  501  503 -0.00000000000E+00 -0.00000000000E+00 -0.17949843231E+03  0.17949843231E+03  0.00000000000E+00 0.  1.
          6    2    1    2  501    0 -0.16077774233E+03 -0.27485289820E+01 -0.85195424708E+02  0.24995163695E+03  0.17134912775E+03 0.  0.
         24    2    3    3    0    0 -0.16122932132E+03 -0.23617986811E+02 -0.11376856804E+03  0.21425496044E+03  0.80057464644E+02 0.  0.
         -6    2    1    2    0  502  0.16077774233E+03  0.27485289820E+01  0.11551005209E+04  0.11789503238E+04  0.17265461450E+03 0.  0.
        -24    2    5    5    0    0  0.14448120565E+03 -0.17244987207E+02  0.58655708359E+03  0.60980267351E+03  0.81473185376E+02 0.  0.
          5    1    3    3  501    0  0.45157898581E+00  0.20869457829E+02  0.28573143333E+02  0.35696676506E+02  0.47000000000E+01 0. -1.
        -13    1    4    4    0    0 -0.15725744390E+02  0.21305064272E+02 -0.31572367315E+02  0.41207028261E+02  0.00000000000E+00 0.  1.
         14    1    4    4    0    0 -0.14550357693E+03 -0.44923051083E+02 -0.82196200726E+02  0.17304793218E+03  0.00000000000E+00 0. -1.
         -5    1    5    5    0  502  0.16296536679E+02  0.19993516189E+02  0.56854343726E+03  0.56914765031E+03  0.47000000000E+01 0.  1.
         13    1    6    6    0    0  0.36639800844E+02 -0.40698696876E+02  0.15625055216E+03  0.16556900067E+03  0.00000000000E+00 0. -1.
        -14    1    6    6    0    0  0.10784140481E+03  0.23453709669E+02  0.43030653144E+03  0.44423367284E+03  0.00000000000E+00 0.  1.
</event>
<event>
12    1  0.8493057E-002  0.1984117E+03  0.7818608E-02  0.1151296E+00
         21   -1    0    0  503  502  0.00000000000E+00  0.00000000000E+00  0.73456211510E+02  0.73456211510E+02  0.00000000000E+00 0. -1.
         21   -1    0    0  501  503 -0.00000000000E+00 -0.00000000000E+00 -0.10598855849E+04  0.10598855849E+04  0.00000000000E+00 0.  1.
          6    2    1    2  501    0 -0.26785844924E+02 -0.94975587745E+02 -0.89326642631E+03  0.91503666920E+03  0.17213179208E+03 0.  0.
         24    2    3    3    0    0 -0.40391398958E+02 -0.10445823891E+03 -0.88630873129E+03  0.89644819713E+03  0.74385577864E+02 0.  0.
         -6    2    1    2    0  502  0.26785844924E+02  0.94975587745E+02 -0.93162947081E+02  0.21830512721E+03  0.17099693010E+03 0.  0.
        -24    2    5    5    0    0 -0.37665634705E+00  0.48568221008E+02  0.17451321522E+02  0.95223643712E+02  0.80024869490E+02 0.  0.
          5    1    3    3  501    0  0.13605554034E+02  0.94826511666E+01 -0.69576950210E+01  0.18588472065E+02  0.47000000000E+01 0. -1.
        -13    1    4    4    0    0  0.17563641857E+02 -0.55520747335E+02 -0.35263446633E+03  0.35741027090E+03  0.00000000000E+00 0.  1.
         14    1    4    4    0    0 -0.57955040815E+02 -0.48937491577E+02 -0.53367426496E+03  0.53903792623E+03  0.00000000000E+00 0. -1.
         -5    1    5    5    0  502  0.27162501271E+02  0.46407366737E+02 -0.11061426860E+03  0.12308148350E+03  0.47000000000E+01 0.  1.
         11    1    6    6    0    0  0.14089856972E+02  0.66007835902E+02  0.24004275776E+02  0.71636329648E+02  0.00000000000E+00 0. -1.
        -12    1    6    6    0    0 -0.14466513319E+02 -0.17439614894E+02 -0.65529542542E+01  0.23587314063E+02  0.00000000000E+00 0.  1.
</event>
<event>
12    1  0.8493057E-002  0.2799276E+03  0.7818608E-02  0.1096326E+00
         21   -1    0    0  503  502  0.00000000000E+00  0.00000000000E+00  0.19680020823E+03  0.19680020823E+03  0.00000000000E+00 0. -1.
         21   -1    0    0  501  503 -0.00000000000E+00 -0.00000000000E+00 -0.39241648883E+03  0.39241648883E+03  0.00000000000E+00 0.  1.
          6    2    1    2  501    0 -0.10554729975E+03 -0.18800600934E+03 -0.89259964858E+02  0.29381424259E+03  0.17853004170E+03 0.  0.
         24    2    3    3    0    0 -0.51336460440E+02 -0.11708699911E+03  0.20719497149E+02  0.15208953347E+03  0.79731619192E+02 0.  0.
         -6    2    1    2    0  502  0.10554729975E+03  0.18800600934E+03 -0.10635631574E+03  0.29540245447E+03  0.17165212546E+03 0.  0.
        -24    2    5    5    0    0  0.13381626024E+03  0.18614824014E+03 -0.10991966274E+03  0.26646505868E+03  0.79770523571E+02 0.  0.
          5    1    3    3  501    0 -0.54210839313E+02 -0.70919010235E+02 -0.10997946201E+03  0.14172470912E+03  0.47000000000E+01 0. -1.
        -11    1    4    4    0    0  0.12955809943E+02 -0.63015445543E+02 -0.41819135636E+01  0.64469277872E+02  0.00000000000E+00 0.  1.
         12    1    4    4    0    0 -0.64292270383E+02 -0.54071553564E+02  0.24901410712E+02  0.87620255599E+02  0.00000000000E+00 0. -1.
         -5    1    5    5    0  502 -0.28268960482E+02  0.18577691982E+01  0.35633469990E+01  0.28937395788E+02  0.47000000000E+01 0.  1.
         11    1    6    6    0    0 -0.82992422052E+01  0.17036199575E+02  0.15920852708E+01  0.19016946459E+02  0.00000000000E+00 0. -1.
        -12    1    6    6    0    0  0.14211550244E+03  0.16911204057E+03 -0.11151174801E+03  0.24744811222E+03  0.00000000000E+00 0.  1.
</event>
<event>
12    1  0.8493057E-002  0.2384715E+03  0.7818608E-02  0.1121061E+00
         21   -1    0    0  503  502  0.00000000000E+00  0.00000000000E+00  0.74562330441E+02  0.74562330441E+02  0.00000000000E+00 0.  1.
         21   -1    0    0  501  503 -0.00000000000E+00 -0.00000000000E+00 -0.94367048698E+03  0.94367048698E+03  0.00000000000E+00 0.  1.
          6    2    1    2  501    0  0.68793021957E+02 -0.14794184845E+03 -0.66143434947E+03  0.70311027998E+03  0.17392353714E+03 0.  0.
         24    2    3    3    0    0  0.90054871715E+02 -0.13450136577E+03 -0.38054425747E+03  0.42105701088E+03  0.79212228884E+02 0.  0.
         -6    2    1    2    0  502 -0.68793021957E+02  0.14794184845E+03 -0.20767380707E+03  0.31512253744E+03  0.17191431897E+03 0.  0.
        -24    2    5    5    0    0 -0.10904661420E+02  0.11931914171E+03 -0.20518039636E+03  0.25032571094E+03  0.78790845217E+02 0.  0.
          5    1    3    3  501    0 -0.21261849758E+02 -0.13440482684E+02 -0.28089009200E+03  0.28205326910E+03  0.47000000000E+01 0. -1.
        -11    1    4    4    0    0  0.49081330294E+02 -0.90766146517E+02 -0.31848804743E+03  0.33478665848E+03  0.00000000000E+00 0.  1.
         12    1    4    4    0    0  0.40973541421E+02 -0.43735219249E+02 -0.62056210036E+02  0.86270352401E+02  0.00000000000E+00 0. -1.
         -5    1    5    5    0  502 -0.57888360538E+02  0.28622706739E+02 -0.24934107121E+01  0.64796826495E+02  0.47000000000E+01 0.  1.
         13    1    6    6    0    0 -0.24010660708E+02  0.54924579558E+01 -0.63518877187E+02  0.68127282943E+02  0.00000000000E+00 0. -1.
        -14    1    6    6    0    0  0.13105999288E+02  0.11382668375E+03 -0.14166151917E+03  0.18219842800E+03  0.00000000000E+00 0.  1.
</event>
<event>
12    1  0.8493057E-002  0.2100321E+03  0.7818608E-02  0.1141729E+00
         21   -1    0    0  503  502  0.00000000000E+00  0.00000000000E+00  0.77184419257E+03  0.77184419257E+03  0.00000000000E+00 0. -1.
         21   -1    0    0  501  503 -0.00000000000E+00 -0.00000000000E+00 -0.57047201929E+02  0.57047201929E+02  0.00000000000E+00 0. -1.
          6    2    1    2  501    0  0.10994521645E+03 -0.50541754171E+02  0.33685503738E+03  0.39696950125E+03  0.17167134058E+03 0.  0.
         24    2    3    3    0    0  0.11544137080E+03  0.90580071759E+01  0.28552717568E+03  0.31798229562E+03  0.78601620156E+02 0.  0.
         -6    2    1    2    0  502 -0.10994521645E+03  0.50541754171E+02  0.37794195326E+03  0.43192189325E+03  0.17051094482E+03 0.  0.
        -24    2    5    5    0    0 -0.10593425582E+03  0.93054629295E+02  0.33048393345E+03  0.36790794164E+03  0.79091040371E+02 0.  0.
          5    1    3    3  501    0 -0.54961543574E+01 -0.59599761347E+02  0.51327861708E+02  0.78987205628E+02  0.47000000000E+01 0. -1.
        -11    1    4    4    0    0  0.49015978117E+01 -0.18189415722E+02  0.13749755542E+02  0.23322441614E+02  0.00000000000E+00 0.  1.
         12    1    4    4    0    0  0.11053977299E+03  0.27247422898E+02  0.27177742013E+03  0.29465985401E+03  0.00000000000E+00 0. -1.
         -5    1    5    5    0  502 -0.40109606255E+01 -0.42512875124E+02  0.47458019812E+02  0.64013951612E+02  0.47000000000E+01 0.  1.
         11    1    6    6    0    0 -0.66035125381E+02  0.78398808634E+01  0.15810641171E+03  0.17152183226E+03  0.00000000000E+00 0. -1.
        -12    1    6    6    0    0 -0.39899130440E+02  0.85214748432E+02  0.17237752173E+03  0.19638610938E+03  0.00000000000E+00 0.  1.
</event>
<event>
12    1  0.8493057E-002  0.5025650E+03  0.7818608E-02  0.1013122E+00
         21   -1    0    0  503  502  0.00000000000E+00  0.00000000000E+00  0.37816280932E+03  0.37816280932E+03  0.00000000000E+00 0. -1.
         21   -1    0    0  501  503 -0.00000000000E+00 -0.00000000000E+00 -0.11395229054E+04  0.11395229054E+04  0.00000000000E+00 0.  1.
          6    2    1    2  501    0  0.27687154019E+03  0.38245907178E+03 -0.86894757394E+03  0.10037337104E+04  0.17169357519E+03 0.  0.
         24    2    3    3    0    0  0.17099194441E+03  0.27084627466E+03 -0.68966155604E+03  0.76744263671E+03  0.10363005944E+03 0.  0.
         -6    2    1    2    0  502 -0.27687154019E+03 -0.38245907178E+03  0.10758747783E+03  0.51395200435E+03  0.17215924616E+03 0.  0.
        -24    2    5    5    0    0 -0.93120822888E+02 -0.13589004120E+03  0.97190086559E+02  0.20623328751E+03  0.77127589093E+02 0.  0.
          5    1    3    3  501    0  0.10587959579E+03  0.11161279711E+03 -0.17928601791E+03  0.23629107368E+03  0.47000000000E+01 0. -1.
        -11    1    4    4    0    0  0.63816651169E+02  0.53605369584E+02 -0.10138968476E+03  0.13124773823E+03  0.00000000000E+00 0.  1.
         12    1    4    4    0    0  0.10717529324E+03  0.21724090508E+03 -0.58827187128E+03  0.63619489848E+03  0.00000000000E+00 0. -1.
         -5    1    5    5    0  502 -0.18375071731E+03 -0.24656903058E+03  0.10397391272E+02  0.30771871684E+03  0.47000000000E+01 0.  1.
         11    1    6    6    0    0  0.12999991659E+02 -0.17644228244E+02  0.47817263459E+01  0.22431751611E+02  0.00000000000E+00 0. -1.
        -12    1    6    6    0    0 -0.10612081455E+03 -0.11824581296E+03  0.92408360213E+02  0.18380153590E+03  0.00000000000E+00 0.  1.
</event>
<event>
12    1  0.8493057E-002  0.1851056E+03  0.7818608E-02  0.1162957E+00
         21   -1    0    0  503  502  0.00000000000E+00  0.00000000000E+00  0.63270820018E+03  0.63270820018E+03  0.00000000000E+00 0.  1.
         21   -1    0    0  501  503 -0.00000000000E+00 -0.00000000000E+00 -0.12357822431E+03  0.12357822431E+03  0.00000000000E+00 0.  1.
          6    2    1    2  501    0  0.65352035834E+02  0.20323427962E+02 -0.28867977629E+02  0.18734307536E+03  0.17198877126E+03 0.  0.
         24    2    3    3    0    0  0.37913845084E+02  0.66469341107E+02 -0.57313311063E+02  0.12640436347E+03  0.82689869538E+02 0.  0.
         -6    2    1    2    0  502 -0.65352035834E+02 -0.20323427962E+02  0.53799795349E+03  0.56894334913E+03  0.17196164180E+03 0.  0.
        -24    2    5    5    0    0 -0.17649559008E+02 -0.43694792121E+02  0.12817769617E+03  0.15566804105E+03  0.74714626534E+02 0.  0.
          5    1    3    3  501    0  0.27438190750E+02 -0.46145913145E+02  0.28445333434E+02  0.60938711881E+02  0.47000000000E+01 0. -1.
        -13    1    4    4    0    0  0.57364703393E+02  0.24405715707E+02 -0.16098933869E+02  0.64385742414E+02  0.00000000000E+00 0.  1.
         14    1    4    4    0    0 -0.19450858309E+02  0.42063625401E+02 -0.41214377194E+02  0.62018621061E+02  0.00000000000E+00 0. -1.
         -5    1    5    5    0  502 -0.47702476826E+02  0.23371364159E+02  0.40982025732E+03  0.41327530808E+03  0.47000000000E+01 0.  1.
         13    1    6    6    0    0  0.24881675683E+02  0.17746844799E+01  0.48605887639E+02  0.54633136492E+02  0.00000000000E+00 0. -1.
        -14    1    6    6    0    0 -0.42531234691E+02 -0.45469476601E+02  0.79571808532E+02  0.10103490456E+03  0.00000000000E+00 0.  1.
</event>
<event>
12    1  0.8493057E-002  0.1931021E+03  0.7818608E-02  0.1156244E+00
         21   -1    0    0  501  502  0.00000000000E+00  0.00000000000E+00  0.19520907246E+03  0.19520907246E+03  0.00000000000E+00 0.  1.
         21   -1    0    0  502  503 -0.00000000000E+00 -0.00000000000E+00 -0.54815542372E+03  0.54815542372E+03  0.00000000000E+00 0.  1.
         -6    2    1    2    0  503  0.77131969563E+01 -0.87274220313E+02 -0.47711500050E+03  0.51378598822E+03  0.16929570302E+03 0.  0.
        -24    2    3    3    0    0  0.66322797671E+02 -0.81222416806E+02 -0.31684213393E+03  0.34296095675E+03  0.78977753439E+02 0.  0.
          6    2    1    2  501    0 -0.77131969563E+01  0.87274220313E+02  0.12416864924E+03  0.22957850796E+03  0.17208182624E+03 0.  0.
         24    2    5    5    0    0 -0.28739263112E+02  0.85592601837E+02  0.15220262059E+03  0.19418194247E+03  0.79930909766E+02 0.  0.
          5    1    5    5  501    0  0.21026066156E+02  0.16816184761E+01 -0.28033971345E+02  0.35396565484E+02  0.47000000000E+01 0. -1.
        -11    1    6    6    0    0  0.55752479649E+01  0.64996413377E+02  0.43662635166E+02  0.78498680571E+02  0.00000000000E+00 0.  1.
         12    1    6    6    0    0 -0.34314511077E+02  0.20596188460E+02  0.10853998542E+03  0.11568326190E+03  0.00000000000E+00 0. -1.
         -5    1    3    3    0  503 -0.58609600714E+02 -0.60518035071E+01 -0.16027286657E+03  0.17082503148E+03  0.47000000000E+01 0.  1.
         13    1    4    4    0    0 -0.53041963975E+01 -0.21949120586E+02 -0.15233677208E+03  0.15400126792E+03  0.00000000000E+00 0. -1.
        -14    1    4    4    0    0  0.71626994068E+02 -0.59273296219E+02 -0.16450536184E+03  0.18895968882E+03  0.00000000000E+00 0.  1.
</event>
<event>
12    1  0.8493057E-002  0.1864617E+03  0.7818608E-02  0.1162165E+00
         21   -1    0    0  501  502  0.00000000000E+00  0.00000000000E+00  0.46131004603E+03  0.46131004603E+03  0.00000000000E+00 0.  1.
         21   -1    0    0  502  503 -0.00000000000E+00 -0.00000000000E+00 -0.91723458501E+02  0.91723458501E+02  0.00000000000E+00 0. -1.
         -6    2    1    2    0  503  0.67944009368E+01  0.67141402638E+02  0.64311914084E+02  0.19531768692E+03  0.17163579084E+03 0.  0.
        -24    2    3    3    0    0 -0.60336514155E+02  0.52744896558E+02  0.38077125061E+02  0.12166869980E+03  0.83251942950E+02 0.  0.
          6    2    1    2  501    0 -0.67944009368E+01 -0.67141402638E+02  0.30527467344E+03  0.35771581761E+03  0.17382131081E+03 0.  0.
         24    2    5    5    0    0 -0.48470893491E+02 -0.72703339402E+02  0.12559754513E+03  0.17312484922E+03  0.81007820605E+02 0.  0.
          5    1    5    5  501    0  0.41676492554E+02  0.55619367649E+01  0.17967712832E+03  0.18459096839E+03  0.47000000000E+01 0. -1.
        -11    1    6    6    0    0 -0.47167254162E+02 -0.95903676523E+01  0.86157296903E+02  0.98690449520E+02  0.00000000000E+00 0.  1.
         12    1    6    6    0    0 -0.13036393294E+01 -0.63112971750E+02  0.39440248225E+02  0.74434399700E+02  0.00000000000E+00 0. -1.
         -5    1    3    3    0  503  0.67130915092E+02  0.14396506079E+02  0.26234789023E+02  0.73648987117E+02  0.47000000000E+01 0.  1.
         11    1    4    4    0    0  0.16763639850E+02  0.81705534982E+01  0.25702424040E+02  0.31755191182E+02  0.00000000000E+00 0. -1.
        -12    1    4    4    0    0 -0.77100154004E+02  0.44574343060E+02  0.12374701021E+02  0.89913508619E+02  0.00000000000E+00 0.  1.
</event>
<event>
12    1  0.8493057E-002  0.1990139E+03  0.7818608E-02  0.1150711E+00
         21   -1    0    0  503  502  0.00000000000E+00  0.00000000000E+00  0.10584978495E+03  0.10584978495E+03  0.00000000000E+00 0.  1.
         21   -1    0    0  501  503 -0.00000000000E+00 -0.00000000000E+00 -0.37842957734E+03  0.37842957734E+03  0.00000000000E+00 0.  1.
          6    2    1    2  501    0  0.53985810388E+02  0.86465310695E+02 -0.16561445460E+03  0.25891056154E+03  0.17092633977E+03 0.  0.
         24    2    3    3    0    0 -0.23978896163E+02  0.85274424105E+02 -0.11614848276E+03  0.16645037525E+03  0.79803148467E+02 0.  0.
         -6    2    1    2    0  502 -0.53985810388E+02 -0.86465310695E+02 -0.10696533778E+03  0.22536880076E+03  0.17017283917E+03 0.  0.
        -24    2    5    5    0    0  0.94832199605E+01 -0.97815009513E+02 -0.99341470526E+02  0.16027389444E+03  0.78493859155E+02 0.  0.
          5    1    3    3  501    0  0.77964706551E+02  0.11908865908E+01 -0.49465971835E+02  0.92460186286E+02  0.47000000000E+01 0. -1.
        -11    1    4    4    0    0 -0.27428396411E+02  0.14670311949E+02 -0.82486143013E+02  0.88156104562E+02  0.00000000000E+00 0.  1.
         12    1    4    4    0    0  0.34495002478E+01  0.70604112156E+02 -0.33662339751E+02  0.78294270689E+02  0.00000000000E+00 0. -1.
         -5    1    5    5    0  502 -0.63469030348E+02  0.11349698818E+02 -0.76238672576E+01  0.65094906318E+02  0.47000000000E+01 0.  1.
         13    1    6    6    0    0  0.36202081239E+02 -0.15809836175E+02 -0.29830819190E+02  0.49501710874E+02  0.00000000000E+00 0. -1.
        -14    1    6    6    0    0 -0.26718861279E+02 -0.82005173338E+02 -0.69510651336E+02  0.11077218356E+03  0.00000000000E+00 0.  1.
</event>
<event>
12    1  0.8493057E-002  0.1889351E+03  0.7818608E-02  0.1160457E+00
         21   -1    0    0  503  502  0.00000000000E+00  0.00000000000E+00  0.16321374159E+03  0.16321374159E+03  0.00000000000E+00 0.  1.
         21   -1    0    0  501  503 -0.00000000000E+00 -0.00000000000E+00 -0.24938115379E+03  0.24938115379E+03  0.00000000000E+00 0.  1.
          6    2    1    2  501    0  0.52289533852E+02 -0.42491128785E+02 -0.12083127596E+03  0.22050620869E+03  0.17170643390E+03 0.  0.
         24    2    3    3    0    0  0.91400303574E+02 -0.53112062479E+02 -0.55731840355E+02  0.14367858958E+03  0.79765859875E+02 0.  0.
         -6    2    1    2    0  502 -0.52289533852E+02  0.42491128785E+02  0.34663863755E+02  0.19208868669E+03  0.17651285712E+03 0.  0.
        -24    2    5    5    0    0 -0.83472752092E+02  0.69368503244E+02 -0.14866623492E+01  0.13710017066E+03  0.83752952468E+02 0.  0.
          5    1    3    3  501    0 -0.39110769723E+02  0.10620933693E+02 -0.65099435606E+02  0.76827619103E+02  0.47000000000E+01 0. -1.
        -13    1    4    4    0    0  0.48542183761E+02 -0.28767361525E+02 -0.72269412171E+02  0.91688454175E+02  0.00000000000E+00 0.  1.
         14    1    4    4    0    0  0.42858119813E+02 -0.24344700954E+02  0.16537571816E+02  0.51990135410E+02  0.00000000000E+00 0. -1.
         -5    1    5    5    0  502  0.31183218240E+02 -0.26877374459E+02  0.36150526104E+02  0.54988516030E+02  0.47000000000E+01 0.  1.
         13    1    6    6    0    0 -0.99880579627E+01  0.62490485095E+02 -0.11048083864E+01  0.63293306367E+02  0.00000000000E+00 0. -1.
        -14    1    6    6    0    0 -0.73484694129E+02  0.68780181487E+01 -0.38185396281E+00  0.73806864297E+02  0.00000000000E+00 0.  1.
</event>
<event>
12    1  0.8493057E-002  0.2293662E+03  0.7818608E-02  0.1127262E+00
         21   -1    0    0  503  502  0.00000000000E+00  0.00000000000E+00  0.73840138728E+02  0.73840138728E+02  0.00000000000E+00 0. -1.
         21   -1    0    0  501  503 -0.00000000000E+00 -0.00000000000E+00 -0.13652984919E+04  0.13652984919E+04  0.00000000000E+00 0.  1.
          6    2    1    2  501    0  0.15013433317E+03  0.19211432973E+02 -0.11452017043E+04  0.11679451234E+04  0.17233534381E+03 0.  0.
         24    2    3    3    0    0  0.29580597405E+02 -0.40580214161E+02 -0.46897715161E+03  0.47844531930E+03  0.80303108924E+02 0.  0.
         -6    2    1    2    0  502 -0.15013433317E+03 -0.19211432973E+02 -0.14625664890E+03  0.27119350719E+03  0.17101319786E+03 0.  0.
        -24    2    5    5    0    0 -0.12568838675E+03 -0.36888734067E+02 -0.36523952567E+02  0.15729247158E+03  0.79047917361E+02 0.  0.
          5    1    3    3  501    0  0.12055373577E+03  0.59791647134E+02 -0.67622455267E+03  0.68949980414E+03  0.47000000000E+01 0. -1.
        -11    1    4    4    0    0  0.43315597209E+02  0.80774031900E+01 -0.22885876709E+03  0.23306183874E+03  0.00000000000E+00 0.  1.
         12    1    4    4    0    0 -0.13734999804E+02 -0.48657617351E+02 -0.24011838452E+03  0.24538348056E+03  0.00000000000E+00 0. -1.
         -5    1    5    5    0  502 -0.24445946424E+02  0.17677301094E+02 -0.10973269633E+03  0.11390103562E+03  0.47000000000E+01 0.  1.
         11    1    6    6    0    0 -0.71456777961E+02  0.15926119010E+02  0.73454704145E-01  0.73210093422E+02  0.00000000000E+00 0. -1.
        -12    1    6    6    0    0 -0.54231608790E+02 -0.52814853077E+02 -0.36597407271E+02  0.84082378156E+02  0.00000000000E+00 0.  1.
</event>
<event>
12    1  0.8493057E-002  0.1810766E+03  0.7818608E-02  0.1167554E+00
         21   -1    0    0  503  502  0.00000000000E+00  0.00000000000E+00  0.27141181995E+03  0.27141181995E+03  0.00000000000E+00 0. -1.
         21   -1    0    0  501  503 -0.00000000000E+00 -0.00000000000E+00 -0.12291095089E+03  0.12291095089E+03  0.00000000000E+00 0. -1.
          6    2    1    2  501    0  0.49503812477E+02  0.11459622205E+02  0.38175690835E+02  0.18505711437E+03  0.17380104089E+03 0.  0.
         24    2    3    3    0    0  0.48015081880E+01  0.19395429161E+02 -0.40719153087E+02  0.93910203073E+02  0.82230405933E+02 0.  0.
         -6    2    1    2    0  502 -0.49503812477E+02 -0.11459622205E+02  0.11032517823E+03  0.20926565647E+03  0.17040692368E+03 0.  0.
        -24    2    5    5    0    0 -0.59669765519E+02  0.41843113164E+02  0.74236358081E+02  0.14392790981E+03  0.99462954542E+02 0.  0.
          5    1    3    3  501    0  0.44702304290E+02 -0.79358069560E+01  0.78894843921E+02  0.91146911292E+02  0.47000000000E+01 0. -1.
        -11    1    4    4    0    0 -0.20797043129E+02  0.76557745038E+00  0.17793819829E+02  0.27381072584E+02  0.00000000000E+00 0.  1.
         12    1    4    4    0    0  0.25598551317E+02  0.18629851710E+02 -0.58512972916E+02  0.66529130489E+02  0.00000000000E+00 0. -1.
         -5    1    5    5    0  502  0.10165953042E+02 -0.53302735369E+02  0.36088820144E+02  0.65337746659E+02  0.47000000000E+01 0.  1.
         13    1    6    6    0    0 -0.33516745849E+01  0.61459745668E+02  0.50962461894E+02  0.79910616206E+02  0.00000000000E+00 0. -1.
        -14    1    6    6    0    0 -0.56318090934E+02 -0.19616632504E+02  0.23273896187E+02  0.64017293609E+02  0.00000000000E+00 0.  1.
</event>
<event>
12    1  0.8493057E-002  0.2697436E+03  0.7818608E-02  0.1101524E+00
         21   -1    0    0  501  502  0.00000000000E+00  0.00000000000E+00  0.16107900219E+03  0.16107900219E+03  0.00000000000E+00 0.  1.
         21   -1    0    0  502  503 -0.00000000000E+00 -0.00000000000E+00 -0.13774172190E+04  0.13774172190E+04  0.00000000000E+00 0.  1.
         -6    2    1    2    0  503  0.20513207847E+03  0.30506244023E+02 -0.12394328235E+04  0.12684460223E+04  0.17248706327E+03 0.  0.
        -24    2    3    3    0    0  0.72273398750E+02  0.70971378609E+02 -0.51995389339E+03  0.53566987861E+03  0.79559957600E+02 0.  0.
          6    2    1    2  501    0 -0.20513207847E+03 -0.30506244023E+02  0.23094606678E+02  0.27005019889E+03  0.17141746853E+03 0.  0.
         24    2    5    5    0    0 -0.22282604723E+03 -0.25594065018E+02 -0.22302744524E+01  0.23841721551E+03  0.80816403271E+02 0.  0.
          5    1    5    5  501    0  0.17693968759E+02 -0.49121790049E+01  0.25324881131E+02  0.31632983376E+02  0.47000000000E+01 0. -1.
        -13    1    6    6    0    0 -0.15896434742E+03 -0.53291107210E+02  0.90343712541E+01  0.16790242917E+03  0.00000000000E+00 0.  1.
         14    1    6    6    0    0 -0.63861699816E+02  0.27697042192E+02 -0.11264645706E+02  0.70514786339E+02  0.00000000000E+00 0. -1.
         -5    1    3    3    0  503  0.13285867972E+03 -0.40465134586E+02 -0.71947893010E+03  0.73277614369E+03  0.47000000000E+01 0.  1.
         13    1    4    4    0    0 -0.96082956804E+01  0.10585217313E+02 -0.15612254316E+02  0.21168577096E+02  0.00000000000E+00 0. -1.
        -14    1    4    4    0    0  0.81881694431E+02  0.60386161297E+02 -0.50434163907E+03  0.51450130151E+03  0.00000000000E+00 0.  1.
</event>
<event>
12    1  0.8493057E-002  0.1792828E+03  0.7818608E-02  0.1168990E+00
         21   -1    0    0  503  502  0.00000000000E+00  0.00000000000E+00  0.22466750399E+03  0.22466750399E+03  0.00000000000E+00 0. -1.
         21   -1    0    0  501  503 -0.00000000000E+00 -0.00000000000E+00 -0.18884179725E+03  0.18884179725E+03  0.00000000000E+00 0. -1.
          6    2    1    2  501    0 -0.42575441435E+02  0.16575121398E+02 -0.85566097665E+02  0.19865515048E+03  0.17336351657E+03 0.  0.
         24    2    3    3    0    0 -0.11573971780E+02 -0.12237804368E+02  0.20604115905E+02  0.84263367286E+02  0.79950389590E+02 0.  0.
         -6    2    1    2    0  502  0.42575441435E+02 -0.16575121398E+02  0.12139180440E+03  0.21485415076E+03  0.17128611462E+03 0.  0.
        -24    2    5    5    0    0 -0.48251135484E+01  0.32268770531E+02  0.11852667710E+03  0.14656917916E+03  0.79808494685E+02 0.  0.
          5    1    3    3  501    0 -0.31001469655E+02  0.28812925766E+02 -0.10617021357E+03  0.11439178319E+03  0.47000000000E+01 0. -1.
        -11    1    4    4    0    0  0.32367811533E+02 -0.11927198931E+02  0.20874416705E+02  0.40319654891E+02  0.00000000000E+00 0.  1.
         12    1    4    4    0    0 -0.43941783313E+02 -0.31060543648E+00 -0.27030080004E+00  0.43943712395E+02  0.00000000000E+00 0. -1.
         -5    1    5    5    0  502  0.47400554984E+02 -0.48843891928E+02  0.28651273009E+01  0.68284971596E+02  0.47000000000E+01 0.  1.
         11    1    6    6    0    0  0.17376097865E+02 -0.21219074344E+02  0.48303652826E+02  0.55546563975E+02  0.00000000000E+00 0. -1.
        -12    1    6    6    0    0 -0.22201211413E+02  0.53487844875E+02  0.70223024274E+02  0.91022615189E+02  0.00000000000E+00 0.  1.
</event>
<event>
12    1  0.8493057E-002  0.1771231E+03  0.7818608E-02  0.1170759E+00
         21   -1    0    0  503  502  0.00000000000E+00  0.00000000000E+00  0.24603504459E+03  0.24603504459E+03  0.00000000000E+00 0. -1.
         21   -1    0    0  501  503 -0.00000000000E+00 -0.00000000000E+00 -0.61912151546E+03  0.61912151546E+03  0.00000000000E+00 0. -1.
          6    2    1    2  501    0 -0.31457302484E+02  0.25363779129E+02 -0.57223361467E+03  0.59901910640E+03  0.17245201333E+03 0.  0.
         24    2    3    3    0    0  0.39973601686E+02  0.42536578138E+02 -0.25595250522E+03  0.27428366132E+03  0.79451825823E+02 0.  0.
         -6    2    1    2    0  502  0.31457302484E+02 -0.25363779129E+02  0.19914714381E+03  0.26613745365E+03  0.17186237569E+03 0.  0.
        -24    2    5    5    0    0  0.60465704200E+02 -0.70159421815E+02  0.10374439164E+03  0.15672122042E+03  0.72250925803E+02 0.  0.
          5    1    3    3  501    0 -0.71430904170E+02 -0.17172799009E+02 -0.31628110944E+03  0.32473544507E+03  0.47000000000E+01 0. -1.
        -13    1    4    4    0    0  0.46348115841E+02  0.24057103223E+01 -0.70310826642E+02  0.84246944320E+02  0.00000000000E+00 0.  1.
         14    1    4    4    0    0 -0.63745141551E+01  0.40130867815E+02 -0.18564167858E+03  0.19003671700E+03  0.00000000000E+00 0. -1.
         -5    1    5    5    0  502 -0.29008401715E+02  0.44795642686E+02  0.95402752167E+02  0.10941623323E+03  0.47000000000E+01 0.  1.
         13    1    6    6    0    0  0.71214865087E+02 -0.39278528885E+02  0.89855306828E+02  0.12119544548E+03  0.00000000000E+00 0. -1.
        -14    1    6    6    0    0 -0.10749160887E+02 -0.30880892929E+02  0.13889084810E+02  0.35525774935E+02  0.00000000000E+00 0.  1.
</event>
<event>
12    1  0.8493057E-002  0.1916876E+03  0.7818608E-02  0.1157389E+00
         21   -1    0    0  501  502  0.00000000000E+00  0.00000000000E+00  0.12820573258E+03  0.12820573258E+03  0.00000000000E+00 0. -1.
         21   -1    0    0  502  503 -0.00000000000E+00 -0.00000000000E+00 -0.28369840797E+03  0.28369840797E+03  0.00000000000E+00 0. -1.
         -6    2    1    2    0  503 -0.19237554610E+02  0.77997851260E+02 -0.79565355462E+02  0.20572676777E+03  0.17186945301E+03 0.  0.
        -24    2    3    3    0    0  0.42889971463E+02  0.85653362397E+02 -0.60394216974E+02  0.14009096277E+03  0.82474046006E+02 0.  0.
          6    2    1    2  501    0  0.19237554610E+02 -0.77997851260E+02 -0.75927319931E+02  0.20617737278E+03  0.17404138251E+03 0.  0.
         24    2    5    5    0    0  0.43900630761E+02 -0.95480481455E+02 -0.82013860393E+01  0.13186181717E+03  0.79224291564E+02 0.  0.
          5    1    5    5  501    0 -0.24663076151E+02  0.17482630195E+02 -0.67725933892E+02  0.74315555608E+02  0.47000000000E+01 0. -1.
        -11    1    6    6    0    0 -0.18340776444E+02 -0.10543584112E+01 -0.32730002301E+01  0.18660339834E+02  0.00000000000E+00 0.  1.
         12    1    6    6    0    0  0.62241407205E+02 -0.94426123044E+02 -0.49283858092E+01  0.11320147733E+03  0.00000000000E+00 0. -1.
         -5    1    3    3    0  503 -0.62127526073E+02 -0.76555111371E+01 -0.19171138488E+02  0.65635804997E+02  0.47000000000E+01 0.  1.
         11    1    4    4    0    0 -0.19555820003E+02  0.37134494529E+02 -0.24231763088E+01  0.42038941035E+02  0.00000000000E+00 0. -1.
        -12    1    4    4    0    0  0.62445791466E+02  0.48518867868E+02 -0.57971040665E+02  0.98052021737E+02  0.00000000000E+00 0.  1.
</event>
<event>
12    1  0.8493057E-002  0.1926821E+03  0.7818608E-02  0.1156331E+00
         21   -1    0    0  501  502  0.00000000000E+00  0.00000000000E+00  0.53134888345E+03  0.53134888345E+03  0.00000000000E+00 0.  1.
         21   -1    0    0  502  503 -0.00000000000E+00 -0.00000000000E+00 -0.81086462119E+02  0.81086462119E+02  0.00000000000E+00 0.  1.
         -6    2    1    2    0  503 -0.26100499459E+02  0.79197332595E+02  0.10966924623E+03  0.22170638024E+03  0.17370354605E+03 0.  0.
        -24    2    3    3    0    0 -0.40748282407E+02  0.11920668955E+03  0.90025223247E+02  0.17455466948E+03  0.80586192760E+02 0.  0.
          6    2    1    2  501    0  0.26100499459E+02 -0.79197332595E+02  0.34059317510E+03  0.39072896533E+03  0.17237157497E+03 0.  0.
         24    2    5    5    0    0 -0.48653669923E+02 -0.54883257935E+02  0.22979073646E+03  0.25479283888E+03  0.82074701212E+02 0.  0.
          5    1    5    5  501    0  0.74754169382E+02 -0.24314074661E+02  0.11080243864E+03  0.13593612645E+03  0.47000000000E+01 0. -1.
        -13    1    6    6    0    0  0.18778013048E+02  0.54063613684E+01  0.37295088446E+02  0.42104229472E+02  0.00000000000E+00 0.  1.
         14    1    6    6    0    0 -0.67431682970E+02 -0.60289619303E+02  0.19249564802E+03  0.21268860940E+03  0.00000000000E+00 0. -1.
         -5    1    3    3    0  503  0.14647782948E+02 -0.40009356953E+02  0.19644022982E+02  0.47151710764E+02  0.47000000000E+01 0.  1.
         11    1    4    4    0    0  0.91937096108E+01  0.88814855477E+02  0.40981269620E+02  0.98244935287E+02  0.00000000000E+00 0. -1.
        -12    1    4    4    0    0 -0.49941992018E+02  0.30391834072E+02  0.49043953626E+02  0.76309734191E+02  0.00000000000E+00 0.  1.
</event>
<event>
12    1  0.8493057E-002  0.2991504E+03  0.7818608E-02  0.1085693E+00
         21   -1    0    0  501  502  0.00000000000E+00  0.00000000000E+00  0.10701860607E+03  0.10701860607E+03  0.00000000000E+00 0.  1.
         21   -1    0    0  502  503 -0.00000000000E+00 -0.00000000000E+00 -0.88878338259E+03  0.88878338259E+03  0.00000000000E+00 0. -1.
         -6    2    1    2    0  503  0.11454837675E+03 -0.21602394227E+03 -0.26898386007E+03  0.40213944049E+03  0.17197714491E+03 0.  0.
        -24    2    3    3    0    0  0.11932442466E+02 -0.15597154704E+03 -0.12843069853E+03  0.21798298157E+03  0.80948312280E+02 0.  0.
          6    2    1    2  501    0 -0.11454837675E+03  0.21602394227E+03 -0.51278091644E+03  0.59366254817E+03  0.17234639127E+03 0.  0.
         24    2    5    5    0    0 -0.80654085599E+02  0.19186003612E+03 -0.50385311871E+03  0.55083133402E+03  0.78941993431E+02 0.  0.
          5    1    5    5  501    0 -0.33894291151E+02  0.24163906153E+02 -0.89277977350E+01  0.42831214150E+02  0.47000000000E+01 0. -1.
        -13    1    6    6    0    0 -0.35873258175E+02  0.14391003381E+02 -0.10810270078E+03  0.11480498920E+03  0.00000000000E+00 0.  1.
         14    1    6    6    0    0 -0.44780827425E+02  0.17746903274E+03 -0.39575041793E+03  0.43602634482E+03  0.00000000000E+00 0. -1.
         -5    1    3    3    0  503  0.10261593428E+03 -0.60052395225E+02 -0.14055316155E+03  0.18415645892E+03  0.47000000000E+01 0.  1.
         11    1    4    4    0    0 -0.87185169914E+01 -0.10367227924E+02  0.93522223866E+01  0.16460741688E+02  0.00000000000E+00 0. -1.
        -12    1    4    4    0    0  0.20650959457E+02 -0.14560431912E+03 -0.13778292091E+03  0.20152223988E+03  0.00000000000E+00 0.  1.
</event>
<event>
12    1  0.8493057E-002  0.1959689E+03  0.7818608E-02  0.1153739E+00
         21   -1    0    0  503  502  0.00000000000E+00  0.00000000000E+00  0.27382009168E+03  0.27382009168E+03  0.00000000000E+00 0.  1.
         21   -1    0    0  501  503 -0.00000000000E+00 -0.00000000000E+00 -0.15161744117E+03  0.15161744117E+03  0.00000000000E+00 0.  1.
          6    2    1    2  501    0  0.74879622144E+02  0.50075427402E+02 -0.19672909628E+01  0.19344187297E+03  0.17117646375E+03 0.  0.
         24    2    3    3    0    0  0.85040036537E+02 -0.11771143794E+02 -0.37157785483E+02  0.12140928802E+03  0.77389576531E+02 0.  0.
         -6    2    1    2    0  502 -0.74879622144E+02 -0.50075427402E+02  0.12416994148E+03  0.23199565989E+03  0.17403823027E+03 0.  0.
        -24    2    5    5    0    0 -0.97567594100E+01  0.17424182010E+02  0.10856809643E+03  0.13679748716E+03  0.80794334320E+02 0.  0.
          5    1    3    3  501    0 -0.10160414393E+02  0.61846571196E+02  0.35190494521E+02  0.72032584945E+02  0.47000000000E+01 0. -1.
        -13    1    4    4    0    0  0.55903522283E+02 -0.32117698287E+02  0.68596282161E+01  0.64836755364E+02  0.00000000000E+00 0.  1.
         14    1    4    4    0    0  0.29136514254E+02  0.20346554493E+02 -0.44017413699E+02  0.56572532658E+02  0.00000000000E+00 0. -1.
         -5    1    5    5    0  502 -0.65122862734E+02 -0.67499609412E+02  0.15601845050E+02  0.95198172726E+02  0.47000000000E+01 0.  1.
         13    1    6    6    0    0  0.20158517331E+02  0.61272155210E+01 -0.25007833118E+01  0.21217033444E+02  0.00000000000E+00 0. -1.
        -14    1    6    6    0    0 -0.29915276741E+02  0.11296966489E+02  0.11106887974E+03  0.11558045372E+03  0.00000000000E+00 0.  1.
</event>
<event>
12    1  0.8493057E-002  0.3045683E+03  0.7818608E-02  0.1083100E+00
         21   -1    0    0  501  502  0.00000000000E+00  0.00000000000E+00  0.11568593135E+04  0.11568593135E+04  0.00000000000E+00 0. -1.
         21   -1    0    0  502  503 -0.00000000000E+00 -0.00000000000E+00 -0.41660062973E+03  0.41660062973E+03  0.00000000000E+00 0. -1.
         -6    2    1    2    0  503  0.25039277117E+03 -0.11165023339E+02 -0.33723431660E+03  0.45374881085E+03  0.17128864952E+03 0.  0.
        -24    2    3    3    0    0  0.12400334308E+03 -0.19601460240E+01 -0.79741904734E+02  0.16672363867E+03  0.77828844597E+02 0.  0.
          6    2    1    2  501    0 -0.25039277117E+03  0.11165023339E+02  0.10774930004E+04  0.11197111324E+04  0.17303368603E+03 0.  0.
         24    2    5    5    0    0 -0.22812393246E+03  0.34830377244E+02  0.10463924938E+04  0.10744863420E+04  0.79561073394E+02 0.  0.
          5    1    5    5  501    0 -0.22268838716E+02 -0.23665353905E+02  0.31100506627E+02  0.45224790389E+02  0.47000000000E+01 0. -1.
        -11    1    6    6    0    0  0.13568160984E+01 -0.46367786075E+01  0.36318256444E+01  0.60440734022E+01  0.00000000000E+00 0.  1.
         12    1    6    6    0    0 -0.22948074856E+03  0.39467155852E+02  0.10427606681E+04  0.10684422686E+04  0.00000000000E+00 0. -1.
         -5    1    3    3    0  503  0.12638942809E+03 -0.92048773150E+01 -0.25749241187E+03  0.28702517219E+03  0.47000000000E+01 0.  1.
         11    1    4    4    0    0  0.77001413983E+02 -0.85227209819E+01 -0.89395651713E+02  0.11829385898E+03  0.00000000000E+00 0. -1.
        -12    1    4    4    0    0  0.47001929101E+02  0.65625749579E+01  0.96537469790E+01  0.48429779682E+02  0.00000000000E+00 0.  1.
</event>
<event>
12    1  0.8493057E-002  0.2067066E+03  0.7818608E-02  0.1144385E+00
         21   -1    0    0  501  502  0.00000000000E+00  0.00000000000E+00  0.25027524556E+04  0.25027524556E+04  0.00000000000E+00 0. -1.
         21   -1    0    0  502  503 -0.00000000000E+00 -0.00000000000E+00 -0.18807511935E+02  0.18807511935E+02  0.00000000000E+00 0. -1.
         -6    2    1    2    0  503 -0.69664599587E+02  0.90309980890E+02  0.85330758089E+03  0.87798716442E+03  0.17239078915E+03 0.  0.
        -24    2    3    3    0    0 -0.64887242257E+02 -0.97106374483E+01  0.33818788716E+03  0.35320403196E+03  0.77957619797E+02 0.  0.
          6    2    1    2  501    0  0.69664599587E+02 -0.90309980890E+02  0.16306373627E+04  0.16435728031E+04  0.17130178401E+03 0.  0.
         24    2    5    5    0    0  0.50713485692E+02 -0.90265173904E+02  0.66543145911E+03  0.67816942981E+03  0.79969303555E+02 0.  0.
          5    1    5    5  501    0  0.18951113894E+02 -0.44806986790E-01  0.96520590363E+03  0.96540337328E+03  0.47000000000E+01 0. -1.
        -13    1    6    6    0    0  0.16755625833E+02  0.59973480522E+01  0.32445788304E+02  0.37006058415E+02  0.00000000000E+00 0.  1.
         14    1    6    6    0    0  0.33957859859E+02 -0.96262521956E+02  0.63298567080E+03  0.64116337140E+03  0.00000000000E+00 0. -1.
         -5    1    3    3    0  503 -0.47773573293E+01  0.10002061834E+03  0.51511969374E+03  0.52478313246E+03  0.47000000000E+01 0.  1.
         13    1    4    4    0    0  0.12061138141E+02  0.91434177551E+00  0.92734146774E+01  0.15241499070E+02  0.00000000000E+00 0. -1.
        -14    1    4    4    0    0 -0.76948380398E+02 -0.10624979224E+02  0.32891447248E+03  0.33796253289E+03  0.00000000000E+00 0.  1.
</event>
<event>
12    1  0.8493057E-002  0.2270894E+03  0.7818608E-02  0.1130785E+00
         21   -1    0    0  501  502  0.00000000000E+00  0.00000000000E+00  0.32520771791E+03  0.32520771791E+03  0.00000000000E+00 0. -1.
         21   -1    0    0  502  503 -0.00000000000E+00 -0.00000000000E+00 -0.27187182344E+03  0.27187182344E+03  0.00000000000E+00 0. -1.
         -6    2    1    2    0  503  0.11306675179E+03  0.65331600794E+02 -0.17216389401E+03  0.28497367420E+03  0.18578826702E+03 0.  0.
        -24    2    3    3    0    0  0.42498018583E+02  0.63322574600E+02 -0.13240698988E+02  0.11101202840E+03  0.79577159426E+02 0.  0.
          6    2    1    2  501    0 -0.11306675179E+03 -0.65331600794E+02  0.22549978847E+03  0.31210586715E+03  0.17177779044E+03 0.  0.
         24    2    5    5    0    0 -0.13427791899E+02 -0.80239595425E+02  0.11409824351E+03  0.16183090300E+03  0.80945251395E+02 0.  0.
          5    1    5    5  501    0 -0.99638959889E+02  0.14907994631E+02  0.11140154496E+03  0.15027496415E+03  0.47000000000E+01 0. -1.
        -11    1    6    6    0    0 -0.59104692608E+00 -0.34664061849E+01 -0.12627851857E+02  0.13108316095E+02  0.00000000000E+00 0.  1.
         12    1    6    6    0    0 -0.12836744973E+02 -0.76773189240E+02  0.12672609537E+03  0.14872258690E+03  0.00000000000E+00 0. -1.
         -5    1    3    3    0  503  0.70568733206E+02  0.20090261940E+01 -0.15892319502E+03  0.17396164580E+03  0.47000000000E+01 0.  1.
         11    1    4    4    0    0  0.36500918756E+02  0.38096571501E+02 -0.45467762702E+02  0.69649000533E+02  0.00000000000E+00 0. -1.
        -12    1    4    4    0    0  0.59970998267E+01  0.25226003099E+02  0.32227063714E+02  0.41363027866E+02  0.00000000000E+00 0.  1.
</event>
<event>
12    1  0.8493057E-002  0.2676861E+03  0.7818608E-02  0.1102959E+00
         21   -1    0    0  503  502  0.00000000000E+00  0.00000000000E+00  0.85807878900E+03  0.85807878900E+03  0.00000000000E+00 0.  1.
         21   -1    0    0  501  503 -0.00000000000E+00 -0.00000000000E+00 -0.10078716494E+03  0.10078716494E+03  0.00000000000E+00 0. -1.
          6    2    1    2  501    0  0.11291623473E+03  0.17008230899E+03  0.17729827424E+03  0.32107717046E+03  0.17314099297E+03 0.  0.
         24    2    3    3    0    0 -0.71106335773E+01  0.39699391001E+02  0.74547803824E+02  0.11617254975E+03  0.79448621794E+02 0.  0.
         -6    2    1    2    0  502 -0.11291623473E+03 -0.17008230899E+03  0.57999334982E+03  0.63778878348E+03  0.16942307580E+03 0.  0.
        -24    2    5    5    0    0  0.80928164873E+00 -0.69934966606E+02  0.15874653356E+03  0.19009027616E+03  0.77732211340E+02 0.  0.
          5    1    3    3  501    0  0.12002686830E+03  0.13038291798E+03  0.10275047041E+03  0.20490462071E+03  0.47000000000E+01 0. -1.
        -13    1    4    4    0    0  0.20328112229E+02  0.12487235943E+02  0.73757750581E+02  0.77520119834E+02  0.00000000000E+00 0.  1.
         14    1    4    4    0    0 -0.27438745807E+02  0.27212155059E+02  0.79005324293E+00  0.38652429917E+02  0.00000000000E+00 0. -1.
         -5    1    5    5    0  502 -0.11372551637E+03 -0.10014734238E+03  0.42124681625E+03  0.44769850733E+03  0.47000000000E+01 0.  1.
         11    1    6    6    0    0  0.95948789282E+01 -0.86080948461E+01  0.11133125780E+03  0.11207501934E+03  0.00000000000E+00 0. -1.
        -12    1    6    6    0    0 -0.87855972795E+01 -0.61326871760E+02  0.47415275768E+02  0.78015256813E+02  0.00000000000E+00 0.  1.
</event>
<event>
12    1  0.8493057E-002  0.2659551E+03  0.7818608E-02  0.1103666E+00
         21   -1    0    0  501  502  0.00000000000E+00  0.00000000000E+00  0.14382582878E+04  0.14382582878E+04  0.00000000000E+00 0.  1.
         21   -1    0    0  502  503 -0.00000000000E+00 -0.00000000000E+00 -0.79020600607E+02  0.79020600607E+02  0.00000000000E+00 0.  1.
         -6    2    1    2    0  503 -0.17172768800E+02  0.20159638243E+03  0.21266117216E+03  0.34026154962E+03  0.17209631782E+03 0.  0.
        -24    2    3    3    0    0  0.15881498088E+02  0.78269451808E+02  0.17312401867E+03  0.20651779133E+03  0.79368401937E+02 0.  0.
          6    2    1    2  501    0  0.17172768800E+02 -0.20159638243E+03  0.11465765151E+04  0.11770173388E+04  0.17261548481E+03 0.  0.
         24    2    5    5    0    0  0.44428224408E+02 -0.12470892212E+03  0.45121211042E+03  0.47686857844E+03  0.79278560390E+02 0.  0.
          5    1    5    5  501    0 -0.27255455609E+02 -0.76887460310E+02  0.69536440465E+03  0.70014876039E+03  0.47000000000E+01 0. -1.
        -11    1    6    6    0    0  0.27847929365E+01 -0.71438747429E+02  0.33387590088E+03  0.34144452975E+03  0.00000000000E+00 0.  1.
         12    1    6    6    0    0  0.41643431472E+02 -0.53270174688E+02  0.11733620954E+03  0.13542404869E+03  0.00000000000E+00 0. -1.
         -5    1    3    3    0  503 -0.33054266888E+02  0.12332693062E+03  0.39537153492E+02  0.13374375829E+03  0.47000000000E+01 0.  1.
         13    1    4    4    0    0  0.48591911888E+01  0.93570717622E+02  0.14614518461E+03  0.17360157234E+03  0.00000000000E+00 0. -1.
        -14    1    4    4    0    0  0.11022306899E+02 -0.15301265814E+02  0.26978834066E+02  0.32916218988E+02  0.00000000000E+00 0.  1.
</event>
<event>
12    1  0.8493057E-002  0.2043198E+03  0.7818608E-02  0.1146244E+00
         21   -1    0    0  501  502  0.00000000000E+00  0.00000000000E+00  0.10001421385E+03  0.10001421385E+03  0.00000000000E+00 0. -1.
         21   -1    0    0  502  503 -0.00000000000E+00 -0.00000000000E+00 -0.55054962086E+03  0.55054962086E+03  0.00000000000E+00 0. -1.
         -6    2    1    2    0  503  0.90364345654E-02 -0.11055068054E+03 -0.38561961182E+03  0.43617946127E+03  0.17125590316E+03 0.  0.
        -24    2    3    3    0    0  0.46121343450E+01 -0.48146298116E+01 -0.25875382620E+03  0.27089691986E+03  0.79919623214E+02 0.  0.
          6    2    1    2  501    0 -0.90364345654E-02  0.11055068054E+03 -0.64915795188E+02  0.21438437343E+03  0.17182882778E+03 0.  0.
         24    2    5    5    0    0  0.34823652412E+02  0.10650234489E+03  0.33908410537E+01  0.13745848840E+03  0.79548111197E+02 0.  0.
          5    1    5    5  501    0 -0.34832688846E+02  0.40483356517E+01 -0.68306636241E+02  0.76925885035E+02  0.47000000000E+01 0. -1.
        -11    1    6    6    0    0 -0.17457970634E+02  0.76372547346E+01 -0.14830053282E+02  0.24146198021E+02  0.00000000000E+00 0.  1.
         12    1    6    6    0    0  0.52281623046E+02  0.98865090157E+02  0.18220894335E+02  0.11331229038E+03  0.00000000000E+00 0. -1.
         -5    1    3    3    0  503 -0.46030979104E+01 -0.10573605073E+03 -0.12686578562E+03  0.16528254141E+03  0.47000000000E+01 0.  1.
         11    1    4    4    0    0 -0.13300060690E+02 -0.38951260745E+02 -0.14845920776E+03  0.15405917271E+03  0.00000000000E+00 0. -1.
        -12    1    4    4    0    0  0.17912195035E+02  0.34136630933E+02 -0.11029461844E+03  0.11683774715E+03  0.00000000000E+00 0.  1.
</event>
<event>
12    1  0.8493057E-002  0.1716963E+03  0.7818608E-02  0.1176233E+00
         21   -1    0    0  503  502  0.00000000000E+00  0.00000000000E+00  0.39988490090E+02  0.39988490090E+02  0.00000000000E+00 0.  1.
         21   -1    0    0  501  503 -0.00000000000E+00 -0.00000000000E+00 -0.11748913540E+04  0.11748913540E+04  0.00000000000E+00 0.  1.
          6    2    1    2  501    0  0.47408569773E+01 -0.16980838139E+02 -0.93978291808E+03  0.95533844982E+03  0.17078874674E+03 0.  0.
         24    2    3    3    0    0 -0.20813527939E+02 -0.51165112453E+02 -0.85382814244E+03  0.85925564879E+03  0.79036077114E+02 0.  0.
         -6    2    1    2    0  502 -0.47408569773E+01  0.16980838139E+02 -0.19511994586E+03  0.25954139429E+03  0.17023253946E+03 0.  0.
        -24    2    5    5    0    0  0.14548829372E+02 -0.34932485685E+02 -0.41942428524E+02  0.96591932780E+02  0.78351050890E+02 0.  0.
          5    1    3    3  501    0  0.25554384916E+02  0.34184274314E+02 -0.85954775637E+02  0.96082801029E+02  0.47000000000E+01 0. -1.
        -11    1    4    4    0    0 -0.41558938316E+02 -0.34862282796E+01 -0.28182723073E+03  0.28489627433E+03  0.00000000000E+00 0.  1.
         12    1    4    4    0    0  0.20745410377E+02 -0.47678884173E+02 -0.57200091170E+03  0.57435937447E+03  0.00000000000E+00 0. -1.
         -5    1    5    5    0  502 -0.19289686350E+02  0.51913323825E+02 -0.15317751734E+03  0.16294946151E+03  0.47000000000E+01 0.  1.
         13    1    6    6    0    0 -0.11192688679E+02 -0.11991804139E+02 -0.56744995432E+02  0.59068385393E+02  0.00000000000E+00 0. -1.
        -14    1    6    6    0    0  0.25741518051E+02 -0.22940681546E+02  0.14802566909E+02  0.37523547387E+02  0.00000000000E+00 0.  1.
</event>
<event>
12    1  0.8493057E-002  0.3682563E+03  0.7818608E-02  0.1055394E+00
         21   -1    0    0  501  502  0.00000000000E+00  0.00000000000E+00  0.49796734195E+03  0.49796734195E+03  0.00000000000E+00 0. -1.
         21   -1    0    0  502  503 -0.00000000000E+00 -0.00000000000E+00 -0.27455821614E+03  0.27455821614E+03  0.00000000000E+00 0.  1.
         -6    2    1    2    0  503  0.59834392013E+02 -0.32014896737E+03  0.14843918192E+03  0.39704773071E+03  0.17186388205E+03 0.  0.
        -24    2    3    3    0    0  0.99328959703E+02 -0.18341282284E+03  0.11122812872E+03  0.24986299448E+03  0.80952539018E+02 0.  0.
          6    2    1    2  501    0 -0.59834392013E+02  0.32014896737E+03  0.74969943882E+02  0.37547782739E+03  0.17113617560E+03 0.  0.
         24    2    5    5    0    0 -0.60927187543E+02  0.32686256294E+03  0.94230355135E+02  0.35451786534E+03  0.79071485285E+02 0.  0.
          5    1    5    5  501    0  0.10927955300E+01 -0.67135955668E+01 -0.19260411253E+02  0.20959962050E+02  0.47000000000E+01 0. -1.
        -13    1    6    6    0    0 -0.43047071474E+02  0.19536147910E+03  0.16520533422E+02  0.20072888657E+03  0.00000000000E+00 0.  1.
         14    1    6    6    0    0 -0.17880116069E+02  0.13150108384E+03  0.77709821713E+02  0.15378897877E+03  0.00000000000E+00 0. -1.
         -5    1    3    3    0  503 -0.39494567690E+02 -0.13673614453E+03  0.37211053201E+02  0.14718473622E+03  0.47000000000E+01 0.  1.
         11    1    4    4    0    0  0.29945272865E+02 -0.13698930186E+03  0.71837622999E+02  0.15755453744E+03  0.00000000000E+00 0. -1.
        -12    1    4    4    0    0  0.69383686838E+02 -0.46423520984E+02  0.39390505723E+02  0.92308457039E+02  0.00000000000E+00 0.  1.
</event>
<event>
12    1  0.8493057E-002  0.2211448E+03  0.7818608E-02  0.1133154E+00
         21   -1    0    0  503  502  0.00000000000E+00  0.00000000000E+00  0.90713512009E+03  0.90713512009E+03  0.00000000000E+00 0.  1.
         21   -1    0    0  501  503 -0.00000000000E+00 -0.00000000000E+00 -0.56609017764E+02  0.56609017764E+02  0.00000000000E+00 0. -1.
          6    2    1    2  501    0 -0.11578733887E+03  0.74967970443E+02  0.53292049662E+03  0.57673203891E+03  0.17201361736E+03 0.  0.
         24    2    3    3    0    0 -0.92704167092E+01  0.48524086263E+02  0.16929425813E+03  0.19687513818E+03  0.87514265262E+02 0.  0.
         -6    2    1    2    0  502  0.11578733887E+03 -0.74967970443E+02  0.31760560571E+03  0.38701209894E+03  0.17285294188E+03 0.  0.
        -24    2    5    5    0    0  0.10580852394E+03 -0.85133263491E+02  0.14564209329E+03  0.21439561788E+03  0.79440199759E+02 0.  0.
          5    1    3    3  501    0 -0.10651692216E+03  0.26443884181E+02  0.36362623849E+03  0.37985690073E+03  0.47000000000E+01 0. -1.
        -13    1    4    4    0    0 -0.88902116257E+01 -0.19534644284E+02  0.89312268839E+02  0.91854883132E+02  0.00000000000E+00 0.  1.
         14    1    4    4    0    0 -0.38020508349E+00  0.68058730547E+02  0.79981989292E+02  0.10502025505E+03  0.00000000000E+00 0. -1.
         -5    1    5    5    0  502  0.99788149213E+01  0.10165293047E+02  0.17196351242E+03  0.17261648106E+03  0.47000000000E+01 0.  1.
         13    1    6    6    0    0  0.46951386386E+02 -0.41637587267E+02  0.12250059758E+03  0.13763908516E+03  0.00000000000E+00 0. -1.
        -14    1    6    6    0    0  0.58857137558E+02 -0.43495676223E+02  0.23141495711E+02  0.76756532721E+02  0.00000000000E+00 0.  1.
</event>
<event>
12    1  0.8493057E-002  0.2326135E+03  0.7818608E-02  0.1124932E+00
         21   -1    0    0  503  502  0.00000000000E+00  0.00000000000E+00  0.86570570690E+02  0.86570570690E+02  0.00000000000E+00 0. -1.
         21   -1    0    0  501  503 -0.00000000000E+00 -0.00000000000E+00 -0.65638650612E+03  0.65638650612E+03  0.00000000000E+00 0. -1.
          6    2    1    2  501    0  0.15095565693E+03 -0.37670694802E+02 -0.36884279026E+03  0.43606654757E+03  0.17292292612E+03 0.  0.
         24    2    3    3    0    0  0.15449007660E+03 -0.47367223373E+01 -0.20380144054E+03  0.26766857911E+03  0.78878519062E+02 0.  0.
         -6    2    1    2    0  502 -0.15095565693E+03  0.37670694802E+02 -0.20097314517E+03  0.30689052924E+03  0.17200261698E+03 0.  0.
        -24    2    5    5    0    0 -0.12861271156E+02  0.38743272616E+02 -0.11052001026E+03  0.14173887342E+03  0.78795825397E+02 0.  0.
          5    1    3    3  501    0 -0.35344196714E+01 -0.32933972465E+02 -0.16504134972E+03  0.16839796846E+03  0.47000000000E+01 0. -1.
        -13    1    4    4    0    0  0.71723871815E+02  0.32431832989E+02 -0.66223298291E+02  0.10286720962E+03  0.00000000000E+00 0.  1.
         14    1    4    4    0    0  0.82766204788E+02 -0.37168555326E+02 -0.13757814225E+03  0.16480136949E+03  0.00000000000E+00 0. -1.
         -5    1    5    5    0  502 -0.13809438578E+03 -0.10725778131E+01 -0.90453134907E+02  0.16515165582E+03  0.47000000000E+01 0.  1.
         13    1    6    6    0    0 -0.39127343489E+02  0.47046313379E+02 -0.76878088424E+02  0.98257544702E+02  0.00000000000E+00 0. -1.
        -14    1    6    6    0    0  0.26266072333E+02 -0.83030407635E+01 -0.33641921841E+02  0.43481328716E+02  0.00000000000E+00 0.  1.
</event>
<event>
12    1  0.8493057E-002  0.1728494E+03  0.7818608E-02  0.1174970E+00
         21   -1    0    0  503  502  0.00000000000E+00  0.00000000000E+00  0.14957855006E+04  0.14957855006E+04  0.00000000000E+00 0. -1.
         21   -1    0    0  501  503 -0.00000000000E+00 -0.00000000000E+00 -0.33170617706E+02  0.33170617706E+02  0.00000000000E+00 0. -1.
          6    2    1    2  501    0 -0.78406416302E+01  0.16530248696E+02  0.24830128803E+03  0.30240223852E+03  0.17163583380E+03 0.  0.
         24    2    3    3    0    0 -0.39113865440E+02 -0.33845788959E+01  0.25013071821E+03  0.26498497378E+03  0.78168473790E+02 0.  0.
         -6    2    1    2    0  502  0.78406416302E+01 -0.16530248696E+02  0.12143135949E+04  0.12265538798E+04  0.17187841213E+03 0.  0.
        -24    2    5    5    0    0  0.71282873613E+02 -0.20251331197E+02  0.88447325371E+03  0.89061414723E+03  0.73547659616E+02 0.  0.
          5    1    3    3  501    0  0.31273223809E+02  0.19914827592E+02 -0.18294301851E+01  0.37417264735E+02  0.47000000000E+01 0. -1.
        -13    1    4    4    0    0 -0.86022399072E+01 -0.20495901824E+02  0.21229459514E+03  0.21345509048E+03  0.00000000000E+00 0.  1.
         14    1    4    4    0    0 -0.30511625532E+02  0.17111322928E+02  0.37836123069E+02  0.51529883310E+02  0.00000000000E+00 0. -1.
         -5    1    5    5    0  502 -0.63442231982E+02  0.37210825004E+01  0.32984034115E+03  0.33593973254E+03  0.47000000000E+01 0.  1.
         13    1    6    6    0    0  0.40944656703E+02 -0.48131755503E+02  0.54178212683E+03  0.54545485950E+03  0.00000000000E+00 0. -1.
        -14    1    6    6    0    0  0.30338216910E+02  0.27880424306E+02  0.34269112688E+03  0.34515928773E+03  0.00000000000E+00 0.  1.
</event>
<event>
12    1  0.8493057E-002  0.1911889E+03  0.7818608E-02  0.1157529E+00
         21   -1    0    0  501  502  0.00000000000E+00  0.00000000000E+00  0.48357345575E+02  0.48357345575E+02  0.00000000000E+00 0.  1.
         21   -1    0    0  502  503 -0.00000000000E+00 -0.00000000000E+00 -0.75534926325E+03  0.75534926325E+03  0.00000000000E+00 0.  1.
         -6    2    1    2    0  503 -0.45756058540E+02 -0.65068531787E+02 -0.37275562074E+03  0.41865192480E+03  0.17319108125E+03 0.  0.
        -24    2    3    3    0    0 -0.46176438769E+02  0.22414288850E+02 -0.25339768214E+03  0.27059170688E+03  0.79842486639E+02 0.  0.
          6    2    1    2  501    0  0.45756058540E+02  0.65068531787E+02 -0.33423629694E+03  0.38505468402E+03  0.17385533290E+03 0.  0.
         24    2    5    5    0    0 -0.38539967782E+02  0.60554810946E+02 -0.19111641090E+03  0.21882717274E+03  0.78788544647E+02 0.  0.
          5    1    5    5  501    0  0.84296026323E+02  0.45137208406E+01 -0.14311988604E+03  0.16622751129E+03  0.47000000000E+01 0. -1.
        -13    1    6    6    0    0 -0.47430918869E+02  0.38002670922E+02 -0.59700597458E+02  0.85194227497E+02  0.00000000000E+00 0.  1.
         14    1    6    6    0    0  0.88909510873E+01  0.22552140024E+02 -0.13141581344E+03  0.13363294524E+03  0.00000000000E+00 0. -1.
         -5    1    3    3    0  503  0.42038022896E+00 -0.87482820636E+02 -0.11935793859E+03  0.14806021792E+03  0.47000000000E+01 0.  1.
         11    1    4    4    0    0  0.10139790444E+02  0.16613366779E+02 -0.16140318626E+03  0.16257246950E+03  0.00000000000E+00 0. -1.
        -12    1    4    4    0    0 -0.56316229213E+02  0.58009220706E+01 -0.91994495888E+02  0.10801923738E+03  0.00000000000E+00 0.  1.
</event>
<event>
12    1  0.8493057E-002  0.1780264E+03  0.7818608E-02  0.1170064E+00
         21   -1    0    0  501  502  0.00000000000E+00  0.00000000000E+00  0.52658105556E+03  0.52658105556E+03  0.00000000000E+00 0.  1.
         21   -1    0    0  502  503 -0.00000000000E+00 -0.00000000000E+00 -0.74687494651E+02  0.74687494651E+02  0.00000000000E+00 0.  1.
         -6    2    1    2    0  503 -0.77142200395E+01  0.45731212392E+02  0.92087209246E+02  0.20043319107E+03  0.17187948393E+03 0.  0.
        -24    2    3    3    0    0  0.26557835421E+02  0.36093568851E+01  0.11416905717E+03  0.14162398682E+03  0.79400465655E+02 0.  0.
          6    2    1    2  501    0  0.77142200395E+01 -0.45731212392E+02  0.35980635166E+03  0.40083535914E+03  0.17046266883E+03 0.  0.
         24    2    5    5    0    0 -0.72240395994E+00 -0.84193910517E+02  0.33004760001E+03  0.35125482797E+03  0.85786942271E+02 0.  0.
          5    1    5    5  501    0  0.84366239994E+01  0.38462698125E+02  0.29758751656E+02  0.49580531176E+02  0.47000000000E+01 0. -1.
        -11    1    6    6    0    0 -0.41426769506E+02 -0.29895598461E+02  0.11718653705E+03  0.12783821222E+03  0.00000000000E+00 0.  1.
         12    1    6    6    0    0  0.40704365546E+02 -0.54298312055E+02  0.21286106296E+03  0.22341661574E+03  0.00000000000E+00 0. -1.
         -5    1    3    3    0  503 -0.34272055461E+02  0.42121855507E+02 -0.22081847928E+02  0.58809204252E+02  0.47000000000E+01 0.  1.
         11    1    4    4    0    0  0.43227991422E+01 -0.20766495712E+02 -0.15742256181E+01  0.21269981732E+02  0.00000000000E+00 0. -1.
        -12    1    4    4    0    0  0.22235036279E+02  0.24375852598E+02  0.11574328279E+03  0.12035400508E+03  0.00000000000E+00 0.  1.
</event>
<event>
12    1  0.8493057E-002  0.1961194E+03  0.7818608E-02  0.1153063E+00
         21   -1    0    0  503  502  0.00000000000E+00  0.00000000000E+00  0.92723339310E+03  0.92723339310E+03  0.00000000000E+00 0.  1.
         21   -1    0    0  501  503 -0.00000000000E+00 -0.00000000000E+00 -0.43573852677E+02  0.43573852677E+02  0.00000000000E+00 0.  1.
          6    2    1    2  501    0 -0.82979056959E+02 -0.43455503498E+02  0.54842968678E+03  0.58244136815E+03  0.17230473385E+03 0.  0.
         24    2    3    3    0    0 -0.84349752711E+02  0.27081561686E+02  0.40397438982E+03  0.42160984390E+03  0.81922286803E+02 0.  0.
         -6    2    1    2    0  502  0.82979056959E+02  0.43455503498E+02  0.33522985364E+03  0.38836587763E+03  0.17226460884E+03 0.  0.
        -24    2    5    5    0    0  0.65554087509E+02  0.93136635663E+02  0.27591521224E+03  0.30891676726E+03  0.79552457282E+02 0.  0.
          5    1    3    3  501    0  0.13706957511E+01 -0.70537065184E+02  0.14445529696E+03  0.16083152424E+03  0.47000000000E+01 0. -1.
        -11    1    4    4    0    0 -0.20798857384E+02 -0.17456722619E+02  0.33639406279E+02  0.43231230469E+02  0.00000000000E+00 0.  1.
         12    1    4    4    0    0 -0.63550895327E+02  0.44538284305E+02  0.37033498354E+03  0.37837861343E+03  0.00000000000E+00 0. -1.
         -5    1    5    5    0  502  0.17424969450E+02 -0.49681132165E+02  0.59314641406E+02  0.79449110370E+02  0.47000000000E+01 0.  1.
         13    1    6    6    0    0  0.31769654104E+01  0.41040072753E+02  0.32971704970E+02  0.52740060765E+02  0.00000000000E+00 0. -1.
        -14    1    6    6    0    0  0.62377122099E+02  0.52096562910E+02  0.24294350727E+03  0.25617670650E+03  0.00000000000E+00 0.  1.
</event>
<event>
12    1  0.8493057E-002  0.2023191E+03  0.7818608E-02  0.1147872E+00
         21   -1    0    0  501  502  0.00000000000E+00  0.00000000000E+00  0.22979538780E+03  0.22979538780E+03  0.00000000000E+00 0. -1.
         21   -1    0    0  502  503 -0.00000000000E+00 -0.00000000000E+00 -0.18510651518E+03  0.18510651518E+03  0.00000000000E+00 0.  1.
         -6    2    1    2    0  503  0.10681598458E+02  0.10693745558E+03 -0.18823526314E+02  0.20319286836E+03  0.17141557881E+03 0.  0.
        -24    2    3    3    0    0 -0.30622288467E+01 -0.50014958372E+01 -0.40643908404E+02  0.88225739548E+02  0.78086244771E+02 0.  0.
          6    2    1    2  501    0 -0.10681598458E+02 -0.10693745558E+03  0.63512398936E+02  0.21170903462E+03  0.17098881416E+03 0.  0.
         24    2    5    5    0    0  0.21944998106E+02 -0.41465055600E+01 -0.44889234438E+01  0.84128691089E+02  0.80985861609E+02 0.  0.
          5    1    5    5  501    0 -0.32626596564E+02 -0.10279095002E+03  0.68001322380E+02  0.12758034353E+03  0.47000000000E+01 0. -1.
        -11    1    6    6    0    0 -0.66747192582E+01  0.33469792022E+02 -0.12187831002E+02  0.36239785867E+02  0.00000000000E+00 0.  1.
         12    1    6    6    0    0  0.28619717364E+02 -0.37616297582E+02  0.76989075577E+01  0.47888905222E+02  0.00000000000E+00 0. -1.
         -5    1    3    3    0  503  0.13743827305E+02  0.11193895142E+03  0.21820382090E+02  0.11496712882E+03  0.47000000000E+01 0.  1.
         13    1    4    4    0    0 -0.32339653173E+02 -0.83747072832E+01  0.51168602608E+01  0.33796022670E+02  0.00000000000E+00 0. -1.
        -14    1    4    4    0    0  0.29277424326E+02  0.33732114460E+01 -0.45760768665E+02  0.54429716878E+02  0.00000000000E+00 0.  1.
</event>
<event>
12    1  0.8493057E-002  0.1982911E+03  0.7818608E-02  0.1151692E+00
         21   -1    0    0  503  502  0.00000000000E+00  0.00000000000E+00  0.58390615590E+02  0.58390615590E+02  0.00000000000E+00 0.  1.
         21   -1    0    0  501  503 -0.00000000000E+00 -0.00000000000E+00 -0.71413719394E+03  0.71413719394E+03  0.00000000000E+00 0. -1.
          6    2    1    2  501    0  0.10032723335E+03  0.17823095057E+02 -0.22519480328E+03  0.29850862789E+03  0.16736631989E+03 0.  0.
         24    2    3    3    0    0  0.84112812118E+02  0.73583578913E+02 -0.15349239532E+03  0.20612105122E+03  0.80227576853E+02 0.  0.
         -6    2    1    2    0  502 -0.10032723335E+03 -0.17823095057E+02 -0.43055177507E+03  0.47401918164E+03  0.17010625232E+03 0.  0.
        -24    2    5    5    0    0 -0.30887839361E+02 -0.29480225483E+02 -0.37040535323E+03  0.38129701500E+03  0.79775595453E+02 0.  0.
          5    1    3    3  501    0  0.16214421229E+02 -0.55760483856E+02 -0.71702407962E+02  0.92387576671E+02  0.47000000000E+01 0. -1.
        -13    1    4    4    0    0 -0.33486159013E+01  0.77239699643E+01  0.76021727876E+01  0.11343102378E+02  0.00000000000E+00 0.  1.
         14    1    4    4    0    0  0.87461428019E+02  0.65859608949E+02 -0.16109456811E+03  0.19477794884E+03  0.00000000000E+00 0. -1.
         -5    1    5    5    0  502 -0.69439393986E+02  0.11657130425E+02 -0.60146421846E+02  0.92722166647E+02  0.47000000000E+01 0.  1.
         13    1    6    6    0    0 -0.30740522216E+02 -0.42996210813E+02 -0.12757390089E+03  0.13808965942E+03  0.00000000000E+00 0. -1.
        -14    1    6    6    0    0 -0.14731714504E+00  0.13515985330E+02 -0.24283145234E+03  0.24320735557E+03  0.00000000000E+00 0.  1.
</event>
<event>
12    1  0.8493057E-002  0.1916573E+03  0.7818608E-02  0.1158118E+00
         21   -1    0    0  501  502  0.00000000000E+00  0.00000000000E+00  0.10204528603E+03  0.10204528603E+03  0.00000000000E+00 0.  1.
         21   -1    0    0  502  503 -0.00000000000E+00 -0.00000000000E+00 -0.37482797900E+03  0.37482797900E+03  0.00000000000E+00 0.  1.
         -6    2    1    2    0  503  0.73335996040E+02  0.43431388979E+02 -0.19538287419E+03  0.27017726781E+03  0.16600251399E+03 0.  0.
        -24    2    3    3    0    0  0.11390598641E+03  0.22661824590E+02 -0.15980873215E+03  0.21216943639E+03  0.77388027711E+02 0.  0.
          6    2    1    2  501    0 -0.73335996040E+02 -0.43431388979E+02 -0.77399818784E+02  0.20669599722E+03  0.17166260354E+03 0.  0.
         24    2    5    5    0    0  0.21869448419E+02 -0.32342690991E+01 -0.57682938158E+02  0.10138346006E+03  0.80389995323E+02 0.  0.
          5    1    5    5  501    0 -0.95205444460E+02 -0.40197119880E+02 -0.19716880626E+02  0.10531253716E+03  0.47000000000E+01 0. -1.
        -11    1    6    6    0    0  0.42270866204E+02 -0.20358162452E+02 -0.11879226726E+02  0.48398315422E+02  0.00000000000E+00 0.  1.
         12    1    6    6    0    0 -0.20401417784E+02  0.17123893353E+02 -0.45803711432E+02  0.52985144636E+02  0.00000000000E+00 0. -1.
         -5    1    3    3    0  503 -0.40569990373E+02  0.20769564389E+02 -0.35574142043E+02  0.58007831418E+02  0.47000000000E+01 0.  1.
         13    1    4    4    0    0 -0.93722353246E+01  0.32199619902E+01 -0.67305900194E+00  0.99327719504E+01  0.00000000000E+00 0. -1.
        -14    1    4    4    0    0  0.12327822174E+03  0.19441862600E+02 -0.15913567315E+03  0.20223666444E+03  0.00000000000E+00 0.  1.
</event>
<event>
12    1  0.8493057E-002  0.1851847E+03  0.7818608E-02  0.1162891E+00
         21   -1    0    0  501  502  0.00000000000E+00  0.00000000000E+00  0.14763957891E+03  0.14763957891E+03  0.00000000000E+00 0. -1.
         21   -1    0    0  502  503 -0.00000000000E+00 -0.00000000000E+00 -0.84337858883E+03  0.84337858883E+03  0.00000000000E+00 0. -1.
         -6    2    1    2    0  503  0.39691771133E+01 -0.69770422174E+02 -0.76967008847E+03  0.79162114208E+03  0.17143022293E+03 0.  0.
        -24    2    3    3    0    0 -0.31960381617E+02 -0.43797192849E+02 -0.71303068693E+03  0.71954025946E+03  0.79910977958E+02 0.  0.
          6    2    1    2  501    0 -0.39691771133E+01  0.69770422174E+02  0.73931078546E+02  0.19939702566E+03  0.17149257503E+03 0.  0.
         24    2    5    5    0    0 -0.26997328205E+02 -0.38920565467E+01  0.88869641525E+02  0.12064610708E+03  0.76900364980E+02 0.  0.
          5    1    5    5  501    0  0.23028151092E+02  0.73662478720E+02 -0.14938562980E+02  0.78750918584E+02  0.47000000000E+01 0. -1.
        -11    1    6    6    0    0  0.48831973843E+01 -0.34726436329E+02  0.25770891188E+02  0.43519074317E+02  0.00000000000E+00 0.  1.
         12    1    6    6    0    0 -0.31880525590E+02  0.30834379782E+02  0.63098750337E+02  0.77127032761E+02  0.00000000000E+00 0. -1.
         -5    1    3    3    0  503  0.35929558730E+02 -0.25973229325E+02 -0.56639401541E+02  0.72080882618E+02  0.47000000000E+01 0.  1.
         13    1    4    4    0    0  0.86726570710E+01 -0.98356389432E+01 -0.49488485092E+03  0.49505855254E+03  0.00000000000E+00 0. -1.
        -14    1    4    4    0    0 -0.40633038688E+02 -0.33961553905E+02 -0.21814583601E+03  0.22448170693E+03  0.00000000000E+00 0.  1.
</event>
<event>
12    1  0.8493057E-002  0.1968521E+03  0.7818608E-02  0.1152551E+00
         21   -1    0    0  503  502  0.00000000000E+00  0.00000000000E+00  0.11470611346E+04  0.11470611346E+04  0.00000000000E+00 0.  1.
         21   -1    0    0  501  503 -0.00000000000E+00 -0.00000000000E+00 -0.41568767144E+02  0.41568767144E+02  0.00000000000E+00 0.  1.
          6    2    1    2  501    0  0.95165753254E+02  0.48386957320E+01  0.29452586319E+03  0.35425449563E+03  0.17225222791E+03 0.  0.
         24    2    3    3    0    0  0.98602034829E+02  0.27690599721E+02  0.30632694975E+03  0.32788456596E+03  0.56417708830E+02 0.  0.
         -6    2    1    2    0  502 -0.95165753254E+02 -0.48386957320E+01  0.81096650426E+03  0.83437540611E+03  0.17156839369E+03 0.  0.
        -24    2    5    5    0    0 -0.48589262158E+01  0.47923901690E+02  0.37328926129E+03  0.38435021380E+03  0.77845389944E+02 0.  0.
          5    1    3    3  501    0 -0.34362815746E+01 -0.22851903989E+02 -0.11801086556E+02  0.26369929672E+02  0.47000000000E+01 0. -1.
        -13    1    4    4    0    0  0.92762895402E+02  0.27111183090E+02  0.20770334967E+03  0.22908656110E+03  0.00000000000E+00 0.  1.
         14    1    4    4    0    0  0.58391394260E+01  0.57941663145E+00  0.98623600072E+02  0.98798004859E+02  0.00000000000E+00 0. -1.
         -5    1    5    5    0  502 -0.90306827038E+02 -0.52762597422E+02  0.43767724297E+03  0.45002519231E+03  0.47000000000E+01 0.  1.
         11    1    6    6    0    0 -0.20429034442E+02  0.12758234349E+02  0.28034695970E+02  0.36960278274E+02  0.00000000000E+00 0. -1.
        -12    1    6    6    0    0  0.15570108226E+02  0.35165667341E+02  0.34525456532E+03  0.34738993552E+03  0.00000000000E+00 0.  1.
</event>
<event>
12    1  0.8493057E-002  0.3407860E+03  0.7818608E-02  0.1066656E+00
         21   -1    0    0  503  502  0.00000000000E+00  0.00000000000E+00  0.50589643116E+03  0.50589643116E+03  0.00000000000E+00 0. -1.
         21   -1    0    0  501  503 -0.00000000000E+00 -0.00000000000E+00 -0.18060185386E+04  0.18060185386E+04  0.00000000000E+00 0.  1.
          6    2    1    2  501    0  0.24639719819E+03 -0.16054484630E+03 -0.17302550540E+04  0.17631440870E+04  0.16854759799E+03 0.  0.
         24    2    3    3    0    0  0.25928785591E+03 -0.16501282849E+03 -0.17034933792E+04  0.17327399893E+04  0.77709405667E+02 0.  0.
         -6    2    1    2    0  502 -0.24639719819E+03  0.16054484630E+03  0.43013294662E+03  0.54877088267E+03  0.17218856802E+03 0.  0.
        -24    2    5    5    0    0 -0.51675235046E+02  0.96405815378E+02  0.18538955771E+03  0.22947184629E+03  0.79521248599E+02 0.  0.
          5    1    3    3  501    0 -0.12890657721E+02  0.44679821945E+01 -0.26761674843E+02  0.30404097779E+02  0.47000000000E+01 0. -1.
        -11    1    4    4    0    0  0.11852453716E+03 -0.12049527170E+03 -0.86788754056E+03  0.88419226386E+03  0.00000000000E+00 0.  1.
         12    1    4    4    0    0  0.14076331874E+03 -0.44517556786E+02 -0.83560583861E+03  0.84854772540E+03  0.00000000000E+00 0. -1.
         -5    1    5    5    0  502 -0.19472196314E+03  0.64139030918E+02  0.24474338891E+03  0.31929903638E+03  0.47000000000E+01 0.  1.
         13    1    6    6    0    0 -0.71899199085E+02  0.79284943596E+02  0.16178868451E+03  0.19398756544E+03  0.00000000000E+00 0. -1.
        -14    1    6    6    0    0  0.20223964039E+02  0.17120871782E+02  0.23600873200E+02  0.35484280855E+02  0.00000000000E+00 0.  1.
</event>
<event>
12    1  0.8493057E-002  0.1834223E+03  0.7818608E-02  0.1164712E+00
         21   -1    0    0  503  502  0.00000000000E+00  0.00000000000E+00  0.12216252790E+04  0.12216252790E+04  0.00000000000E+00 0.  1.
         21   -1    0    0  501  503 -0.00000000000E+00 -0.00000000000E+00 -0.29285652016E+02  0.29285652016E+02  0.00000000000E+00 0.  1.
          6    2    1    2  501    0 -0.53644553648E+02 -0.23296390793E+02  0.43971007154E+03  0.47643328607E+03  0.17384840839E+03 0.  0.
         24    2    3    3    0    0  0.14305183631E+02  0.40358640997E+02  0.20553994968E+03  0.22438792142E+03  0.79182132983E+02 0.  0.
         -6    2    1    2    0  502  0.53644553648E+02  0.23296390793E+02  0.75262955543E+03  0.77447764493E+03  0.17304310109E+03 0.  0.
        -24    2    5    5    0    0  0.17023685103E+02  0.66337964991E+02  0.28663938247E+03  0.30504969900E+03  0.78756916058E+02 0.  0.
          5    1    3    3  501    0 -0.67949737280E+02 -0.63655031790E+02  0.23417012186E+03  0.25204536465E+03  0.47000000000E+01 0. -1.
        -11    1    4    4    0    0 -0.19303503514E+02  0.50836468687E+02  0.13533006687E+03  0.14584649051E+03  0.00000000000E+00 0.  1.
         12    1    4    4    0    0  0.33608687145E+02 -0.10477827690E+02  0.70209882812E+02  0.78541430909E+02  0.00000000000E+00 0. -1.
         -5    1    5    5    0  502  0.36620868546E+02 -0.43041574199E+02  0.46599017296E+03  0.46942794593E+03  0.47000000000E+01 0.  1.
         13    1    6    6    0    0 -0.26288825479E+01  0.29287311560E+02  0.24207213886E+03  0.24385154921E+03  0.00000000000E+00 0. -1.
        -14    1    6    6    0    0  0.19652567651E+02  0.37050653431E+02  0.44567243610E+02  0.61198149792E+02  0.00000000000E+00 0.  1.
</event>
<event>
12    1  0.8493057E-002  0.1873211E+03  0.7818608E-02  0.1161477E+00
         21   -1    0    0  503  502  0.00000000000E+00  0.00000000000E+00  0.15072800501E+03  0.15072800501E+03  0.00000000000E+00 0.  1.
         21   -1    0    0  501  503 -0.00000000000E+00 -0.00000000000E+00 -0.25336736786E+03  0.25336736786E+03  0.00000000000E+00 0. -1.
          6    2    1    2  501    0  0.59566686705E+02  0.32723627369E+02 -0.11337485758E+03  0.21895904012E+03  0.17455708799E+03 0.  0.
         24    2    3    3    0    0 -0.96899362553E+01  0.32147592840E+02 -0.72956096087E+00  0.86641752931E+02  0.79868006747E+02 0.  0.
         -6    2    1    2    0  502 -0.59566686705E+02 -0.32723627369E+02  0.10735494732E+02  0.18513633275E+03  0.17187549245E+03 0.  0.
        -24    2    5    5    0    0 -0.68926832959E+02 -0.46433279006E+02  0.61624898266E+02  0.13140190917E+03  0.81005406891E+02 0.  0.
          5    1    3    3  501    0  0.69256622960E+02  0.57603452864E+00 -0.11264529662E+03  0.13231728719E+03  0.47000000000E+01 0. -1.
        -13    1    4    4    0    0 -0.30952700432E+02  0.45489313874E+02  0.14986565831E+02  0.57025823064E+02  0.00000000000E+00 0.  1.
         14    1    4    4    0    0  0.21262764176E+02 -0.13341721034E+02 -0.15716126792E+02  0.29615929867E+02  0.00000000000E+00 0. -1.
         -5    1    5    5    0  502  0.93601462545E+01  0.13709651637E+02 -0.50889403534E+02  0.53734423585E+02  0.47000000000E+01 0.  1.
         11    1    6    6    0    0 -0.14919108993E+01  0.14809598525E+02  0.32530867961E+02  0.35774395549E+02  0.00000000000E+00 0. -1.
        -12    1    6    6    0    0 -0.67434922060E+02 -0.61242877531E+02  0.29094030306E+02  0.95627513619E+02  0.00000000000E+00 0.  1.
</event>
<event>
12    1  0.8493057E-002  0.1788943E+03  0.7818608E-02  0.1168954E+00
         21   -1    0    0  503  502  0.00000000000E+00  0.00000000000E+00  0.70522450702E+03  0.70522450702E+03  0.00000000000E+00 0.  1.
         21   -1    0    0  501  503 -0.00000000000E+00 -0.00000000000E+00 -0.59414271430E+02  0.59414271430E+02  0.00000000000E+00 0.  1.
          6    2    1    2  501    0  0.21374183238E+02 -0.40166885505E+02  0.13678415369E+03  0.22519563781E+03  0.17301137589E+03 0.  0.
         24    2    3    3    0    0 -0.26197781492E+02 -0.72494312275E+02  0.12404369260E+03  0.16609772162E+03  0.79119317401E+02 0.  0.
         -6    2    1    2    0  502 -0.21374183238E+02  0.40166885505E+02  0.50902608190E+03  0.53944314064E+03  0.17268791367E+03 0.  0.
        -24    2    5    5    0    0 -0.29468548947E+02  0.31043320794E+02  0.11950163357E+03  0.14969945046E+03  0.79354910991E+02 0.  0.
          5    1    3    3  501    0  0.47571964730E+02  0.32327426770E+02  0.12740461094E+02  0.59097916196E+02  0.47000000000E+01 0. -1.
        -13    1    4    4    0    0 -0.34437382613E+02 -0.27487363786E+01  0.18130844819E+02  0.39015591842E+02  0.00000000000E+00 0.  1.
         14    1    4    4    0    0  0.82396011206E+01 -0.69745575897E+02  0.10591284778E+03  0.12708212978E+03  0.00000000000E+00 0. -1.
         -5    1    5    5    0  502  0.80943657092E+01  0.91235647113E+01  0.38952444833E+03  0.38974369018E+03  0.47000000000E+01 0.  1.
         13    1    6    6    0    0 -0.41555296376E+02  0.50681557357E+02  0.99654475912E+02  0.11927479819E+03  0.00000000000E+00 0. -1.
        -14    1    6    6    0    0  0.12086747429E+02 -0.19638236564E+02  0.19847157660E+02  0.30424652273E+02  0.00000000000E+00 0.  1.
</event>
<event>
12    1  0.8493057E-002  0.1791209E+03  0.7818608E-02  0.1170622E+00
         21   -1    0    0  503  502  0.00000000000E+00  0.00000000000E+00  0.63584891891E+03  0.63584891891E+03  0.00000000000E+00 0. -1.
         21   -1    0    0  501  503 -0.00000000000E+00 -0.00000000000E+00 -0.28283898759E+03  0.28283898759E+03  0.00000000000E+00 0. -1.
          6    2    1    2  501    0  0.38194376987E+02 -0.30486443801E+02 -0.24112056652E+03  0.30037211715E+03  0.17232541156E+03 0.  0.
         24    2    3    3    0    0  0.74266037217E+02  0.30809870954E+01 -0.85076433672E+02  0.13666567718E+03  0.76906248040E+02 0.  0.
         -6    2    1    2    0  502 -0.38194376987E+02  0.30486443801E+02  0.59413049784E+03  0.61831578936E+03  0.16411926520E+03 0.  0.
        -24    2    5    5    0    0 -0.85456268323E+02  0.13873032146E+02  0.46401721044E+03  0.47881220740E+03  0.80336315284E+02 0.  0.
          5    1    3    3  501    0 -0.36071660230E+02 -0.33567430896E+02 -0.15604413285E+03  0.16370643997E+03  0.47000000000E+01 0. -1.
        -13    1    4    4    0    0  0.51072472090E+02  0.78988686172E+01 -0.97177758811E+02  0.11006500960E+03  0.00000000000E+00 0.  1.
         14    1    4    4    0    0  0.23193565127E+02 -0.48178815218E+01  0.12101325138E+02  0.26600667581E+02  0.00000000000E+00 0. -1.
         -5    1    5    5    0  502  0.47261891336E+02  0.16613411655E+02  0.13011328740E+03  0.13950358195E+03  0.47000000000E+01 0.  1.
         13    1    6    6    0    0 -0.18560064606E+02 -0.18839335255E+02  0.26505791712E+03  0.26637397767E+03  0.00000000000E+00 0. -1.
        -14    1    6    6    0    0 -0.66896203717E+02  0.32712367401E+02  0.19895929332E+03  0.21243822973E+03  0.00000000000E+00 0.  1.
</event>
<event>
12    1  0.8493057E-002  0.2267242E+03  0.7818608E-02  0.1129063E+00
         21   -1    0    0  503  502  0.00000000000E+00  0.00000000000E+00  0.16890597934E+03  0.16890597934E+03  0.00000000000E+00 0. -1.
         21   -1    0    0  501  503 -0.00000000000E+00 -0.00000000000E+00 -0.53253576286E+03  0.53253576286E+03  0.00000000000E+00 0.  1.
          6    2    1    2  501    0 -0.12782471944E+03  0.73520818412E+02 -0.41164008492E+03  0.46969006956E+03  0.17151306741E+03 0.  0.
         24    2    3    3    0    0 -0.93212956201E+02  0.81200414274E+02 -0.16646474037E+03  0.22192003521E+03  0.79093803550E+02 0.  0.
         -6    2    1    2    0  502  0.12782471944E+03 -0.73520818412E+02  0.48010301392E+02  0.23175167264E+03  0.17221898586E+03 0.  0.
        -24    2    5    5    0    0  0.13559142106E+03 -0.92148674281E+02  0.30387500712E+01  0.18223552278E+03  0.79524462427E+02 0.  0.
          5    1    3    3  501    0 -0.34611763237E+02 -0.76795958615E+01 -0.24517534455E+03  0.24777003435E+03  0.47000000000E+01 0. -1.
        -11    1    4    4    0    0 -0.21318661628E+02 -0.11240508410E+02 -0.90972994588E+01  0.25760342008E+02  0.00000000000E+00 0.  1.
         12    1    4    4    0    0 -0.71894294573E+02  0.92440922684E+02 -0.15736744091E+03  0.19615969320E+03  0.00000000000E+00 0. -1.
         -5    1    5    5    0  502 -0.77667016200E+01  0.18627855869E+02  0.44971551321E+02  0.49516149856E+02  0.47000000000E+01 0.  1.
         11    1    6    6    0    0  0.23208604070E+02 -0.79325160003E+01  0.30501469006E+02  0.39139541700E+02  0.00000000000E+00 0. -1.
        -12    1    6    6    0    0  0.11238281699E+03 -0.84216158281E+02 -0.27462718934E+02  0.14309598108E+03  0.00000000000E+00 0.  1.
</event>
<event>
12    1  0.8493057E-002  0.2197601E+03  0.7818608E-02  0.1135195E+00
         21   -1    0    0  503  502  0.00000000000E+00  0.00000000000E+00  0.49185914812E+03  0.49185914812E+03  0.00000000000E+00 0. -1.
         21   -1    0    0  501  503 -0.00000000000E+00 -0.00000000000E+00 -0.17883925074E+03  0.17883925074E+03  0.00000000000E+00 0.  1.
          6    2    1    2  501    0 -0.10160066720E+03  0.84024184490E+02 -0.71202468669E+02  0.23100708024E+03  0.17581729273E+03 0.  0.
         24    2    3    3    0    0 -0.99722554404E+02  0.96166720796E+02 -0.12495219927E+01  0.15982791725E+03  0.79691754793E+02 0.  0.
         -6    2    1    2    0  502  0.10160066720E+03 -0.84024184490E+02  0.38422236605E+03  0.43969131862E+03  0.16828211414E+03 0.  0.
        -24    2    5    5    0    0  0.87438098165E+02  0.81342610595E+01  0.19154952214E+03  0.22559164036E+03  0.80552973596E+02 0.  0.
          5    1    3    3  501    0 -0.18781127913E+01 -0.12142536307E+02 -0.69952946677E+02  0.71179162993E+02  0.47000000000E+01 0. -1.
        -13    1    4    4    0    0 -0.54060639706E+02  0.29974808702E+02 -0.36763777154E+02  0.71920909566E+02  0.00000000000E+00 0.  1.
         14    1    4    4    0    0 -0.45661914698E+02  0.66191912095E+02  0.35514255161E+02  0.87907007686E+02  0.00000000000E+00 0. -1.
         -5    1    5    5    0  502  0.14162569030E+02 -0.92158445549E+02  0.19267284391E+03  0.21409967825E+03  0.47000000000E+01 0.  1.
         13    1    6    6    0    0  0.76773823311E+02  0.85120787596E+01  0.72095362455E+02  0.10566180350E+03  0.00000000000E+00 0. -1.
        -14    1    6    6    0    0  0.10664274854E+02 -0.37781770007E+00  0.11945415969E+03  0.11992983687E+03  0.00000000000E+00 0.  1.
</event>
<event>
12    1  0.8493057E-002  0.1761699E+03  0.7818608E-02  0.1171889E+00
         21   -1    0    0  501  502  0.00000000000E+00  0.00000000000E+00  0.19597060074E+03  0.19597060074E+03  0.00000000000E+00 0. -1.
         21   -1    0    0  502  503 -0.00000000000E+00 -0.00000000000E+00 -0.19369141190E+03  0.19369141190E+03  0.00000000000E+00 0. -1.
         -6    2    1    2    0  503 -0.61525264944E+01 -0.33910187641E+02 -0.83436426332E+02  0.19374625388E+03  0.17142992518E+03 0.  0.
        -24    2    3    3    0    0 -0.57057622447E+02 -0.13007036781E+01 -0.91773364284E+02  0.13253921366E+03  0.76726974764E+02 0.  0.
          6    2    1    2  501    0  0.61525264944E+01  0.33910187641E+02  0.85715615179E+02  0.19591575876E+03  0.17276592094E+03 0.  0.
         24    2    5    5    0    0 -0.23373222670E+01  0.15595312981E+02 -0.24646491384E+02  0.83624188592E+02  0.78338231520E+02 0.  0.
          5    1    5    5  501    0  0.84898487613E+01  0.18314874659E+02  0.11036210656E+03  0.11229157017E+03  0.47000000000E+01 0. -1.
        -13    1    6    6    0    0 -0.21914659402E+02  0.13767880838E+02  0.21382711148E+02  0.33571225410E+02  0.00000000000E+00 0.  1.
         14    1    6    6    0    0  0.19577337135E+02  0.18274321434E+01 -0.46029202532E+02  0.50052963182E+02  0.00000000000E+00 0. -1.
         -5    1    3    3    0  503  0.50905095952E+02 -0.32609483963E+02  0.83369379517E+01  0.61207040221E+02  0.47000000000E+01 0.  1.
         13    1    4    4    0    0 -0.56871022478E+02  0.29672486522E+02 -0.68103548922E+02  0.93556736956E+02  0.00000000000E+00 0. -1.
        -14    1    4    4    0    0 -0.18659996873E+00 -0.30973190200E+02 -0.23669815362E+02  0.38982476704E+02  0.00000000000E+00 0.  1.
</event>
<event>
12    1  0.8493057E-002  0.5711014E+03  0.7818608E-02  0.9967316E-01
         21   -1    0    0  503  502  0.00000000000E+00  0.00000000000E+00  0.74850321959E+03  0.74850321959E+03  0.00000000000E+00 0. -1.
         21   -1    0    0  501  503 -0.00000000000E+00 -0.00000000000E+00 -0.64472498033E+03  0.64472498033E+03  0.00000000000E+00 0.  1.
          6    2    1    2  501    0 -0.48686887050E+03 -0.24458234521E+03 -0.34481302916E+03  0.66701136032E+03  0.17072290140E+03 0.  0.
         24    2    3    3    0    0 -0.29091299836E+03 -0.15988391868E+03 -0.28600141732E+03  0.44553128679E+03  0.80672651699E+02 0.  0.
         -6    2    1    2    0  502  0.48686887050E+03  0.24458234521E+03  0.44859126842E+03  0.72621683961E+03  0.17115767988E+03 0.  0.
        -24    2    5    5    0    0  0.31029608398E+03  0.15322335549E+03  0.20066504848E+03  0.40838997719E+03  0.82187927261E+02 0.  0.
          5    1    3    3  501    0 -0.19595587214E+03 -0.84698426529E+02 -0.58811611839E+02  0.22148007353E+03  0.47000000000E+01 0. -1.
        -13    1    4    4    0    0 -0.25720448070E+02 -0.43054848211E+01 -0.55305751239E+02  0.61145766563E+02  0.00000000000E+00 0.  1.
         14    1    4    4    0    0 -0.26519255029E+03 -0.15557843386E+03 -0.23069566608E+03  0.38438552023E+03  0.00000000000E+00 0. -1.
         -5    1    5    5    0  502  0.17657278652E+03  0.91358989722E+02  0.24792621994E+03  0.31782686242E+03  0.47000000000E+01 0.  1.
         13    1    6    6    0    0 -0.17011418255E+01  0.12254862565E+02  0.19247303762E+01  0.12521187125E+02  0.00000000000E+00 0. -1.
        -14    1    6    6    0    0  0.31199722581E+03  0.14096849292E+03  0.19874031811E+03  0.39586879007E+03  0.00000000000E+00 0.  1.
</event>
<event>
12    1  0.8493057E-002  0.2757623E+03  0.7818608E-02  0.1098862E+00
         21   -1    0    0  503  502  0.00000000000E+00  0.00000000000E+00  0.55439514684E+03  0.55439514684E+03  0.00000000000E+00 0.  1.
         21   -1    0    0  501  503 -0.00000000000E+00 -0.00000000000E+00 -0.13430501026E+03  0.13430501026E+03  0.00000000000E+00 0. -1.
          6    2    1    2  501    0 -0.18541411634E+03 -0.10155070006E+03  0.21585928109E+03  0.34554556019E+03  0.16767696836E+03 0.  0.
         24    2    3    3    0    0 -0.55102408833E+02  0.14101840948E+01  0.43731908589E+02  0.10631344040E+03  0.79698203886E+02 0.  0.
         -6    2    1    2    0  502  0.18541411634E+03  0.10155070006E+03  0.20423085549E+03  0.34315459691E+03  0.17707031323E+03 0.  0.
        -24    2    5    5    0    0  0.72326714069E+02 -0.17220541077E+02  0.10382073642E+03  0.15080166534E+03  0.80216559109E+02 0.  0.
          5    1    3    3  501    0 -0.13031170750E+03 -0.10296088415E+03  0.17212737250E+03  0.23923211979E+03  0.47000000000E+01 0. -1.
        -13    1    4    4    0    0 -0.13334621824E+02 -0.34776899651E+02  0.24365897156E+01  0.37325351411E+02  0.00000000000E+00 0.  1.
         14    1    4    4    0    0 -0.41767787008E+02  0.36187083746E+02  0.41295318873E+02  0.68988088990E+02  0.00000000000E+00 0. -1.
         -5    1    5    5    0  502  0.11308740227E+03  0.11877124113E+03  0.10041011907E+03  0.19235293157E+03  0.47000000000E+01 0.  1.
         11    1    6    6    0    0  0.69476754117E+02  0.13920874735E+01  0.31910818595E+02  0.76467363062E+02  0.00000000000E+00 0. -1.
        -12    1    6    6    0    0  0.28499599521E+01 -0.18612628550E+02  0.71909917830E+02  0.74334302281E+02  0.00000000000E+00 0.  1.
</event>
<event>
12    1  0.8493057E-002  0.1853521E+03  0.7818608E-02  0.1162933E+00
         21   -1    0    0  503  502  0.00000000000E+00  0.00000000000E+00  0.13114474228E+04  0.13114474228E+04  0.00000000000E+00 0. -1.
         21   -1    0    0  501  503 -0.00000000000E+00 -0.00000000000E+00 -0.44266961641E+02  0.44266961641E+02  0.00000000000E+00 0.  1.
          6    2    1    2  501    0  0.30161083538E+02 -0.57492416112E+02  0.19804897146E+03  0.27063487406E+03  0.17264058355E+03 0.  0.
         24    2    3    3    0    0  0.54704009691E+02 -0.16209727667E+02  0.41631426878E+02  0.10694262060E+03  0.80301086228E+02 0.  0.
         -6    2    1    2    0  502 -0.30161083538E+02  0.57492416112E+02  0.10691314897E+04  0.10850795104E+04  0.17360971377E+03 0.  0.
        -24    2    5    5    0    0 -0.39643031303E+02  0.24508885209E+01  0.27930069923E+03  0.29326245786E+03  0.80102508167E+02 0.  0.
          5    1    3    3  501    0 -0.24542926153E+02 -0.41282688445E+02  0.15641754458E+03  0.16369225346E+03  0.47000000000E+01 0. -1.
        -13    1    4    4    0    0  0.53793664537E+02  0.16709120970E+02  0.33255074510E+01  0.56427050850E+02  0.00000000000E+00 0.  1.
         14    1    4    4    0    0  0.91034515395E+00 -0.32918848637E+02  0.38305919427E+02  0.50515569748E+02  0.00000000000E+00 0. -1.
         -5    1    5    5    0  502  0.94819477645E+01  0.55041527591E+02  0.78983079047E+03  0.79181705252E+03  0.47000000000E+01 0.  1.
         13    1    6    6    0    0 -0.12868617769E+02  0.40516578840E+02  0.12026860142E+03  0.12756069525E+03  0.00000000000E+00 0. -1.
        -14    1    6    6    0    0 -0.26774413534E+02 -0.38065690319E+02  0.15903209780E+03  0.16570176261E+03  0.00000000000E+00 0.  1.
</event>
<event>
12    1  0.8493057E-002  0.2066633E+03  0.7818608E-02  0.1144277E+00
         21   -1    0    0  503  502  0.00000000000E+00  0.00000000000E+00  0.26406882408E+03  0.26406882408E+03  0.00000000000E+00 0.  1.
         21   -1    0    0  501  503 -0.00000000000E+00 -0.00000000000E+00 -0.36995150398E+03  0.36995150398E+03  0.00000000000E+00 0.  1.
          6    2    1    2  501    0  0.45836823393E+01 -0.11424095664E+03 -0.29086844763E+03  0.35681109331E+03  0.17215602274E+03 0.  0.
         24    2    3    3    0    0 -0.15200829959E+02 -0.14307952529E+03 -0.19328675171E+03  0.25304516756E+03  0.77261068130E+02 0.  0.
         -6    2    1    2    0  502 -0.45836823393E+01  0.11424095664E+03  0.18498576772E+03  0.27720923475E+03  0.17191049780E+03 0.  0.
        -24    2    5    5    0    0  0.40440300781E+02  0.10870875503E+03  0.18384958142E+03  0.23158966406E+03  0.79875481616E+02 0.  0.
          5    1    3    3  501    0  0.19784512299E+02  0.28838568652E+02 -0.97581695916E+02  0.10376592575E+03  0.47000000000E+01 0. -1.
        -13    1    4    4    0    0  0.90481951218E+01 -0.13752565136E+03 -0.17115794393E+03  0.21975035014E+03  0.00000000000E+00 0.  1.
         14    1    4    4    0    0 -0.24249025081E+02 -0.55538739316E+01 -0.22128807781E+02  0.33294817417E+02  0.00000000000E+00 0. -1.
         -5    1    5    5    0  502 -0.45023983121E+02  0.55322016035E+01  0.11361863029E+01  0.45619570690E+02  0.47000000000E+01 0.  1.
         13    1    6    6    0    0  0.52670625333E+02  0.42155186602E+02  0.59188765007E+02  0.89747225213E+02  0.00000000000E+00 0. -1.
        -14    1    6    6    0    0 -0.12230324552E+02  0.66553568432E+02  0.12466081641E+03  0.14184243885E+03  0.00000000000E+00 0.  1.
</event>
<event>
12    1  0.8493057E-002  0.2286978E+03  0.7818608E-02  0.1128727E+00
         21   -1    0    0  503  502  0.00000000000E+00  0.00000000000E+00  0.16269668268E+03  0.16269668268E+03  0.00000000000E+00 0.  1.
         21   -1    0    0  501  503 -0.00000000000E+00 -0.00000000000E+00 -0.38753653130E+03  0.38753653130E+03  0.00000000000E+00 0.  1.
          6    2    1    2  501    0 -0.75234900096E+02  0.13034744000E+03 -0.23483513454E+03  0.32779600241E+03  0.17219736779E+03 0.  0.
         24    2    3    3    0    0 -0.75502299071E+02  0.99139723713E+02 -0.76325528373E+02  0.16617490754E+03  0.79115305930E+02 0.  0.
         -6    2    1    2    0  502  0.75234900096E+02 -0.13034744000E+03  0.99952859184E+01  0.22243721157E+03  0.16348596895E+03 0.  0.
        -24    2    5    5    0    0 -0.48144097995E+01 -0.93136961489E+02 -0.29001673722E+02  0.12581752110E+03  0.79317585684E+02 0.  0.
          5    1    3    3  501    0  0.26739897526E+00  0.31207716290E+02 -0.15850960617E+03  0.16162109487E+03  0.47000000000E+01 0. -1.
        -11    1    4    4    0    0 -0.23008237393E+02  0.86974139564E+02 -0.65317491027E+02  0.11117668179E+03  0.00000000000E+00 0.  1.
         12    1    4    4    0    0 -0.52494061679E+02  0.12165584149E+02 -0.11008037346E+02  0.54998225748E+02  0.00000000000E+00 0. -1.
         -5    1    5    5    0  502  0.80049309896E+02 -0.37210478514E+02  0.38996959641E+02  0.96619690474E+02  0.47000000000E+01 0.  1.
         11    1    6    6    0    0 -0.53515381030E+01 -0.27959485596E+02 -0.49832284651E+02  0.57390141910E+02  0.00000000000E+00 0. -1.
        -12    1    6    6    0    0  0.53712830349E+00 -0.65177475892E+02  0.20830610929E+02  0.68427379185E+02  0.00000000000E+00 0.  1.
</event>
<event>
12    1  0.8493057E-002  0.2335928E+03  0.7818608E-02  0.1124398E+00
         21   -1    0    0  501  502  0.00000000000E+00  0.00000000000E+00  0.74397755314E+03  0.74397755314E+03  0.00000000000E+00 0. -1.
         21   -1    0    0  502  503 -0.00000000000E+00 -0.00000000000E+00 -0.10544953230E+04  0.10544953230E+04  0.00000000000E+00 0.  1.
         -6    2    1    2    0  503  0.17344360200E+01  0.15659187910E+03 -0.10229040638E+04  0.10492370211E+04  0.17332506374E+03 0.  0.
        -24    2    3    3    0    0 -0.14740993122E+02  0.13875411550E+03 -0.49757414495E+03  0.52332520409E+03  0.82578678016E+02 0.  0.
          6    2    1    2  501    0 -0.17344360200E+01 -0.15659187910E+03  0.71238629395E+03  0.74923585509E+03  0.17127787325E+03 0.  0.
         24    2    5    5    0    0  0.34683847456E+02 -0.10789164230E+03  0.27725444594E+03  0.30985012524E+03  0.79331560970E+02 0.  0.
          5    1    5    5  501    0 -0.36418283476E+02 -0.48700236799E+02  0.43513184801E+03  0.43938572984E+03  0.47000000000E+01 0. -1.
        -13    1    6    6    0    0 -0.11901181079E+02 -0.85776265352E+02  0.18113473501E+03  0.20077100895E+03  0.00000000000E+00 0.  1.
         14    1    6    6    0    0  0.46585028534E+02 -0.22115376952E+02  0.96119710930E+02  0.10907911629E+03  0.00000000000E+00 0. -1.
         -5    1    3    3    0  503  0.16475429142E+02  0.17837763602E+02 -0.52532991887E+03  0.52591181698E+03  0.47000000000E+01 0.  1.
         13    1    4    4    0    0  0.70411910763E+00  0.13148432244E+03 -0.33535708561E+03  0.36021243413E+03  0.00000000000E+00 0. -1.
        -14    1    4    4    0    0 -0.15445112230E+02  0.72697930629E+01 -0.16221705934E+03  0.16311276996E+03  0.00000000000E+00 0.  1.
</event>
<event>
12    1  0.8493057E-002  0.2391873E+03  0.7818608E-02  0.1121526E+00
         21   -1    0    0  501  502  0.00000000000E+00  0.00000000000E+00  0.18428377512E+03  0.18428377512E+03  0.00000000000E+00 0.  1.
         21   -1    0    0  502  503 -0.00000000000E+00 -0.00000000000E+00 -0.30776086287E+03  0.30776086287E+03  0.00000000000E+00 0.  1.
         -6    2    1    2    0  503 -0.14536525954E+03  0.80268277614E+02 -0.97942621365E+02  0.25846342440E+03  0.17215263459E+03 0.  0.
        -24    2    3    3    0    0 -0.11001837315E+03 -0.13941059315E+02 -0.64805843696E+02  0.15242127440E+03  0.82061269462E+02 0.  0.
          6    2    1    2  501    0  0.14536525954E+03 -0.80268277614E+02 -0.25534466384E+02  0.23358121360E+03  0.16227790762E+03 0.  0.
         24    2    5    5    0    0  0.46213156356E+02 -0.46604528012E+02 -0.64516209102E+02  0.12175074428E+03  0.79707368816E+02 0.  0.
          5    1    5    5  501    0  0.99152103188E+02 -0.33663749602E+02  0.38981742717E+02  0.11183046932E+03  0.47000000000E+01 0. -1.
        -11    1    6    6    0    0  0.55202360038E+02 -0.56890195201E+02 -0.30222063186E+02  0.84836124186E+02  0.00000000000E+00 0.  1.
         12    1    6    6    0    0 -0.89892036821E+01  0.10285667188E+02 -0.34294145916E+02  0.36914620091E+02  0.00000000000E+00 0. -1.
         -5    1    3    3    0  503 -0.35346886393E+02  0.94209336929E+02 -0.33136777669E+02  0.10604215000E+03  0.47000000000E+01 0.  1.
         11    1    4    4    0    0  0.35157115690E+01 -0.67467178799E+01  0.12673196196E+02  0.14781350811E+02  0.00000000000E+00 0. -1.
        -12    1    4    4    0    0 -0.11353408472E+03 -0.71943414349E+01 -0.77479039891E+02  0.13763992358E+03  0.00000000000E+00 0.  1.
</event>
<event>
12    1  0.8493057E-002  0.2000519E+03  0.7818608E-02  0.1150160E+00
         21   -1    0    0  503  502  0.00000000000E+00  0.00000000000E+00  0.34312115246E+03  0.34312115246E+03  0.00000000000E+00 0.  1.
         21   -1    0    0  501  503 -0.00000000000E+00 -0.00000000000E+00 -0.11741421202E+03  0.11741421202E+03  0.00000000000E+00 0.  1.
          6    2    1    2  501    0  0.10194451799E+03 -0.50009301734E+01  0.81817596497E+02  0.21411113016E+03  0.16950446281E+03 0.  0.
         24    2    3    3    0    0  0.10908662659E+03 -0.29464324570E+02  0.10949218230E+03  0.17619754316E+03  0.79303201111E+02 0.  0.
         -6    2    1    2    0  502 -0.10194451799E+03  0.50009301734E+01  0.14388934394E+03  0.24642423432E+03  0.17205541522E+03 0.  0.
        -24    2    5    5    0    0 -0.75225392793E+02  0.64777846544E+02  0.12430322025E+03  0.17791950730E+03  0.79680809426E+02 0.  0.
          5    1    3    3  501    0 -0.71421086010E+01  0.24463394397E+02 -0.27674585800E+02  0.37913587009E+02  0.47000000000E+01 0. -1.
        -11    1    4    4    0    0  0.17432788043E+02  0.23722156252E+02  0.10705085218E+02  0.31324776866E+02  0.00000000000E+00 0.  1.
         12    1    4    4    0    0  0.91653838548E+02 -0.53186480823E+02  0.98787097079E+02  0.14487276629E+03  0.00000000000E+00 0. -1.
         -5    1    5    5    0  502 -0.26719125197E+02 -0.59776916371E+02  0.19586123697E+02  0.68504727017E+02  0.47000000000E+01 0.  1.
         11    1    6    6    0    0 -0.33788185040E+02  0.72144932943E+02  0.10450842264E+03  0.13140982916E+03  0.00000000000E+00 0. -1.
        -12    1    6    6    0    0 -0.41437207753E+02 -0.73670863987E+01  0.19794797609E+02  0.46509678141E+02  0.00000000000E+00 0.  1.
</event>
<event>
12    1  0.8493057E-002  0.1810745E+03  0.7818608E-02  0.1167088E+00
         21   -1    0    0  501  502  0.00000000000E+00  0.00000000000E+00  0.14906834722E+03  0.14906834722E+03  0.00000000000E+00 0. -1.
         21   -1    0    0  502  503 -0.00000000000E+00 -0.00000000000E+00 -0.28383190199E+03  0.28383190199E+03  0.00000000000E+00 0. -1.
         -6    2    1    2    0  503  0.41240975084E+02 -0.33677722982E+02 -0.17116344286E+03  0.24820339548E+03  0.17167700575E+03 0.  0.
        -24    2    3    3    0    0 -0.10629802341E+02 -0.67623432692E+02 -0.59106834673E+02  0.12005636197E+03  0.78955625496E+02 0.  0.
          6    2    1    2  501    0 -0.41240975084E+02  0.33677722982E+02  0.36399888091E+02  0.18469685373E+03  0.17306926034E+03 0.  0.
         24    2    5    5    0    0  0.38626484373E+02 -0.64727601865E+01  0.34292666179E+02  0.95156903075E+02  0.79655177670E+02 0.  0.
          5    1    5    5  501    0 -0.79867459457E+02  0.40150483169E+02  0.21072219121E+01  0.89539950654E+02  0.47000000000E+01 0. -1.
        -13    1    6    6    0    0  0.49719781485E+01 -0.38931316704E+02  0.40134544840E+01  0.39452196440E+02  0.00000000000E+00 0.  1.
         14    1    6    6    0    0  0.33654506225E+02  0.32458556518E+02  0.30279211695E+02  0.55704706635E+02  0.00000000000E+00 0. -1.
         -5    1    3    3    0  503  0.51870777425E+02  0.33945709709E+02 -0.11205660819E+03  0.12814703351E+03  0.47000000000E+01 0.  1.
         11    1    4    4    0    0  0.55818823268E+01 -0.81360887275E+02 -0.55129737724E+02  0.98437997592E+02  0.00000000000E+00 0. -1.
        -12    1    4    4    0    0 -0.16211684668E+02  0.13737454583E+02 -0.39770969491E+01  0.21618364377E+02  0.00000000000E+00 0.  1.
</event>
<event>
12    1  0.8493057E-002  0.1950504E+03  0.7818608E-02  0.1154187E+00
         21   -1    0    0  503  502  0.00000000000E+00  0.00000000000E+00  0.39052720543E+03  0.39052720543E+03  0.00000000000E+00 0. -1.
         21   -1    0    0  501  503 -0.00000000000E+00 -0.00000000000E+00 -0.96982719372E+02  0.96982719372E+02  0.00000000000E+00 0.  1.
          6    2    1    2  501    0  0.24199510150E+02 -0.85740350502E+02  0.14287803708E+03  0.24178250895E+03  0.17351548680E+03 0.  0.
         24    2    3    3    0    0 -0.41856536551E+02 -0.60285482655E+01  0.68906785485E+02  0.11445926369E+03  0.81021385524E+02 0.  0.
         -6    2    1    2    0  502 -0.24199510150E+02  0.85740350502E+02  0.15066644898E+03  0.24572741585E+03  0.17246611278E+03 0.  0.
        -24    2    5    5    0    0 -0.63321593748E+02  0.31267709947E+01  0.95679549146E+02  0.13895106034E+03  0.78316154860E+02 0.  0.
          5    1    3    3  501    0  0.66056046700E+02 -0.79711802236E+02  0.73971251592E+02  0.12732324526E+03  0.47000000000E+01 0. -1.
        -11    1    4    4    0    0 -0.25746575554E+02  0.18690136495E+02 -0.73848075803E+01  0.32661027816E+02  0.00000000000E+00 0.  1.
         12    1    4    4    0    0 -0.16109960997E+02 -0.24718684761E+02  0.76291593065E+02  0.81798235874E+02  0.00000000000E+00 0. -1.
         -5    1    5    5    0  502  0.39122083598E+02  0.82613579507E+02  0.54986899836E+02  0.10677635552E+03  0.47000000000E+01 0.  1.
         11    1    6    6    0    0  0.25522979983E+01 -0.27007400602E+02  0.17055798023E+02  0.32043941058E+02  0.00000000000E+00 0. -1.
        -12    1    6    6    0    0 -0.65873891746E+02  0.30134171596E+02  0.78623751124E+02  0.10690711928E+03  0.00000000000E+00 0.  1.
</event>
<event>
12    1  0.8493057E-002  0.1752717E+03  0.7818608E-02  0.1172461E+00
         21   -1    0    0  501  502  0.00000000000E+00  0.00000000000E+00  0.26731272976E+04  0.26731272976E+04  0.00000000000E+00 0. -1.
         21   -1    0    0  502  503 -0.00000000000E+00 -0.00000000000E+00 -0.12010485407E+02  0.12010485407E+02  0.00000000000E+00 0. -1.
         -6    2    1    2    0  503 -0.92604800473E+01  0.29261543845E+02  0.16096030671E+04  0.16191177201E+04  0.17256350539E+03 0.  0.
        -24    2    3    3    0    0 -0.44719529807E+01  0.29527340964E+01  0.15639963783E+04  0.15660409499E+04  0.79817721258E+02 0.  0.
          6    2    1    2  501    0  0.92604800473E+01 -0.29261543845E+02  0.10515137451E+04  0.10660200629E+04  0.17255614745E+03 0.  0.
         24    2    5    5    0    0  0.29168936836E+02  0.24339178275E+02  0.89418162856E+03  0.89855403965E+03  0.79970962450E+02 0.  0.
          5    1    5    5  501    0 -0.19908456789E+02 -0.53600722120E+02  0.15733211654E+03  0.16746602329E+03  0.47000000000E+01 0. -1.
        -11    1    6    6    0    0 -0.26140202032E+02  0.14021757295E+02  0.41998841281E+03  0.42103466215E+03  0.00000000000E+00 0.  1.
         12    1    6    6    0    0  0.55309138867E+02  0.10317420980E+02  0.47419321575E+03  0.47751937749E+03  0.00000000000E+00 0. -1.
         -5    1    3    3    0  503 -0.47885270666E+01  0.26308809748E+02  0.45606688804E+02  0.53076770112E+02  0.47000000000E+01 0.  1.
         13    1    4    4    0    0  0.27462253817E+02  0.27783781281E+02  0.68290937923E+03  0.68402582856E+03  0.00000000000E+00 0. -1.
        -14    1    4    4    0    0 -0.31934206798E+02 -0.24831047185E+02  0.88108699904E+03  0.88201512139E+03  0.00000000000E+00 0.  1.
</event>
<event>
12    1  0.8493057E-002  0.1868734E+03  0.7818608E-02  0.1162402E+00
         21   -1    0    0  503  502  0.00000000000E+00  0.00000000000E+00  0.84533695309E+02  0.84533695309E+02  0.00000000000E+00 0. -1.
         21   -1    0    0  501  503 -0.00000000000E+00 -0.00000000000E+00 -0.40862048693E+03  0.40862048693E+03  0.00000000000E+00 0.  1.
          6    2    1    2  501    0 -0.42020529574E+02  0.47065609043E+02 -0.18931097314E+03  0.26274977296E+03  0.17093244916E+03 0.  0.
         24    2    3    3    0    0 -0.69615583501E+02  0.47604998759E+02 -0.58450003448E+02  0.12892727361E+03  0.78059423545E+02 0.  0.
         -6    2    1    2    0  502  0.42020529574E+02 -0.47065609043E+02 -0.13477581848E+03  0.23040440928E+03  0.17589989798E+03 0.  0.
        -24    2    5    5    0    0  0.42014153789E+02 -0.67638977060E+02 -0.16138831231E+03  0.19644004060E+03  0.78754567261E+02 0.  0.
          5    1    3    3  501    0  0.27595053928E+02 -0.53938971648E+00 -0.13086096969E+03  0.13382249935E+03  0.47000000000E+01 0. -1.
        -13    1    4    4    0    0 -0.17347697540E+02 -0.13076322451E+02 -0.41826809305E+02  0.47131887246E+02  0.00000000000E+00 0.  1.
         14    1    4    4    0    0 -0.52267885962E+02  0.60681321211E+02 -0.16623194143E+02  0.81795386363E+02  0.00000000000E+00 0. -1.
         -5    1    5    5    0  502  0.63757850010E-02  0.20573368018E+02  0.26612493828E+02  0.33964368683E+02  0.47000000000E+01 0.  1.
         13    1    6    6    0    0  0.57865532347E+02 -0.32744089896E+02 -0.13317320741E+03  0.14884790368E+03  0.00000000000E+00 0. -1.
        -14    1    6    6    0    0 -0.15851378558E+02 -0.34894887165E+02 -0.28215104896E+02  0.47592136921E+02  0.00000000000E+00 0.  1.
</event>
<event>
12    1  0.8493057E-002  0.1777371E+03  0.7818608E-02  0.1170345E+00
         21   -1    0    0  503  502  0.00000000000E+00  0.00000000000E+00  0.19663359370E+03  0.19663359370E+03  0.00000000000E+00 0.  1.
         21   -1    0    0  501  503 -0.00000000000E+00 -0.00000000000E+00 -0.22465914351E+03  0.22465914351E+03  0.00000000000E+00 0.  1.
          6    2    1    2  501    0 -0.30266991046E+02  0.27247568155E+02 -0.12754744829E+03  0.21876660960E+03  0.17300854659E+03 0.  0.
         24    2    3    3    0    0  0.41899560059E+02  0.47181699363E+02 -0.61719388641E+02  0.11896278140E+03  0.79756971713E+02 0.  0.
         -6    2    1    2    0  502  0.30266991046E+02 -0.27247568155E+02  0.99521898477E+02  0.20252612761E+03  0.17162081276E+03 0.  0.
        -24    2    5    5    0    0  0.72289940277E+02 -0.42591346536E+02  0.29291793109E+02  0.11912518339E+03  0.79328065080E+02 0.  0.
          5    1    3    3  501    0 -0.72166551105E+02 -0.19934131208E+02 -0.65828059648E+02  0.99803828195E+02  0.47000000000E+01 0. -1.
        -13    1    4    4    0    0 -0.23736392145E+02  0.10617904475E+02 -0.10558483482E+02  0.28064885194E+02  0.00000000000E+00 0.  1.
         14    1    4    4    0    0  0.65635952204E+02  0.36563794888E+02 -0.51160905159E+02  0.90897896208E+02  0.00000000000E+00 0. -1.
         -5    1    5    5    0  502 -0.42022949231E+02  0.15343778381E+02  0.70230105369E+02  0.83400944222E+02  0.47000000000E+01 0.  1.
         13    1    6    6    0    0  0.44946810230E+02  0.17962530147E+02  0.62649333546E+01  0.48806942427E+02  0.00000000000E+00 0. -1.
        -14    1    6    6    0    0  0.27343130047E+02 -0.60553876683E+02  0.23026859754E+02  0.70318240963E+02  0.00000000000E+00 0.  1.
</event>
<event>
12    1  0.8493057E-002  0.2411014E+03  0.7818608E-02  0.1119853E+00
         21   -1    0    0  501  502  0.00000000000E+00  0.00000000000E+00  0.75167220967E+03  0.75167220967E+03  0.00000000000E+00 0. -1.
         21   -1    0    0  502  503 -0.00000000000E+00 -0.00000000000E+00 -0.18341175019E+03  0.18341175019E+03  0.00000000000E+00 0.  1.
         -6    2    1    2    0  503  0.16403144640E+03 -0.39522404654E+02 -0.75113779311E+02  0.24801752244E+03  0.16553632749E+03 0.  0.
        -24    2    3    3    0    0  0.16630362605E+03 -0.32985818129E+02 -0.10639044084E+03  0.21564146153E+03  0.80233121549E+02 0.  0.
          6    2    1    2  501    0 -0.16403144640E+03  0.39522404654E+02  0.64337423879E+03  0.68706643742E+03  0.17222526648E+03 0.  0.
         24    2    5    5    0    0 -0.38175595746E+02 -0.29214152348E+02  0.31836146178E+03  0.33179217065E+03  0.80132274071E+02 0.  0.
          5    1    5    5  501    0 -0.12585585065E+03  0.68736557002E+02  0.32501277701E+03  0.35527426677E+03  0.47000000000E+01 0. -1.
        -13    1    6    6    0    0 -0.43281484482E+02 -0.45007888123E+02  0.14812324816E+03  0.16074667505E+03  0.00000000000E+00 0.  1.
         14    1    6    6    0    0  0.51058887357E+01  0.15793735775E+02  0.17023821362E+03  0.17104549560E+03  0.00000000000E+00 0. -1.
         -5    1    3    3    0  503 -0.22721796487E+01 -0.65365865252E+01  0.31276661532E+02  0.32376060915E+02  0.47000000000E+01 0.  1.
         13    1    4    4    0    0 -0.57267345138E+01 -0.12630740719E+02 -0.40869508055E+01  0.14458017367E+02  0.00000000000E+00 0. -1.
        -14    1    4    4    0    0  0.17203036056E+03 -0.20355077410E+02 -0.10230349004E+03  0.20118344416E+03  0.00000000000E+00 0.  1.
</event>
<event>
12    1  0.8493057E-002  0.2240224E+03  0.7818608E-02  0.1131014E+00
         21   -1    0    0  501  502  0.00000000000E+00  0.00000000000E+00  0.29123470560E+02  0.29123470560E+02  0.00000000000E+00 0.  1.
         21   -1    0    0  502  503 -0.00000000000E+00 -0.00000000000E+00 -0.18327501559E+04  0.18327501559E+04  0.00000000000E+00 0.  1.
         -6    2    1    2    0  503 -0.31612639857E+02 -0.13899099918E+03 -0.11345168106E+04  0.11564231218E+04  0.17282414807E+03 0.  0.
        -24    2    3    3    0    0 -0.11270900502E+02 -0.14294567821E+03 -0.61988142463E+03  0.64134924712E+03  0.80717879425E+02 0.  0.
          6    2    1    2  501    0  0.31612639857E+02  0.13899099918E+03 -0.66910987474E+03  0.70545050470E+03  0.17214683632E+03 0.  0.
         24    2    5    5    0    0 -0.30335383615E+02  0.93561013913E+02 -0.54344639793E+03  0.55809094248E+03  0.80359279697E+02 0.  0.
          5    1    5    5  501    0  0.61948023472E+02  0.45429985265E+02 -0.12566347681E+03  0.14735956222E+03  0.47000000000E+01 0. -1.
        -13    1    6    6    0    0 -0.50458364546E+02  0.69289215790E+02 -0.28168404984E+03  0.29443665857E+03  0.00000000000E+00 0.  1.
         14    1    6    6    0    0  0.20122980931E+02  0.24271798123E+02 -0.26176234809E+03  0.26365428391E+03  0.00000000000E+00 0. -1.
         -5    1    3    3    0  503 -0.20341739354E+02  0.39546790371E+01 -0.51463538596E+03  0.51507387463E+03  0.47000000000E+01 0.  1.
         13    1    4    4    0    0 -0.25877349225E+02 -0.10741907086E+02 -0.65607853267E+02  0.71340144247E+02  0.00000000000E+00 0. -1.
        -14    1    4    4    0    0  0.14606448723E+02 -0.13220377113E+03 -0.55427357136E+03  0.57000910287E+03  0.00000000000E+00 0.  1.
</event>
<event>
12    1  0.8493057E-002  0.2067814E+03  0.7818608E-02  0.1145328E+00
         21   -1    0    0  503  502  0.00000000000E+00  0.00000000000E+00  0.93940786066E+03  0.93940786066E+03  0.00000000000E+00 0.  1.
         21   -1    0    0  501  503 -0.00000000000E+00 -0.00000000000E+00 -0.49486745282E+02  0.49486745282E+02  0.00000000000E+00 0.  1.
          6    2    1    2  501    0  0.96591683469E+02 -0.45164538088E+02  0.28979700414E+03  0.35600682459E+03  0.17716875213E+03 0.  0.
         24    2    3    3    0    0  0.20777176349E+02  0.35615549451E+02  0.16853265813E+03  0.19168885952E+03  0.81493580034E+02 0.  0.
         -6    2    1    2    0  502 -0.96591683469E+02  0.45164538088E+02  0.60012411124E+03  0.63288778135E+03  0.17037665944E+03 0.  0.
        -24    2    5    5    0    0 -0.81287900254E+02  0.10931525956E+02  0.19370969383E+03  0.22472007859E+03  0.79047120449E+02 0.  0.
          5    1    3    3  501    0  0.75814507119E+02 -0.80780087540E+02  0.12126434601E+03  0.16431796507E+03  0.47000000000E+01 0. -1.
        -11    1    4    4    0    0  0.13760156960E+02 -0.21477234445E+02  0.94804751463E+02  0.98176139764E+02  0.00000000000E+00 0.  1.
         12    1    4    4    0    0  0.70170193894E+01  0.57092783896E+02  0.73727906669E+02  0.93512719755E+02  0.00000000000E+00 0. -1.
         -5    1    5    5    0  502 -0.15303783215E+02  0.34233012132E+02  0.40641441741E+03  0.40816770276E+03  0.47000000000E+01 0.  1.
         13    1    6    6    0    0 -0.16425074481E+02 -0.21150114971E+02  0.12414353172E+02  0.29516547896E+02  0.00000000000E+00 0. -1.
        -14    1    6    6    0    0 -0.64862825773E+02  0.32081640928E+02  0.18129534066E+03  0.19520353070E+03  0.00000000000E+00 0.  1.
</event>
<event>
12    1  0.8493057E-002  0.1887658E+03  0.7818608E-02  0.1159591E+00
         21   -1    0    0  503  502  0.00000000000E+00  0.00000000000E+00  0.52235810670E+02  0.52235810670E+02  0.00000000000E+00 0.  1.
         21   -1    0    0  501  503 -0.00000000000E+00 -0.00000000000E+00 -0.85394826961E+03  0.85394826961E+03  0.00000000000E+00 0. -1.
          6    2    1    2  501    0 -0.14011207517E+02  0.76806665853E+02 -0.60423542897E+03  0.63303473107E+03  0.17186314109E+03 0.  0.
         24    2    3    3    0    0  0.30048147917E+02  0.10115105278E+03 -0.49824324415E+03  0.51560258377E+03  0.80406886391E+02 0.  0.
         -6    2    1    2    0  502  0.14011207517E+02 -0.76806665853E+02 -0.19747702997E+03  0.27314934921E+03  0.17180748456E+03 0.  0.
        -24    2    5    5    0    0 -0.31518649381E+02 -0.14000067258E+01 -0.44394823859E+02  0.96470590050E+02  0.79625932217E+02 0.  0.
          5    1    3    3  501    0 -0.44059355435E+02 -0.24344386930E+02 -0.10599218482E+03  0.11743214730E+03  0.47000000000E+01 0. -1.
        -11    1    4    4    0    0  0.12055346878E+02  0.73795424297E+02 -0.16984264044E+03  0.18557375500E+03  0.00000000000E+00 0.  1.
         12    1    4    4    0    0  0.17992801039E+02  0.27355628485E+02 -0.32840060372E+03  0.33002882877E+03  0.00000000000E+00 0. -1.
         -5    1    5    5    0  502  0.45529856898E+02 -0.75406659127E+02 -0.15308220611E+03  0.17667875916E+03  0.47000000000E+01 0.  1.
         13    1    6    6    0    0 -0.23769834837E+02 -0.35742950981E+02 -0.43702617565E+02  0.61257508723E+02  0.00000000000E+00 0. -1.
        -14    1    6    6    0    0 -0.77488145440E+01  0.34342944255E+02 -0.69220629391E+00  0.35213081326E+02  0.00000000000E+00 0.  1.
</event>
<event>
12    1  0.8493057E-002  0.2014655E+03  0.7818608E-02  0.1148647E+00
         21   -1    0    0  501  502  0.00000000000E+00  0.00000000000E+00  0.19423985317E+03  0.19423985317E+03  0.00000000000E+00 0.  1.
         21   -1    0    0  502  503 -0.00000000000E+00 -0.00000000000E+00 -0.21889670525E+03  0.21889670525E+03  0.00000000000E+00 0.  1.
         -6    2    1    2    0  503  0.80932828703E+02 -0.65277012048E+02 -0.57849639441E+02  0.20960660180E+03  0.17256052755E+03 0.  0.
        -24    2    3    3    0    0  0.54139035869E+02  0.26869338781E+02 -0.55647084013E+02  0.11350353964E+03  0.78316403006E+02 0.  0.
          6    2    1    2  501    0 -0.80932828703E+02  0.65277012048E+02  0.33192787354E+02  0.20352995662E+03  0.17178903064E+03 0.  0.
         24    2    5    5    0    0 -0.10862263036E+03  0.89705420856E+02  0.33445205856E+02  0.16630595916E+03  0.81811685594E+02 0.  0.
          5    1    5    5  501    0  0.27689801652E+02 -0.24428408808E+02 -0.25241850225E+00  0.37223997468E+02  0.47000000000E+01 0. -1.
        -11    1    6    6    0    0  0.10555098503E+01  0.19329404090E+02 -0.17779808724E+02  0.26284245505E+02  0.00000000000E+00 0.  1.
         12    1    6    6    0    0 -0.10967814021E+03  0.70376016767E+02  0.51225014580E+02  0.14002171365E+03  0.00000000000E+00 0. -1.
         -5    1    3    3    0  503  0.26793792834E+02 -0.92146350829E+02 -0.22025554274E+01  0.96103062157E+02  0.47000000000E+01 0.  1.
         11    1    4    4    0    0  0.50462516415E+02 -0.80757317401E+01 -0.43008404124E+01  0.51285282824E+02  0.00000000000E+00 0. -1.
        -12    1    4    4    0    0  0.36765194541E+01  0.34945070521E+02 -0.51346243601E+02  0.62218256814E+02  0.00000000000E+00 0.  1.
</event>
<event>
12    1  0.8493057E-002  0.2804592E+03  0.7818608E-02  0.1095904E+00
         21   -1    0    0  501  502  0.00000000000E+00  0.00000000000E+00  0.43966378980E+03  0.43966378980E+03  0.00000000000E+00 0.  1.
         21   -1    0    0  502  503 -0.00000000000E+00 -0.00000000000E+00 -0.18022329939E+03  0.18022329939E+03  0.00000000000E+00 0. -1.
         -6    2    1    2    0  503  0.18099967578E+03 -0.12876165821E+03  0.85895481024E+02  0.29007615331E+03  0.16560704635E+03 0.  0.
        -24    2    3    3    0    0  0.89838205721E+02 -0.10487746852E+03  0.10760856088E+03  0.19325458558E+03  0.81838535320E+02 0.  0.
          6    2    1    2  501    0 -0.18099967578E+03  0.12876165821E+03  0.17354500939E+03  0.32981093588E+03  0.17122189080E+03 0.  0.
         24    2    5    5    0    0 -0.48959550009E+02  0.99729725890E+02  0.46212171388E+02  0.14403367802E+03  0.79164890297E+02 0.  0.
          5    1    5    5  501    0 -0.13204012577E+03  0.29031932319E+02  0.12733283800E+03  0.18577725787E+03  0.47000000000E+01 0. -1.
        -11    1    6    6    0    0  0.12813720253E+01  0.33055751030E+02  0.50578089259E+02  0.60435649277E+02  0.00000000000E+00 0.  1.
         12    1    6    6    0    0 -0.50240922034E+02  0.66673974860E+02 -0.43659178713E+01  0.83598028741E+02  0.00000000000E+00 0. -1.
         -5    1    3    3    0  503  0.91161470058E+02 -0.23884189693E+02 -0.21713079854E+02  0.96821567727E+02  0.47000000000E+01 0.  1.
         13    1    4    4    0    0 -0.49732136345E+01 -0.50243787764E+02  0.26309320325E+02  0.56932867473E+02  0.00000000000E+00 0. -1.
        -14    1    4    4    0    0  0.94811419356E+02 -0.54633680753E+02  0.81299240553E+02  0.13632171811E+03  0.00000000000E+00 0.  1.
</event>
<event>
12    1  0.8493057E-002  0.2261561E+03  0.7818608E-02  0.1130221E+00
         21   -1    0    0  501  502  0.00000000000E+00  0.00000000000E+00  0.43915204396E+03  0.43915204396E+03  0.00000000000E+00 0. -1.
         21   -1    0    0  502  503 -0.00000000000E+00 -0.00000000000E+00 -0.24044901000E+03  0.24044901000E+03  0.00000000000E+00 0. -1.
         -6    2    1    2    0  503 -0.47610154522E+02  0.13187781370E+03 -0.14746754538E+03  0.26610301037E+03  0.17148075877E+03 0.  0.
        -24    2    3    3    0    0 -0.63169387921E+02  0.14905580734E+03 -0.86148310162E+02  0.20038153886E+03  0.80766481293E+02 0.  0.
          6    2    1    2  501    0  0.47610154522E+02 -0.13187781370E+03  0.34617057934E+03  0.41349804359E+03  0.17744880245E+03 0.  0.
         24    2    5    5    0    0 -0.20065830798E+02 -0.23737873267E+02  0.21415721915E+03  0.22985735373E+03  0.77491705068E+02 0.  0.
          5    1    5    5  501    0  0.67675985320E+02 -0.10813994043E+03  0.13201336019E+03  0.18364068986E+03  0.47000000000E+01 0. -1.
        -13    1    6    6    0    0 -0.13330823625E+02  0.22268280904E+02  0.28851065689E+02  0.38806844556E+02  0.00000000000E+00 0.  1.
         14    1    6    6    0    0 -0.67350071730E+01 -0.46006154171E+02  0.18530615346E+03  0.19105050917E+03  0.00000000000E+00 0. -1.
         -5    1    3    3    0  503  0.15559233399E+02 -0.17177993643E+02 -0.61319235218E+02  0.65721471509E+02  0.47000000000E+01 0.  1.
         13    1    4    4    0    0 -0.40461678469E+02  0.10131999868E+03 -0.12626235340E+02  0.10982855446E+03  0.00000000000E+00 0. -1.
        -14    1    4    4    0    0 -0.22707709451E+02  0.47735808661E+02 -0.73522074822E+02  0.90552984397E+02  0.00000000000E+00 0.  1.
</event>
<event>
12    1  0.8493057E-002  0.1750270E+03  0.7818608E-02  0.1172729E+00
         21   -1    0    0  503  502  0.00000000000E+00  0.00000000000E+00  0.44910456679E+03  0.44910456679E+03  0.00000000000E+00 0. -1.
         21   -1    0    0  501  503 -0.00000000000E+00 -0.00000000000E+00 -0.96605960336E+02  0.96605960336E+02  0.00000000000E+00 0. -1.
          6    2    1    2  501    0 -0.21472994462E+02  0.16726140056E+02  0.28188849315E+02  0.17718471177E+03  0.17279744676E+03 0.  0.
         24    2    3    3    0    0 -0.44441052304E+02 -0.47503625605E+02  0.25913582677E+02  0.10877227638E+03  0.83236366843E+02 0.  0.
         -6    2    1    2    0  502  0.21472994462E+02 -0.16726140056E+02  0.32430975714E+03  0.36852581536E+03  0.17289767135E+03 0.  0.
        -24    2    5    5    0    0 -0.17059199348E+02 -0.44982319960E+02  0.30642508513E+03  0.31729015243E+03  0.66800319160E+02 0.  0.
          5    1    3    3  501    0  0.22968057843E+02  0.64229765660E+02  0.22752666374E+01  0.68412435391E+02  0.47000000000E+01 0. -1.
        -11    1    4    4    0    0  0.77321868453E+01 -0.28402469633E+02  0.41672748466E+02  0.51020632683E+02  0.00000000000E+00 0.  1.
         12    1    4    4    0    0 -0.52173239150E+02 -0.19101155972E+02 -0.15759165789E+02  0.57751643692E+02  0.00000000000E+00 0. -1.
         -5    1    5    5    0  502  0.38532193810E+02  0.28256179904E+02  0.17884672001E+02  0.51235662923E+02  0.47000000000E+01 0.  1.
         11    1    6    6    0    0  0.12100468696E+02  0.12370540932E+02  0.49738628301E+02  0.52662916468E+02  0.00000000000E+00 0. -1.
        -12    1    6    6    0    0 -0.29159668044E+02 -0.57352860891E+02  0.25668645683E+03  0.26462723597E+03  0.00000000000E+00 0.  1.
</event>
<event>
12    1  0.8493057E-002  0.2307068E+03  0.7818608E-02  0.1127754E+00
         21   -1    0    0  501  502  0.00000000000E+00  0.00000000000E+00  0.16403379366E+03  0.16403379366E+03  0.00000000000E+00 0. -1.
         21   -1    0    0  502  503 -0.00000000000E+00 -0.00000000000E+00 -0.13266849915E+04  0.13266849915E+04  0.00000000000E+00 0. -1.
         -6    2    1    2    0  503 -0.13329917221E+03  0.63268816130E+02 -0.12304431200E+04  0.12502580265E+04  0.16547884709E+03 0.  0.
        -24    2    3    3    0    0 -0.78356151153E+02 -0.27023621772E+02 -0.69630888060E+03  0.70574637775E+03  0.79761707329E+02 0.  0.
          6    2    1    2  501    0  0.13329917221E+03 -0.63268816130E+02  0.67791922106E+02  0.24046075872E+03  0.17735281046E+03 0.  0.
         24    2    5    5    0    0  0.10165008153E+03 -0.11256528310E+03  0.43510196623E+02  0.17687224727E+03  0.79918537327E+02 0.  0.
          5    1    5    5  501    0  0.31649090675E+02  0.49296466973E+02  0.24281725483E+02  0.63588511454E+02  0.47000000000E+01 0. -1.
        -11    1    6    6    0    0  0.83093711166E+02 -0.67646735087E+02 -0.62318349248E+01  0.10732884687E+03  0.00000000000E+00 0.  1.
         12    1    6    6    0    0  0.18556370365E+02 -0.44918548017E+02  0.49742031548E+02  0.69543400403E+02  0.00000000000E+00 0. -1.
         -5    1    3    3    0  503 -0.54943021053E+02  0.90292437902E+02 -0.53413423939E+03  0.54451164872E+03  0.47000000000E+01 0.  1.
         11    1    4    4    0    0 -0.57785620010E+02 -0.17869390673E+02 -0.20045822340E+03  0.20938479489E+03  0.00000000000E+00 0. -1.
        -12    1    4    4    0    0 -0.20570531143E+02 -0.91542310993E+01 -0.49585065719E+03  0.49636158286E+03  0.00000000000E+00 0.  1.
</event>
<event>
12    1  0.8493057E-002  0.2400647E+03  0.7818608E-02  0.1120041E+00
         21   -1    0    0  501  502  0.00000000000E+00  0.00000000000E+00  0.37291570929E+03  0.37291570929E+03  0.00000000000E+00 0. -1.
         21   -1    0    0  502  503 -0.00000000000E+00 -0.00000000000E+00 -0.18463921541E+03  0.18463921541E+03  0.00000000000E+00 0. -1.
         -6    2    1    2    0  503  0.66152623877E+02  0.14941213827E+03 -0.20776549293E+02  0.23922451994E+03  0.17348357050E+03 0.  0.
        -24    2    3    3    0    0  0.30744640805E+02  0.32215544999E+02 -0.61127358285E+02  0.11023209952E+03  0.80196555765E+02 0.  0.
          6    2    1    2  501    0 -0.66152623877E+02 -0.14941213827E+03  0.20905304318E+03  0.31833040476E+03  0.17587187105E+03 0.  0.
         24    2    5    5    0    0 -0.52527228977E+02 -0.11799033971E+03  0.57891447463E+02  0.16326622827E+03  0.81385573392E+02 0.  0.
          5    1    5    5  501    0 -0.13625394900E+02 -0.31421798556E+02  0.15116159571E+03  0.15506417649E+03  0.47000000000E+01 0. -1.
        -13    1    6    6    0    0 -0.15190848227E+02 -0.87736787214E+01 -0.17995992686E+02  0.25131555083E+02  0.00000000000E+00 0.  1.
         14    1    6    6    0    0 -0.37336380751E+02 -0.10921666099E+03  0.75887440149E+02  0.13813467319E+03  0.00000000000E+00 0. -1.
         -5    1    3    3    0  503  0.35407983072E+02  0.11719659327E+03  0.40350808992E+02  0.12899242042E+03  0.47000000000E+01 0.  1.
         11    1    4    4    0    0  0.27160763471E+02  0.27404098936E+02  0.91870171548E+01  0.39662236384E+02  0.00000000000E+00 0. -1.
        -12    1    4    4    0    0  0.35838773342E+01  0.48114460630E+01 -0.70314375440E+02  0.70569863139E+02  0.00000000000E+00 0.  1.
</event>
<event>
12    1  0.8493057E-002  0.2404743E+03  0.7818608E-02  0.1119908E+00
         21   -1    0    0  501  502  0.00000000000E+00  0.00000000000E+00  0.10214864208E+04  0.10214864208E+04  0.00000000000E+00 0. -1.
         21   -1    0    0  502  503 -0.00000000000E+00 -0.00000000000E+00 -0.57917495411E+02  0.57917495411E+02  0.00000000000E+00 0. -1.
         -6    2    1    2    0  503  0.16791980609E+03  0.27210073379E+01  0.58235359558E+03  0.63005047503E+03  0.17211457125E+03 0.  0.
        -24    2    3    3    0    0  0.15066826648E+03  0.75930067449E+01  0.58663651257E+03  0.61102981850E+03  0.80352105964E+02 0.  0.
          6    2    1    2  501    0 -0.16791980609E+03 -0.27210073379E+01  0.38121532980E+03  0.44935344118E+03  0.16849012514E+03 0.  0.
         24    2    5    5    0    0 -0.10024627497E+03  0.39124958672E+02  0.32582963832E+03  0.35229440499E+03  0.79789200657E+02 0.  0.
          5    1    5    5  501    0 -0.67673531122E+02 -0.41845966010E+02  0.55385691478E+02  0.97059036191E+02  0.47000000000E+01 0. -1.
        -13    1    6    6    0    0 -0.58366371613E+00 -0.18636405347E+02  0.50941427824E+02  0.54246523726E+02  0.00000000000E+00 0.  1.
         14    1    6    6    0    0 -0.99662611249E+02  0.57761364019E+02  0.27488821050E+03  0.29804788126E+03  0.00000000000E+00 0. -1.
         -5    1    3    3    0  503  0.17251539603E+02 -0.48719994070E+01 -0.42829169888E+01  0.19020656530E+02  0.47000000000E+01 0.  1.
         11    1    4    4    0    0  0.72708921343E+02  0.33083029896E+02  0.19190370601E+03  0.20786559718E+03  0.00000000000E+00 0. -1.
        -12    1    4    4    0    0  0.77959345141E+02 -0.25490023151E+02  0.39473280656E+03  0.40316422132E+03  0.00000000000E+00 0.  1.
</event>
<event>
12    1  0.8493057E-002  0.1813848E+03  0.7818608E-02  0.1169864E+00
         21   -1    0    0  503  502  0.00000000000E+00  0.00000000000E+00  0.51710908730E+03  0.51710908730E+03  0.00000000000E+00 0. -1.
         21   -1    0    0  501  503 -0.00000000000E+00 -0.00000000000E+00 -0.61525277514E+02  0.61525277514E+02  0.00000000000E+00 0. -1.
          6    2    1    2  501    0  0.25069908593E+02  0.38866528454E+02  0.29549274289E+03  0.34672240185E+03  0.17538915444E+03 0.  0.
         24    2    3    3    0    0 -0.13795797703E+02  0.96557403792E+01  0.49117119460E+02  0.95551441973E+02  0.80212401052E+02 0.  0.
         -6    2    1    2    0  502 -0.25069908593E+02 -0.38866528454E+02  0.16009106689E+03  0.23191196296E+03  0.16129135598E+03 0.  0.
        -24    2    5    5    0    0 -0.36588414825E+02  0.22307368832E+02  0.46929738005E+02  0.10267381824E+03  0.80642307995E+02 0.  0.
          5    1    3    3  501    0  0.38865706296E+02  0.29210788075E+02  0.24637562343E+03  0.25117095988E+03  0.47000000000E+01 0. -1.
        -11    1    4    4    0    0 -0.23322219325E+02  0.41046727755E+02  0.38961431990E+02  0.61210725828E+02  0.00000000000E+00 0.  1.
         12    1    4    4    0    0  0.95264216220E+01 -0.31390987376E+02  0.10155687470E+02  0.34340716145E+02  0.00000000000E+00 0. -1.
         -5    1    5    5    0  502  0.11518506233E+02 -0.61173897286E+02  0.11316132889E+03  0.12923814472E+03  0.47000000000E+01 0.  1.
         11    1    6    6    0    0 -0.59680665919E+02  0.43853435032E+01  0.20470069856E+02  0.63245844781E+02  0.00000000000E+00 0. -1.
        -12    1    6    6    0    0  0.23092251093E+02  0.17922025329E+02  0.26459668148E+02  0.39427973457E+02  0.00000000000E+00 0.  1.
</event>
<event>
12    1  0.8493057E-002  0.3088919E+03  0.7818608E-02  0.1081030E+00
         21   -1    0    0  503  502  0.00000000000E+00  0.00000000000E+00  0.28940736393E+03  0.28940736393E+03  0.00000000000E+00 0. -1.
         21   -1    0    0  501  503 -0.00000000000E+00 -0.00000000000E+00 -0.51037400050E+03  0.51037400050E+03  0.00000000000E+00 0. -1.
          6    2    1    2  501    0 -0.74775484370E+02 -0.24519276270E+03 -0.34915727849E+03  0.46534593664E+03  0.17007401827E+03 0.  0.
         24    2    3    3    0    0 -0.55349065793E+01 -0.40964075061E+02 -0.13796331643E+03  0.16347080671E+03  0.77331347641E+02 0.  0.
         -6    2    1    2    0  502  0.74775484370E+02  0.24519276270E+03  0.12819064192E+03  0.33443542779E+03  0.17234660062E+03 0.  0.
        -24    2    5    5    0    0  0.47225584306E+02  0.12640125389E+03 -0.13617650875E+01  0.15645695797E+03  0.79179495423E+02 0.  0.
          5    1    3    3  501    0 -0.69240577791E+02 -0.20422868763E+03 -0.21119396205E+03  0.30187512994E+03  0.47000000000E+01 0. -1.
        -13    1    4    4    0    0 -0.30761465952E+02 -0.24137399258E+02 -0.12412670130E+03  0.13013961659E+03  0.00000000000E+00 0.  1.
         14    1    4    4    0    0  0.25226559372E+02 -0.16826675802E+02 -0.13836615133E+02  0.33331190118E+02  0.00000000000E+00 0. -1.
         -5    1    5    5    0  502  0.27549900064E+02  0.11879150880E+03  0.12955240701E+03  0.17797846982E+03  0.47000000000E+01 0.  1.
         11    1    6    6    0    0  0.31336973289E+02  0.11816615010E+03  0.24818586435E+02  0.12474456764E+03  0.00000000000E+00 0. -1.
        -12    1    6    6    0    0  0.15888611017E+02  0.82351037943E+01 -0.26180351523E+02  0.31712390330E+02  0.00000000000E+00 0.  1.
</event>
<event>
12    1  0.8493057E-002  0.1807859E+03  0.7818608E-02  0.1168437E+00
         21   -1    0    0  503  502  0.00000000000E+00  0.00000000000E+00  0.18044744418E+03  0.18044744418E+03  0.00000000000E+00 0.  1.
         21   -1    0    0  501  503 -0.00000000000E+00 -0.00000000000E+00 -0.17746487493E+03  0.17746487493E+03  0.00000000000E+00 0.  1.
          6    2    1    2  501    0 -0.37368360445E+02 -0.43543611200E+02  0.20429453969E+02  0.17628653682E+03  0.16543016664E+03 0.  0.
         24    2    3    3    0    0  0.31088881026E+01  0.17544678231E+02 -0.29816243153E+02  0.87309535099E+02  0.80102844168E+02 0.  0.
         -6    2    1    2    0  502  0.37368360445E+02  0.43543611200E+02 -0.17446884723E+02  0.18162578229E+03  0.17143829960E+03 0.  0.
        -24    2    5    5    0    0  0.57968295506E+02  0.76040063061E+02 -0.47395084192E+02  0.13264250597E+03  0.78773891044E+02 0.  0.
          5    1    3    3  501    0 -0.40477248547E+02 -0.61088289431E+02  0.50245697122E+02  0.88977001719E+02  0.47000000000E+01 0. -1.
        -13    1    4    4    0    0 -0.33485891978E+02  0.20463445343E+02 -0.31850561641E+02  0.50542218330E+02  0.00000000000E+00 0.  1.
         14    1    4    4    0    0  0.36594780081E+02 -0.29187671116E+01  0.20343184878E+01  0.36767316768E+02  0.00000000000E+00 0. -1.
         -5    1    5    5    0  502 -0.20599935061E+02 -0.32496451861E+02  0.29948199469E+02  0.48983276325E+02  0.47000000000E+01 0.  1.
         13    1    6    6    0    0  0.24552176556E+02  0.19304907450E+02 -0.58071663142E+02  0.65937901736E+02  0.00000000000E+00 0. -1.
        -14    1    6    6    0    0  0.33416118950E+02  0.56735155611E+02  0.10676578950E+02  0.66704604233E+02  0.00000000000E+00 0.  1.
</event>
<event>
12    1  0.8493057E-002  0.2028776E+03  0.7818608E-02  0.1147335E+00
         21   -1    0    0  503  502  0.00000000000E+00  0.00000000000E+00  0.91255409964E+03  0.91255409964E+03  0.00000000000E+00 0.  1.
         21   -1    0    0  501  503 -0.00000000000E+00 -0.00000000000E+00 -0.92388344255E+02  0.92388344255E+02  0.00000000000E+00 0. -1.
          6    2    1    2  501    0  0.35039297694E+02 -0.10271440408E+03  0.50609575753E+02  0.20909480825E+03  0.17140976779E+03 0.  0.
         24    2    3    3    0    0  0.42654967965E+01 -0.12807902705E+03  0.80099058527E+01  0.15055240656E+03  0.78609394450E+02 0.  0.
         -6    2    1    2    0  502 -0.35039297694E+02  0.10271440408E+03  0.76955617964E+03  0.79584763565E+03  0.17140228808E+03 0.  0.
        -24    2    5    5    0    0 -0.49129471545E+02 -0.56617435422E+01  0.33872859704E+03  0.35134969606E+03  0.79144084763E+02 0.  0.
          5    1    3    3  501    0  0.30773800897E+02  0.25364622977E+02  0.42599669900E+02  0.58542401693E+02  0.47000000000E+01 0. -1.
        -11    1    4    4    0    0 -0.22283188786E+02 -0.37828808163E+02  0.30956421884E+02  0.53720194391E+02  0.00000000000E+00 0.  1.
         12    1    4    4    0    0  0.26548685582E+02 -0.90250218890E+02 -0.22946516032E+02  0.96832212170E+02  0.00000000000E+00 0. -1.
         -5    1    5    5    0  502  0.14090173851E+02  0.10837614762E+03  0.43082758259E+03  0.44449793959E+03  0.47000000000E+01 0.  1.
         13    1    6    6    0    0 -0.51806547987E+02 -0.12067718992E+02  0.10676762997E+03  0.11928484844E+03  0.00000000000E+00 0. -1.
        -14    1    6    6    0    0  0.26770764421E+01  0.64059754493E+01  0.23196096707E+03  0.23206484762E+03  0.00000000000E+00 0.  1.
</event>
<event>
12    1  0.8493057E-002  0.1900352E+03  0.7818608E-02  0.1160701E+00
         21   -1    0    0  503  502  0.00000000000E+00  0.00000000000E+00  0.69252887605E+02  0.69252887605E+02  0.00000000000E+00 0. -1.
         21   -1    0    0  501  503 -0.00000000000E+00 -0.00000000000E+00 -0.66836465199E+03  0.66836465199E+03  0.00000000000E+00 0. -1.
          6    2    1    2  501    0  0.46798141034E+02 -0.24237446174E+02 -0.49323930239E+03  0.52858148173E+03  0.18258108775E+03 0.  0.
         24    2    3    3    0    0  0.57392846272E+02 -0.68189988872E+02 -0.21614137429E+03  0.24778008297E+03  0.82061333469E+02 0.  0.
         -6    2    1    2    0  502 -0.46798141034E+02  0.24237446174E+02 -0.10587246200E+03  0.20903605786E+03  0.17236465844E+03 0.  0.
        -24    2    5    5    0    0 -0.52098401722E+02 -0.28235455640E+02 -0.11638447225E+03  0.15505374087E+03  0.83575311906E+02 0.  0.
          5    1    3    3  501    0 -0.10594705238E+02  0.43952542698E+02 -0.27709792810E+03  0.28080139876E+03  0.47000000000E+01 0. -1.
        -13    1    4    4    0    0  0.71994124425E+01 -0.70144362469E+02 -0.13611633876E+03  0.15329618652E+03  0.00000000000E+00 0.  1.
         14    1    4    4    0    0  0.50193433830E+02  0.19543735969E+01 -0.80025035535E+02  0.94483896449E+02  0.00000000000E+00 0. -1.
         -5    1    5    5    0  502  0.53002606879E+01  0.52472901814E+02  0.10512010257E+02  0.53982316992E+02  0.47000000000E+01 0.  1.
         11    1    6    6    0    0 -0.53406083325E+02 -0.43561584967E+02 -0.45650774978E+02  0.82666889848E+02  0.00000000000E+00 0. -1.
        -12    1    6    6    0    0  0.13076816032E+01  0.15326129327E+02 -0.70733697274E+02  0.72386851025E+02  0.00000000000E+00 0.  1.
</event>
<event>
12    1  0.8493057E-002  0.1905406E+03  0.7818608E-02  0.1159246E+00
         21   -1    0    0  501  502  0.00000000000E+00  0.00000000000E+00  0.11577192797E+03  0.11577192797E+03  0.00000000000E+00 0.  1.
         21   -1    0    0  502  503 -0.00000000000E+00 -0.00000000000E+00 -0.57238262034E+03  0.57238262034E+03  0.00000000000E+00 0.  1.
         -6    2    1    2    0  503 -0.49755706078E+02 -0.54267346572E+02 -0.46188002657E+03  0.49754112648E+03  0.16968629411E+03 0.  0.
        -24    2    3    3    0    0 -0.18879384222E+02 -0.71522779359E+02 -0.16054905539E+03  0.19410490353E+03  0.80179643742E+02 0.  0.
          6    2    1    2  501    0  0.49755706078E+02  0.54267346572E+02  0.52693341941E+01  0.19061342183E+03  0.17574167265E+03 0.  0.
         24    2    5    5    0    0 -0.29010318107E+02 -0.89512099793E+01  0.16919520937E+02  0.88836757953E+02  0.81755590989E+02 0.  0.
          5    1    5    5  501    0  0.78766024186E+02  0.63218556552E+02 -0.11650186743E+02  0.10177666388E+03  0.47000000000E+01 0. -1.
        -13    1    6    6    0    0 -0.15974889111E+02 -0.31736672550E+02 -0.22074971897E+02  0.41829628865E+02  0.00000000000E+00 0.  1.
         14    1    6    6    0    0 -0.13035428996E+02  0.22785462571E+02  0.38994492834E+02  0.47007129088E+02  0.00000000000E+00 0. -1.
         -5    1    3    3    0  503 -0.30876321856E+02  0.17255432787E+02 -0.30133097117E+03  0.30343622295E+03  0.47000000000E+01 0.  1.
         13    1    4    4    0    0  0.31359306229E+02 -0.23957753699E+02 -0.66903172926E+02  0.77675057754E+02  0.00000000000E+00 0. -1.
        -14    1    4    4    0    0 -0.50238690451E+02 -0.47565025660E+02 -0.93645882467E+02  0.11642984578E+03  0.00000000000E+00 0.  1.
</event>
<event>
12    1  0.8493057E-002  0.1808274E+03  0.7818608E-02  0.1167413E+00
         21   -1    0    0  503  502  0.00000000000E+00  0.00000000000E+00  0.51320301047E+03  0.51320301047E+03  0.00000000000E+00 0.  1.
         21   -1    0    0  501  503 -0.00000000000E+00 -0.00000000000E+00 -0.86208154782E+02  0.86208154782E+02  0.00000000000E+00 0. -1.
          6    2    1    2  501    0  0.50199102724E+02  0.17168565899E+01  0.36785971811E+03  0.40915995158E+03  0.17195405276E+03 0.  0.
         24    2    3    3    0    0 -0.11770491421E+02 -0.32087080284E+02  0.10382318632E+03  0.13580977897E+03  0.80603454373E+02 0.  0.
         -6    2    1    2    0  502 -0.50199102724E+02 -0.17168565899E+01  0.59135137579E+02  0.19025121367E+03  0.17371143398E+03 0.  0.
        -24    2    5    5    0    0 -0.28534887928E+02  0.25064860935E+02  0.10191451293E+03  0.13512623248E+03  0.80187553125E+02 0.  0.
          5    1    3    3  501    0  0.61969594145E+02  0.33803936874E+02  0.26403653179E+03  0.27335017261E+03  0.47000000000E+01 0. -1.
        -13    1    4    4    0    0  0.33622758630E+02 -0.20712158033E+02  0.36188561395E+02  0.53563937160E+02  0.00000000000E+00 0.  1.
         14    1    4    4    0    0 -0.45393250051E+02 -0.11374922251E+02  0.67634624921E+02  0.82245841807E+02  0.00000000000E+00 0. -1.
         -5    1    5    5    0  502 -0.21664214796E+02 -0.26781717525E+02 -0.42779375347E+02  0.55124981192E+02  0.47000000000E+01 0.  1.
         11    1    6    6    0    0 -0.22908723659E+02  0.48874979871E+02  0.36166626763E+02  0.64973826796E+02  0.00000000000E+00 0. -1.
        -12    1    6    6    0    0 -0.56261642684E+01 -0.23810118936E+02  0.65747886164E+02  0.70152405683E+02  0.00000000000E+00 0.  1.
</event>
<event>
12    1  0.8493057E-002  0.2018263E+03  0.7818608E-02  0.1148954E+00
         21   -1    0    0  501  502  0.00000000000E+00  0.00000000000E+00  0.21691237918E+03  0.21691237918E+03  0.00000000000E+00 0. -1.
         21   -1    0    0  502  503 -0.00000000000E+00 -0.00000000000E+00 -0.25471151743E+03  0.25471151743E+03  0.00000000000E+00 0.  1.
         -6    2    1    2    0  503 -0.98540500615E+02  0.32548766784E+02 -0.14257810326E+03  0.24422009600E+03  0.16895350626E+03 0.  0.
        -24    2    3    3    0    0 -0.12626019930E+03  0.52908099222E+02 -0.92114087996E+02  0.18296986376E+03  0.79069974989E+02 0.  0.
          6    2    1    2  501    0  0.98540500615E+02 -0.32548766784E+02  0.10477896501E+03  0.22740380062E+03  0.17310171734E+03 0.  0.
         24    2    5    5    0    0  0.44019197337E+02 -0.82422115769E+02  0.91132719120E+02  0.15211612914E+03  0.78122015771E+02 0.  0.
          5    1    5    5  501    0  0.54521303278E+02  0.49873348985E+02  0.13646245892E+02  0.75287671481E+02  0.47000000000E+01 0. -1.
        -11    1    6    6    0    0  0.58746819745E+01  0.89393368257E+01 -0.69471004691E+01  0.12754835793E+02  0.00000000000E+00 0.  1.
         12    1    6    6    0    0  0.38144515363E+02 -0.91361452594E+02  0.98079819589E+02  0.13936129335E+03  0.00000000000E+00 0. -1.
         -5    1    3    3    0  503  0.27719698689E+02 -0.20359332438E+02 -0.50464015263E+02  0.61250232238E+02  0.47000000000E+01 0.  1.
         11    1    4    4    0    0 -0.81421996908E+02  0.24120418768E+02 -0.10590516590E+02  0.85577422395E+02  0.00000000000E+00 0. -1.
        -12    1    4    4    0    0 -0.44838202395E+02  0.28787680454E+02 -0.81523571405E+02  0.97392441363E+02  0.00000000000E+00 0.  1.
</event>
<event>
12    1  0.8493057E-002  0.1782345E+03  0.7818608E-02  0.1170197E+00
         21   -1    0    0  501  502  0.00000000000E+00  0.00000000000E+00  0.20596874180E+03  0.20596874180E+03  0.00000000000E+00 0.  1.
         21   -1    0    0  502  503 -0.00000000000E+00 -0.00000000000E+00 -0.25636342572E+03  0.25636342572E+03  0.00000000000E+00 0.  1.
         -6    2    1    2    0  503  0.35979325236E+02  0.98093258305E+01 -0.17265568487E+03  0.24619493541E+03  0.17149701452E+03 0.  0.
        -24    2    3    3    0    0  0.76350173708E+01 -0.26539972963E+02 -0.18039548532E+03  0.19921977366E+03  0.79895703504E+02 0.  0.
          6    2    1    2  501    0 -0.35979325236E+02 -0.98093258305E+01  0.12226100095E+03  0.21613723210E+03  0.17428946047E+03 0.  0.
         24    2    5    5    0    0 -0.74835002842E+02 -0.10457024420E+02  0.13582409397E+03  0.17470981741E+03  0.79785392065E+02 0.  0.
          5    1    5    5  501    0  0.38855677606E+02  0.64769858946E+00 -0.13563093022E+02  0.41427414692E+02  0.47000000000E+01 0. -1.
        -13    1    6    6    0    0 -0.34166848174E+02 -0.21272693489E+02  0.12491223847E+03  0.13123630718E+03  0.00000000000E+00 0.  1.
         14    1    6    6    0    0 -0.40668154668E+02  0.10815669069E+02  0.10911855502E+02  0.43473510233E+02  0.00000000000E+00 0. -1.
         -5    1    3    3    0  503  0.28344307865E+02  0.36349298793E+02  0.77398004459E+01  0.46975161756E+02  0.47000000000E+01 0.  1.
         11    1    4    4    0    0  0.77428159816E+00 -0.36969564755E+02 -0.28175623915E+02  0.46488859022E+02  0.00000000000E+00 0. -1.
        -12    1    4    4    0    0  0.68607357727E+01  0.10429591792E+02 -0.15221986140E+03  0.15273091464E+03  0.00000000000E+00 0.  1.
</event>
<event>
12    1  0.8493057E-002  0.2110125E+03  0.7818608E-02  0.1141488E+00
         21   -1    0    0  501  502  0.00000000000E+00  0.00000000000E+00  0.17102479824E+03  0.17102479824E+03  0.00000000000E+00 0. -1.
         21   -1    0    0  502  503 -0.00000000000E+00 -0.00000000000E+00 -0.40326147750E+03  0.40326147750E+03  0.00000000000E+00 0.  1.
         -6    2    1    2    0  503  0.10158781459E+03  0.63149783779E+02 -0.29033786685E+03  0.35891829343E+03  0.17383407366E+03 0.  0.
        -24    2    3    3    0    0  0.12157006685E+03  0.77378807891E+02 -0.17142118637E+03  0.23740688479E+03  0.78803837138E+02 0.  0.
          6    2    1    2  501    0 -0.10158781459E+03 -0.63149783779E+02  0.58101187589E+02  0.21536798231E+03  0.16940968254E+03 0.  0.
         24    2    5    5    0    0 -0.79400816816E+02 -0.16082699344E+02 -0.25492506323E+02  0.11679025171E+03  0.80168273567E+02 0.  0.
          5    1    5    5  501    0 -0.22186997779E+02 -0.47067084435E+02  0.83593693912E+02  0.98577730596E+02  0.47000000000E+01 0. -1.
        -11    1    6    6    0    0  0.32346242047E+01 -0.29947727998E+02 -0.84416583395E+01  0.31282435990E+02  0.00000000000E+00 0.  1.
         12    1    6    6    0    0 -0.82635441020E+02  0.13865028654E+02 -0.17050847983E+02  0.85507815720E+02  0.00000000000E+00 0. -1.
         -5    1    3    3    0  503 -0.19982252252E+02 -0.14229024112E+02 -0.11891668048E+03  0.12151140864E+03  0.47000000000E+01 0.  1.
         13    1    4    4    0    0  0.94710055474E+02  0.40528503336E+02 -0.65474242006E+02  0.12206322360E+03  0.00000000000E+00 0. -1.
        -14    1    4    4    0    0  0.26860011372E+02  0.36850304555E+02 -0.10594694436E+03  0.11534366119E+03  0.00000000000E+00 0.  1.
</event>
<event>
12    1  0.8493057E-002  0.1740025E+03  0.7818608E-02  0.1174291E+00
         21   -1    0    0  501  502  0.00000000000E+00  0.00000000000E+00  0.24783674677E+03  0.24783674677E+03  0.00000000000E+00 0. -1.
         21   -1    0    0  502  503 -0.00000000000E+00 -0.00000000000E+00 -0.23723134364E+03  0.23723134364E+03  0.00000000000E+00 0. -1.
         -6    2    1    2    0  503  0.16446070450E+01  0.12840790489E+02 -0.16470598286E+03  0.23959326039E+03  0.17352025530E+03 0.  0.
        -24    2    3    3    0    0 -0.43218112799E+02  0.63493410322E+01 -0.17098225173E+03  0.19359017246E+03  0.79587091051E+02 0.  0.
          6    2    1    2  501    0 -0.16446070450E+01 -0.12840790489E+02  0.17531138598E+03  0.24547483002E+03  0.17133656786E+03 0.  0.
         24    2    5    5    0    0 -0.67327450670E+02 -0.71188733441E+01  0.96614160738E+02  0.14270168400E+03  0.80285805656E+02 0.  0.
          5    1    5    5  501    0  0.65682843625E+02 -0.57219171454E+01  0.78697225245E+02  0.10277314602E+03  0.47000000000E+01 0. -1.
        -13    1    6    6    0    0 -0.50312152126E+02  0.30634726298E+02  0.76816628779E+02  0.96801826243E+02  0.00000000000E+00 0.  1.
         14    1    6    6    0    0 -0.17015298544E+02 -0.37753599642E+02  0.19797531959E+02  0.45899857757E+02  0.00000000000E+00 0. -1.
         -5    1    3    3    0  503  0.44862719844E+02  0.64914494572E+01  0.62762688676E+01  0.46003087926E+02  0.47000000000E+01 0.  1.
         11    1    4    4    0    0 -0.29459882351E+02  0.23548064310E+02 -0.16700338134E+03  0.17120901081E+03  0.00000000000E+00 0. -1.
        -12    1    4    4    0    0 -0.13758230448E+02 -0.17198723278E+02 -0.39788703829E+01  0.22381161654E+02  0.00000000000E+00 0.  1.
</event>
<event>
12    1  0.8493057E-002  0.3792403E+03  0.7818608E-02  0.1051456E+00
         21   -1    0    0  503  502  0.00000000000E+00  0.00000000000E+00  0.66518060786E+03  0.66518060786E+03  0.00000000000E+00 0.  1.
         21   -1    0    0  501  503 -0.00000000000E+00 -0.00000000000E+00 -0.21547916975E+03  0.21547916975E+03  0.00000000000E+00 0.  1.
          6    2    1    2  501    0 -0.28165894048E+03 -0.18560103606E+03  0.25134837207E+03  0.45497162311E+03  0.17333110036E+03 0.  0.
         24    2    3    3    0    0 -0.81451368601E+02 -0.10789994729E+03  0.15333188527E+03  0.21885755593E+03  0.78174411901E+02 0.  0.
         -6    2    1    2    0  502  0.28165894048E+03  0.18560103606E+03  0.19835306603E+03  0.42568815449E+03  0.16759165471E+03 0.  0.
        -24    2    5    5    0    0  0.27653501734E+03  0.12336646252E+03  0.15285150139E+03  0.34828092539E+03  0.79026081927E+02 0.  0.
          5    1    3    3  501    0 -0.20020757188E+03 -0.77701088774E+02  0.98016486809E+02  0.23611406718E+03  0.47000000000E+01 0. -1.
        -13    1    4    4    0    0 -0.62473047246E+02 -0.54712354112E+02  0.39870648041E+02  0.92119443658E+02  0.00000000000E+00 0.  1.
         14    1    4    4    0    0 -0.18978321355E+02 -0.53187593179E+02  0.11346123722E+03  0.12673811227E+03  0.00000000000E+00 0. -1.
         -5    1    5    5    0  502  0.51239231456E+01  0.62234573546E+02  0.45501564636E+02  0.77407229102E+02  0.47000000000E+01 0.  1.
         11    1    6    6    0    0  0.93153727224E+02  0.83785407001E+02  0.58071346728E+02  0.13809378202E+03  0.00000000000E+00 0. -1.
        -12    1    6    6    0    0  0.18338129011E+03  0.39581055517E+02  0.94780154665E+02  0.21018714337E+03  0.00000000000E+00 0.  1.
</event>
<event>
12    1  0.8493057E-002  0.1728442E+03  0.7818608E-02  0.1175081E+00
         21   -1    0    0  501  502  0.00000000000E+00  0.00000000000E+00  0.19087011009E+03  0.19087011009E+03  0.00000000000E+00 0.  1.
         21   -1    0    0  502  503 -0.00000000000E+00 -0.00000000000E+00 -0.20002952350E+03  0.20002952350E+03  0.00000000000E+00 0.  1.
         -6    2    1    2    0  503 -0.19398932964E+01  0.89461129134E+01 -0.96344438688E+02  0.19731158690E+03  0.17194712948E+03 0.  0.
        -24    2    3    3    0    0  0.45580661548E+02 -0.42622246355E+02 -0.64413821155E+02  0.12011603556E+03  0.79902872609E+02 0.  0.
          6    2    1    2  501    0  0.19398932964E+01 -0.89461129134E+01  0.87185025279E+02  0.19358804669E+03  0.17260158477E+03 0.  0.
         24    2    5    5    0    0 -0.11785382526E+02  0.36458305839E+02 -0.96307757065E+01  0.85674499069E+02  0.76021474887E+02 0.  0.
          5    1    5    5  501    0  0.13725275823E+02 -0.45404418753E+02  0.96815800986E+02  0.10791354762E+03  0.47000000000E+01 0. -1.
        -11    1    6    6    0    0  0.79844643357E+01 -0.89735486704E+01 -0.29838302124E+02  0.32165206670E+02  0.00000000000E+00 0.  1.
         12    1    6    6    0    0 -0.19769846862E+02  0.45431854509E+02  0.20207526417E+02  0.53509292399E+02  0.00000000000E+00 0. -1.
         -5    1    3    3    0  503 -0.47520554844E+02  0.51568359269E+02 -0.31930617533E+02  0.77195551338E+02  0.47000000000E+01 0.  1.
         11    1    4    4    0    0 -0.52331492282E+01  0.19015602559E+02 -0.22446271960E+02  0.29879995255E+02  0.00000000000E+00 0. -1.
        -12    1    4    4    0    0  0.50813810776E+02 -0.61637848915E+02 -0.41967549195E+02  0.90236040305E+02  0.00000000000E+00 0.  1.
</event>
<event>
12    1  0.8493057E-002  0.1864809E+03  0.7818608E-02  0.1161816E+00
         21   -1    0    0  503  502  0.00000000000E+00  0.00000000000E+00  0.14096736353E+03  0.14096736353E+03  0.00000000000E+00 0. -1.
         21   -1    0    0  501  503 -0.00000000000E+00 -0.00000000000E+00 -0.24588532809E+03  0.24588532809E+03  0.00000000000E+00 0. -1.
          6    2    1    2  501    0 -0.27641639075E+02  0.67183830890E+02 -0.53287060928E+02  0.19335621551E+03  0.17108298533E+03 0.  0.
         24    2    3    3    0    0 -0.72992491629E+02  0.15755789565E+01 -0.17131358440E+02  0.10566090565E+03  0.74433576138E+02 0.  0.
         -6    2    1    2    0  502  0.27641639075E+02 -0.67183830890E+02 -0.51630903630E+02  0.19349647611E+03  0.17174809668E+03 0.  0.
        -24    2    5    5    0    0  0.35927519196E+02 -0.81780270841E+02  0.16782918393E+02  0.12289723452E+03  0.82724026553E+02 0.  0.
          5    1    3    3  501    0  0.45350852554E+02  0.65608251933E+02 -0.36155702488E+02  0.87695309860E+02  0.47000000000E+01 0. -1.
        -11    1    4    4    0    0 -0.19414682090E+01 -0.27407479741E+02 -0.30551848336E+01  0.27645495093E+02  0.00000000000E+00 0.  1.
         12    1    4    4    0    0 -0.71051023420E+02  0.28983058697E+02 -0.14076173606E+02  0.78015410553E+02  0.00000000000E+00 0. -1.
         -5    1    5    5    0  502 -0.82858801216E+01  0.14596439951E+02 -0.68413822023E+02  0.70599241585E+02  0.47000000000E+01 0.  1.
         13    1    6    6    0    0 -0.25808222445E+02 -0.12106215500E+02  0.13675788373E+01  0.28539360038E+02  0.00000000000E+00 0. -1.
        -14    1    6    6    0    0  0.61735741641E+02 -0.69674055341E+02  0.15415339556E+02  0.94357874485E+02  0.00000000000E+00 0.  1.
</event>
<event>
12    1  0.8493057E-002  0.1735508E+03  0.7818608E-02  0.1174475E+00
         21   -1    0    0  501  502  0.00000000000E+00  0.00000000000E+00  0.86114317685E+03  0.86114317685E+03  0.00000000000E+00 0. -1.
         21   -1    0    0  502  503 -0.00000000000E+00 -0.00000000000E+00 -0.77908826182E+02  0.77908826182E+02  0.00000000000E+00 0. -1.
         -6    2    1    2    0  503 -0.19712555147E+01  0.16162588153E+02  0.74161229251E+03  0.76164864470E+03  0.17278527271E+03 0.  0.
        -24    2    3    3    0    0  0.14554611936E+02  0.64015489115E+02  0.64515270791E+03  0.65260945044E+03  0.73261577194E+02 0.  0.
          6    2    1    2  501    0  0.19712555147E+01 -0.16162588153E+02  0.41622058162E+02  0.17740335834E+03  0.17168121831E+03 0.  0.
         24    2    5    5    0    0  0.51476241354E+02 -0.32769118449E+02 -0.14105737470E+02  0.10089062948E+03  0.79096957836E+02 0.  0.
          5    1    5    5  501    0 -0.49504985839E+02  0.16606530296E+02  0.55727795632E+02  0.76512728859E+02  0.47000000000E+01 0. -1.
        -13    1    6    6    0    0  0.15220759653E+02 -0.48831341720E+02  0.13101978098E+02  0.52799936446E+02  0.00000000000E+00 0.  1.
         14    1    6    6    0    0  0.36255481700E+02  0.16062223271E+02 -0.27207715568E+02  0.48090693031E+02  0.00000000000E+00 0. -1.
         -5    1    3    3    0  503 -0.16525867450E+02 -0.47852900961E+02  0.96459584593E+02  0.10903919426E+03  0.47000000000E+01 0.  1.
         11    1    4    4    0    0 -0.21605750468E+02  0.54153345012E+02  0.31641103866E+03  0.32173799685E+03  0.00000000000E+00 0. -1.
        -12    1    4    4    0    0  0.36160362403E+02  0.98621441026E+01  0.32874166925E+03  0.33087145359E+03  0.00000000000E+00 0.  1.
</event>
<event>
12    1  0.8493057E-002  0.2085825E+03  0.7818608E-02  0.1142898E+00
         21   -1    0    0  503  502  0.00000000000E+00  0.00000000000E+00  0.21988306870E+03  0.21988306870E+03  0.00000000000E+00 0. -1.
         21   -1    0    0  501  503 -0.00000000000E+00 -0.00000000000E+00 -0.36224156662E+03  0.36224156662E+03  0.00000000000E+00 0.  1.
          6    2    1    2  501    0  0.79224310538E+00 -0.11663207194E+03 -0.26772978739E+03  0.33876354648E+03  0.17169109911E+03 0.  0.
         24    2    3    3    0    0  0.10726026137E+02 -0.11948461400E+03 -0.11513671530E+03  0.18574866912E+03  0.82791812711E+02 0.  0.
         -6    2    1    2    0  502 -0.79224310538E+00  0.11663207194E+03  0.12537128947E+03  0.24336108885E+03  0.17292481455E+03 0.  0.
        -24    2    5    5    0    0  0.25917621996E+02  0.91607446195E+02  0.15321126610E+03  0.19713552140E+03  0.79530336397E+02 0.  0.
          5    1    3    3  501    0 -0.99337830312E+01  0.28525420635E+01 -0.15259307209E+03  0.15301487736E+03  0.47000000000E+01 0. -1.
        -13    1    4    4    0    0 -0.16090553373E+02 -0.47643278917E+02 -0.93345976118E+02  0.10602952038E+03  0.00000000000E+00 0.  1.
         14    1    4    4    0    0  0.26816579509E+02 -0.71841335083E+02 -0.21790739183E+02  0.79719148748E+02  0.00000000000E+00 0. -1.
         -5    1    5    5    0  502 -0.26709865102E+02  0.25024625740E+02 -0.27839976631E+02  0.46225567449E+02  0.47000000000E+01 0.  1.
         13    1    6    6    0    0 -0.27307504000E+02  0.37125530630E+02  0.74526137276E+02  0.87625053133E+02  0.00000000000E+00 0. -1.
        -14    1    6    6    0    0  0.53225125997E+02  0.54481915565E+02  0.78685128826E+02  0.10951046826E+03  0.00000000000E+00 0.  1.
</event>
<event>
12    1  0.8493057E-002  0.2040380E+03  0.7818608E-02  0.1147204E+00
         21   -1    0    0  501  502  0.00000000000E+00  0.00000000000E+00  0.18452996009E+04  0.18452996009E+04  0.00000000000E+00 0. -1.
         21   -1    0    0  502  503 -0.00000000000E+00 -0.00000000000E+00 -0.37658676646E+02  0.37658676646E+02  0.00000000000E+00 0. -1.
         -6    2    1    2    0  503  0.56553380041E+02 -0.94373735889E+02  0.30435603939E+03  0.36642066474E+03  0.17183369288E+03 0.  0.
        -24    2    3    3    0    0  0.29365012774E+02 -0.12419313328E+03  0.17747981811E+03  0.23319878477E+03  0.81217910897E+02 0.  0.
          6    2    1    2  501    0 -0.56553380041E+02  0.94373735889E+02  0.15032848848E+04  0.15165376128E+04  0.16708141487E+03 0.  0.
         24    2    5    5    0    0 -0.63621816712E+02  0.82659496378E+00  0.60608650758E+03  0.61443559609E+03  0.78369817226E+02 0.  0.
          5    1    5    5  501    0  0.70684366704E+01  0.93547140926E+02  0.89719837726E+03  0.90210201669E+03  0.47000000000E+01 0. -1.
        -13    1    6    6    0    0 -0.45244984933E+01  0.23399762784E+01 -0.36755347069E+00  0.51070217498E+01  0.00000000000E+00 0.  1.
         14    1    6    6    0    0 -0.59097318218E+02 -0.15133813146E+01  0.60645406105E+03  0.60932857434E+03  0.00000000000E+00 0. -1.
         -5    1    3    3    0  503  0.27188367268E+02  0.29819397392E+02  0.12687622128E+03  0.13322187997E+03  0.47000000000E+01 0.  1.
         11    1    4    4    0    0 -0.13302007785E+02 -0.81419630659E+01 -0.14938316931E+01  0.15667370769E+02  0.00000000000E+00 0. -1.
        -12    1    4    4    0    0  0.42667020559E+02 -0.11605117022E+03  0.17897364980E+03  0.21753141400E+03  0.00000000000E+00 0.  1.
</event>
<event>
12    1  0.8493057E-002  0.2867216E+03  0.7818608E-02  0.1092105E+00
         21   -1    0    0  503  502  0.00000000000E+00  0.00000000000E+00  0.53423462706E+03  0.53423462706E+03  0.00000000000E+00 0. -1.
         21   -1    0    0  501  503 -0.00000000000E+00 -0.00000000000E+00 -0.21004550719E+03  0.21004550719E+03  0.00000000000E+00 0. -1.
          6    2    1    2  501    0  0.14282120528E+03  0.17945984676E+03 -0.30606414468E+02  0.28811225835E+03  0.17166300571E+03 0.  0.
         24    2    3    3    0    0  0.99043053940E+02  0.69747323683E+02  0.40340042265E+02  0.15023965782E+03  0.79185984091E+02 0.  0.
         -6    2    1    2    0  502 -0.14282120528E+03 -0.17945984676E+03  0.35479553434E+03  0.45616787590E+03  0.17206256576E+03 0.  0.
        -24    2    5    5    0    0 -0.29188068887E+02 -0.12420405523E+03  0.18521353327E+03  0.24463575713E+03  0.96249727574E+02 0.  0.
          5    1    3    3  501    0  0.43778151344E+02  0.10971252307E+03 -0.70946456734E+02  0.13787260053E+03  0.47000000000E+01 0. -1.
        -11    1    4    4    0    0  0.73731438471E+02  0.86407942179E+02  0.38281387945E+02  0.11986710205E+03  0.00000000000E+00 0.  1.
         12    1    4    4    0    0  0.25311615469E+02 -0.16660618496E+02  0.20586543206E+01  0.30372555769E+02  0.00000000000E+00 0. -1.
         -5    1    5    5    0  502 -0.11363313640E+03 -0.55255791528E+02  0.16958200107E+03  0.21153211877E+03  0.47000000000E+01 0.  1.
         13    1    6    6    0    0 -0.54115419344E+01 -0.68289125076E+02  0.16808365418E+03  0.18150703620E+03  0.00000000000E+00 0. -1.
        -14    1    6    6    0    0 -0.23776526952E+02 -0.55914930153E+02  0.17129879096E+02  0.63128720927E+02  0.00000000000E+00 0.  1.
</event>
<event>
12    1  0.8493057E-002  0.2307009E+03  0.7818608E-02  0.1126450E+00
         21   -1    0    0  501  502  0.00000000000E+00  0.00000000000E+00  0.74120503779E+03  0.74120503779E+03  0.00000000000E+00 0. -1.
         21   -1    0    0  502  503 -0.00000000000E+00 -0.00000000000E+00 -0.81624142232E+02  0.81624142232E+02  0.00000000000E+00 0.  1.
         -6    2    1    2    0  503  0.12659896058E+03  0.86814150200E+02  0.18219160698E+03  0.29261841726E+03  0.16990515875E+03 0.  0.
        -24    2    3    3    0    0  0.55234502418E+02  0.99196933361E+01  0.15754057218E+03  0.18475087394E+03  0.78514985605E+02 0.  0.
          6    2    1    2  501    0 -0.12659896058E+03 -0.86814150200E+02  0.47738928858E+03  0.53021076277E+03  0.17221767218E+03 0.  0.
         24    2    5    5    0    0 -0.17353854356E+02  0.94132473476E+01  0.14667765239E+03  0.16884324682E+03  0.81264646675E+02 0.  0.
          5    1    5    5  501    0 -0.10924510622E+03 -0.96227397548E+02  0.33071163619E+03  0.36136751595E+03  0.47000000000E+01 0. -1.
        -13    1    6    6    0    0 -0.53207308177E+01 -0.34477652683E+02  0.41326619648E+02  0.54082420457E+02  0.00000000000E+00 0.  1.
         14    1    6    6    0    0 -0.12033123538E+02  0.43890900030E+02  0.10535103274E+03  0.11476082636E+03  0.00000000000E+00 0. -1.
         -5    1    3    3    0  503  0.71364458158E+02  0.76894456864E+02  0.24651034798E+02  0.10786754332E+03  0.47000000000E+01 0.  1.
         13    1    4    4    0    0  0.28471963700E+02  0.43301878087E+02  0.67847531587E+02  0.85375599003E+02  0.00000000000E+00 0. -1.
        -14    1    4    4    0    0  0.26762538718E+02 -0.33382184750E+02  0.89693040596E+02  0.99375274937E+02  0.00000000000E+00 0.  1.
</event>
<event>
12    1  0.8493057E-002  0.1793415E+03  0.7818608E-02  0.1169090E+00
         21   -1    0    0  501  502  0.00000000000E+00  0.00000000000E+00  0.20059391384E+03  0.20059391384E+03  0.00000000000E+00 0. -1.
         21   -1    0    0  502  503 -0.00000000000E+00 -0.00000000000E+00 -0.17806742428E+03  0.17806742428E+03  0.00000000000E+00 0. -1.
         -6    2    1    2    0  503 -0.15347801254E+02  0.37214505899E+02 -0.52244334802E+02  0.18679626167E+03  0.17476526658E+03 0.  0.
        -24    2    3    3    0    0  0.46755411402E+02  0.62421260220E+02 -0.23867099516E+02  0.11386103720E+03  0.79449450159E+02 0.  0.
          6    2    1    2  501    0  0.15347801254E+02 -0.37214505899E+02  0.74770824360E+02  0.19186507646E+03  0.17204957697E+03 0.  0.
         24    2    5    5    0    0  0.15997517318E+02 -0.37494950602E+01  0.11382511857E+03  0.14021571075E+03  0.80214142457E+02 0.  0.
          5    1    5    5  501    0 -0.64971606337E+00 -0.33465010839E+02 -0.39054294212E+02  0.51649365706E+02  0.47000000000E+01 0. -1.
        -13    1    6    6    0    0  0.21420235291E+02 -0.68275142018E+01 -0.34758501769E+01  0.22749131072E+02  0.00000000000E+00 0.  1.
         14    1    6    6    0    0 -0.54227179734E+01  0.30780191415E+01  0.11730096875E+03  0.11746657968E+03  0.00000000000E+00 0. -1.
         -5    1    3    3    0  503 -0.62103212656E+02 -0.25206754321E+02 -0.28377235286E+02  0.72935224467E+02  0.47000000000E+01 0.  1.
         13    1    4    4    0    0  0.28041080260E+02  0.77013692676E+02 -0.26097668930E+01  0.82001353190E+02  0.00000000000E+00 0. -1.
        -14    1    4    4    0    0  0.18714331142E+02 -0.14592432456E+02 -0.21257332623E+02  0.31859684011E+02  0.00000000000E+00 0.  1.
</event>
<event>
12    1  0.8493057E-002  0.2010534E+03  0.7818608E-02  0.1149328E+00
         21   -1    0    0  501  502  0.00000000000E+00  0.00000000000E+00  0.53698599321E+02  0.53698599321E+02  0.00000000000E+00 0.  1.
         21   -1    0    0  502  503 -0.00000000000E+00 -0.00000000000E+00 -0.76404602644E+03  0.76404602644E+03  0.00000000000E+00 0.  1.
         -6    2    1    2    0  503  0.92067663908E+02  0.35965481410E+02 -0.41884955201E+03  0.46363520687E+03  0.17248967286E+03 0.  0.
        -24    2    3    3    0    0  0.43644511905E+02  0.50472559903E+02 -0.39461046029E+03  0.40737793585E+03  0.76072626610E+02 0.  0.
          6    2    1    2  501    0 -0.92067663908E+02 -0.35965481410E+02 -0.29149787511E+03  0.35410941888E+03  0.17507855026E+03 0.  0.
         24    2    5    5    0    0 -0.61961099441E+02 -0.21948187204E+02 -0.30217334912E+03  0.31891076115E+03  0.77938693175E+02 0.  0.
          5    1    5    5  501    0 -0.30106564468E+02 -0.14017294205E+02  0.10675474012E+02  0.35198657734E+02  0.47000000000E+01 0. -1.
        -13    1    6    6    0    0  0.12441434594E+02 -0.24372720226E+02 -0.73733831358E+02  0.78647928597E+02  0.00000000000E+00 0.  1.
         14    1    6    6    0    0 -0.74402534034E+02  0.24245330213E+01 -0.22843951776E+03  0.24026283255E+03  0.00000000000E+00 0. -1.
         -5    1    3    3    0  503  0.48423152003E+02 -0.14507078493E+02 -0.24239091717E+02  0.56257271029E+02  0.47000000000E+01 0.  1.
         13    1    4    4    0    0  0.18924393266E+02 -0.19365622624E+02 -0.10137711627E+03  0.10493083295E+03  0.00000000000E+00 0. -1.
        -14    1    4    4    0    0  0.24720118639E+02  0.69838182527E+02 -0.29323334403E+03  0.30244710290E+03  0.00000000000E+00 0.  1.
</event>
<event>
12    1  0.8493057E-002  0.5222152E+03  0.7818608E-02  0.1008156E+00
         21   -1    0    0  501  502  0.00000000000E+00  0.00000000000E+00  0.11930421535E+03  0.11930421535E+03  0.00000000000E+00 0.  1.
         21   -1    0    0  502  503 -0.00000000000E+00 -0.00000000000E+00 -0.23457285552E+04  0.23457285552E+04  0.00000000000E+00 0. -1.
         -6    2    1    2    0  503 -0.45283873202E+03  0.19602822918E+03 -0.13119828538E+04  0.14119838714E+04  0.17002782245E+03 0.  0.
        -24    2    3    3    0    0 -0.11980169699E+03  0.31550963777E+02 -0.30164793433E+03  0.33552431472E+03  0.78975816337E+02 0.  0.
          6    2    1    2  501    0  0.45283873202E+03 -0.19602822918E+03 -0.91444148600E+03  0.10530488992E+04  0.17093498429E+03 0.  0.
         24    2    5    5    0    0  0.38975432684E+03 -0.19923988360E+03 -0.86452079718E+03  0.97240076172E+03  0.81006580736E+02 0.  0.
          5    1    5    5  501    0  0.63084405175E+02  0.32116544251E+01 -0.49920688818E+02  0.80648137440E+02  0.47000000000E+01 0. -1.
        -11    1    6    6    0    0  0.45303673900E+02 -0.35439800809E+02 -0.66558163288E+02  0.87968127469E+02  0.00000000000E+00 0.  1.
         12    1    6    6    0    0  0.34445065294E+03 -0.16380008279E+03 -0.79796263389E+03  0.88443263425E+03  0.00000000000E+00 0. -1.
         -5    1    3    3    0  503 -0.33303703503E+03  0.16447726540E+03 -0.10103349195E+04  0.10764595566E+04  0.47000000000E+01 0.  1.
         11    1    4    4    0    0 -0.11749691705E+03  0.26061766335E+02 -0.30555515049E+03  0.32840324477E+03  0.00000000000E+00 0. -1.
        -12    1    4    4    0    0 -0.23047799352E+01  0.54891974417E+01  0.39072161634E+01  0.71210699513E+01  0.00000000000E+00 0.  1.
</event>
<event>
12    1  0.8493057E-002  0.2054500E+03  0.7818608E-02  0.1145422E+00
         21   -1    0    0  503  502  0.00000000000E+00  0.00000000000E+00  0.79311073777E+02  0.79311073777E+02  0.00000000000E+00 0. -1.
         21   -1    0    0  501  503 -0.00000000000E+00 -0.00000000000E+00 -0.63738282631E+03  0.63738282631E+03  0.00000000000E+00 0. -1.
          6    2    1    2  501    0 -0.63794029127E+02 -0.91823887320E+02 -0.42691214860E+03  0.47377600093E+03  0.17236128335E+03 0.  0.
         24    2    3    3    0    0  0.27213752082E+02 -0.11565317594E+02 -0.20595307638E+03  0.22164735152E+03  0.76397211286E+02 0.  0.
         -6    2    1    2    0  502  0.63794029127E+02  0.91823887320E+02 -0.13115960393E+03  0.24291789916E+03  0.17118691420E+03 0.  0.
        -24    2    5    5    0    0  0.10630824461E+03  0.59122671634E+02 -0.67980305864E+02  0.15990861215E+03  0.78437931389E+02 0.  0.
          5    1    3    3  501    0 -0.91007781209E+02 -0.80258569726E+02 -0.22095907222E+03  0.25212864940E+03  0.47000000000E+01 0. -1.
        -13    1    4    4    0    0  0.37507357306E+02 -0.11512268383E+01 -0.39247885870E+02  0.54300310502E+02  0.00000000000E+00 0.  1.
         14    1    4    4    0    0 -0.10293605224E+02 -0.10414090756E+02 -0.16670519051E+03  0.16734704102E+03  0.00000000000E+00 0. -1.
         -5    1    5    5    0  502 -0.42514215486E+02  0.32701215685E+02 -0.63179298071E+02  0.83009287013E+02  0.47000000000E+01 0.  1.
         13    1    6    6    0    0  0.55182250322E+02  0.70152016554E+02 -0.26355522167E+02  0.93064492293E+02  0.00000000000E+00 0. -1.
        -14    1    6    6    0    0  0.51125994291E+02 -0.11029344919E+02 -0.41624783697E+02  0.66844119857E+02  0.00000000000E+00 0.  1.
</event>
<event>
12    1  0.8493057E-002  0.1877361E+03  0.7818608E-02  0.1160661E+00
         21   -1    0    0  503  502  0.00000000000E+00  0.00000000000E+00  0.51431828973E+02  0.51431828973E+02  0.00000000000E+00 0.  1.
         21   -1    0    0  501  503 -0.00000000000E+00 -0.00000000000E+00 -0.69080729403E+03  0.69080729403E+03  0.00000000000E+00 0.  1.
          6    2    1    2  501    0 -0.27502803000E+01  0.78386732458E+02 -0.35858930413E+03  0.40447336626E+03  0.16988340446E+03 0.  0.
         24    2    3    3    0    0  0.46612213521E+01  0.53901580946E+02 -0.36624866661E+03  0.37735863162E+03  0.73036591170E+02 0.  0.
         -6    2    1    2    0  502  0.27502803000E+01 -0.78386732458E+02 -0.28078616093E+03  0.33776575674E+03  0.17056609977E+03 0.  0.
        -24    2    5    5    0    0 -0.33405244566E+02 -0.72097760605E+01 -0.72764611207E+02  0.11490159128E+03  0.82096259345E+02 0.  0.
          5    1    3    3  501    0 -0.74115016522E+01  0.24485151513E+02  0.76593624779E+01  0.27114734646E+02  0.47000000000E+01 0. -1.
        -11    1    4    4    0    0  0.32960340370E+02  0.25919548335E+02 -0.10444868134E+03  0.11255102868E+03  0.00000000000E+00 0.  1.
         12    1    4    4    0    0 -0.28299119018E+02  0.27982032611E+02 -0.26179998527E+03  0.26480760294E+03  0.00000000000E+00 0. -1.
         -5    1    5    5    0  502  0.36155524866E+02 -0.71176956398E+02 -0.20802154972E+03  0.22286416547E+03  0.47000000000E+01 0.  1.
         11    1    6    6    0    0  0.24554822532E+02  0.12315192931E+02 -0.18318869427E+02  0.33017938512E+02  0.00000000000E+00 0. -1.
        -12    1    6    6    0    0 -0.57960067098E+02 -0.19524968992E+02 -0.54445741779E+02  0.81883652764E+02  0.00000000000E+00 0.  1.
</event>
<event>
12    1  0.8493057E-002  0.2235098E+03  0.7818608E-02  0.1131737E+00
         21   -1    0    0  503  502  0.00000000000E+00  0.00000000000E+00  0.14823513989E+04  0.14823513989E+04  0.00000000000E+00 0.  1.
         21   -1    0    0  501  503 -0.00000000000E+00 -0.00000000000E+00 -0.33415276332E+02  0.33415276332E+02  0.00000000000E+00 0.  1.
          6    2    1    2  501    0 -0.10706216283E+03 -0.90658483296E+02  0.68403551028E+03  0.71887923494E+03  0.17088448670E+03 0.  0.
         24    2    3    3    0    0  0.11714266762E+02 -0.53360990794E+02  0.30985783100E+03  0.32450635447E+03  0.79422158598E+02 0.  0.
         -6    2    1    2    0  502  0.10706216283E+03  0.90658483296E+02  0.76490061225E+03  0.79688744026E+03  0.17399821412E+03 0.  0.
        -24    2    5    5    0    0  0.44675591662E+02  0.31187419924E+02  0.17088146445E+03  0.19662938776E+03  0.80585839851E+02 0.  0.
          5    1    3    3  501    0 -0.11877642959E+03 -0.37297492502E+02  0.37417767928E+03  0.39437288047E+03  0.47000000000E+01 0. -1.
        -11    1    4    4    0    0  0.82611282075E+00  0.75746632158E+01 -0.87340843832E+00  0.76694737450E+01  0.00000000000E+00 0.  1.
         12    1    4    4    0    0  0.10888153941E+02 -0.60935654010E+02  0.31073123944E+03  0.31683688073E+03  0.00000000000E+00 0. -1.
         -5    1    5    5    0  502  0.62386571171E+02  0.59471063372E+02  0.59401914780E+03  0.60025805250E+03  0.47000000000E+01 0.  1.
         13    1    6    6    0    0  0.43765617894E+02 -0.17924418163E+02  0.96907256148E+02  0.10783195431E+03  0.00000000000E+00 0. -1.
        -14    1    6    6    0    0  0.90997376722E+00  0.49111838087E+02  0.73974208305E+02  0.88797433448E+02  0.00000000000E+00 0.  1.
</event>
<event>
12    1  0.8493057E-002  0.2870696E+03  0.7818608E-02  0.1091910E+00
         21   -1    0    0  503  502  0.00000000000E+00  0.00000000000E+00  0.39967710255E+03  0.39967710255E+03  0.00000000000E+00 0.  1.
         21   -1    0    0  501  503 -0.00000000000E+00 -0.00000000000E+00 -0.20996634717E+03  0.20996634717E+03  0.00000000000E+00 0.  1.
          6    2    1    2  501    0  0.12821474202E+02 -0.22879434047E+03  0.13636651867E+03  0.31781250502E+03  0.17290957321E+03 0.  0.
         24    2    3    3    0    0 -0.34345325080E+02 -0.10754484902E+03  0.12446302067E+03  0.18708404831E+03  0.82242943235E+02 0.  0.
         -6    2    1    2    0  502 -0.12821474202E+02  0.22879434047E+03  0.53344236717E+02  0.29183094470E+03  0.17265124460E+03 0.  0.
        -24    2    5    5    0    0  0.40778453582E+02  0.97194351205E+02 -0.17404104927E+02  0.13302626191E+03  0.79268274269E+02 0.  0.
          5    1    3    3  501    0  0.47166799282E+02 -0.12124949144E+03  0.11903497994E+02  0.13072845671E+03  0.47000000000E+01 0. -1.
        -13    1    4    4    0    0 -0.32883153003E+02 -0.12096186529E+03  0.10568215021E+03  0.16395667561E+03  0.00000000000E+00 0.  1.
         14    1    4    4    0    0 -0.14621720771E+01  0.13417016264E+02  0.18780870463E+02  0.23127372699E+02  0.00000000000E+00 0. -1.
         -5    1    5    5    0  502 -0.53599927784E+02  0.13159998926E+03  0.70748341644E+02  0.15880468279E+03  0.47000000000E+01 0.  1.
         11    1    6    6    0    0 -0.21537182558E+02  0.86455274381E+01 -0.70471602431E+01  0.24254027392E+02  0.00000000000E+00 0. -1.
        -12    1    6    6    0    0  0.62315636139E+02  0.88548823767E+02 -0.10356944684E+02  0.10877223451E+03  0.00000000000E+00 0.  1.
</event>
<event>
12    1  0.8493057E-002  0.2841632E+03  0.7818608E-02  0.1094272E+00
         21   -1    0    0  501  502  0.00000000000E+00  0.00000000000E+00  0.11386069730E+03  0.11386069730E+03  0.00000000000E+00 0. -1.
         21   -1    0    0  502  503 -0.00000000000E+00 -0.00000000000E+00 -0.70980151377E+03  0.70980151377E+03  0.00000000000E+00 0. -1.
         -6    2    1    2    0  503 -0.20785789851E+03  0.89837971992E+02 -0.35642399513E+03  0.45202124899E+03  0.16127423244E+03 0.  0.
        -24    2    3    3    0    0 -0.37585507255E+02  0.45445447285E+02 -0.97047208645E+02  0.13855388092E+03  0.79379204953E+02 0.  0.
          6    2    1    2  501    0  0.20785789851E+03 -0.89837971992E+02 -0.23951682134E+03  0.37164096208E+03  0.17167681790E+03 0.  0.
         24    2    5    5    0    0  0.26687043012E+02  0.11216655895E+02 -0.11695142512E+02  0.63485605085E+02  0.55277789937E+02 0.  0.
          5    1    5    5  501    0  0.18117085550E+03 -0.10105462789E+03 -0.22782167883E+03  0.30815535700E+03  0.47000000000E+01 0. -1.
        -11    1    6    6    0    0 -0.48125431812E+01 -0.62107030310E+01 -0.24147525844E+02  0.25393629287E+02  0.00000000000E+00 0.  1.
         12    1    6    6    0    0  0.31499586194E+02  0.17427358926E+02  0.12452383332E+02  0.38091975797E+02  0.00000000000E+00 0. -1.
         -5    1    3    3    0  503 -0.17027239126E+03  0.44392524707E+02 -0.25937678648E+03  0.31346736806E+03  0.47000000000E+01 0.  1.
         11    1    4    4    0    0 -0.13562092565E+02  0.87854418176E+01 -0.93160744931E+02  0.94551778084E+02  0.00000000000E+00 0. -1.
        -12    1    4    4    0    0 -0.24023414690E+02  0.36660005467E+02 -0.38864637138E+01  0.44002102841E+02  0.00000000000E+00 0.  1.
</event>
<event>
12    1  0.8493057E-002  0.2585947E+03  0.7818608E-02  0.1108149E+00
         21   -1    0    0  501  502  0.00000000000E+00  0.00000000000E+00  0.29156471324E+03  0.29156471324E+03  0.00000000000E+00 0. -1.
         21   -1    0    0  502  503 -0.00000000000E+00 -0.00000000000E+00 -0.29229998548E+03  0.29229998548E+03  0.00000000000E+00 0.  1.
         -6    2    1    2    0  503  0.15861312875E+03  0.10591459916E+03 -0.13683483843E+03  0.29164162483E+03  0.17307523622E+03 0.  0.
        -24    2    3    3    0    0  0.38971681885E+02  0.99252870820E+02 -0.39444738255E+02  0.13715739895E+03  0.76722489236E+02 0.  0.
          6    2    1    2  501    0 -0.15861312875E+03 -0.10591459916E+03  0.13609956620E+03  0.29222307389E+03  0.17462876644E+03 0.  0.
         24    2    5    5    0    0 -0.15934517408E+02 -0.67814771400E+02  0.43675011899E+02  0.11794406986E+03  0.84560894540E+02 0.  0.
          5    1    5    5  501    0 -0.14267861135E+03 -0.38099827758E+02  0.92424554297E+02  0.17427900404E+03  0.47000000000E+01 0. -1.
        -13    1    6    6    0    0 -0.25529555190E+02  0.29594715504E+01 -0.11041627302E+02  0.27972025196E+02  0.00000000000E+00 0.  1.
         14    1    6    6    0    0  0.95950377824E+01 -0.70774242950E+02  0.54716639202E+02  0.89972044663E+02  0.00000000000E+00 0. -1.
         -5    1    3    3    0  503  0.11964144687E+03  0.66617283383E+01 -0.97390100177E+02  0.15448422588E+03  0.47000000000E+01 0.  1.
         13    1    4    4    0    0 -0.60157899047E+01 -0.30131827844E+00 -0.26465273067E+02  0.27142055917E+02  0.00000000000E+00 0. -1.
        -14    1    4    4    0    0  0.44987471789E+02  0.99554189098E+02 -0.12979465187E+02  0.11001534303E+03  0.00000000000E+00 0.  1.
</event>
<event>
12    1  0.8493057E-002  0.2021439E+03  0.7818608E-02  0.1149715E+00
         21   -1    0    0  501  502  0.00000000000E+00  0.00000000000E+00  0.17489064779E+03  0.17489064779E+03  0.00000000000E+00 0. -1.
         21   -1    0    0  502  503 -0.00000000000E+00 -0.00000000000E+00 -0.23090290864E+03  0.23090290864E+03  0.00000000000E+00 0. -1.
         -6    2    1    2    0  503  0.66200939449E+02 -0.81604453766E+02 -0.62217583479E+02  0.20355446848E+03  0.16285436035E+03 0.  0.
        -24    2    3    3    0    0  0.38524331161E+02 -0.38849343055E+02 -0.10012677946E+03  0.13988979006E+03  0.80934454030E+02 0.  0.
          6    2    1    2  501    0 -0.66200939449E+02  0.81604453766E+02  0.62053226257E+01  0.20223908796E+03  0.17268552751E+03 0.  0.
         24    2    5    5    0    0 -0.21956035972E+02  0.42535958238E+01 -0.50286663777E+02  0.96625635991E+02  0.79420428001E+02 0.  0.
          5    1    5    5  501    0 -0.44244903477E+02  0.77350857942E+02  0.56491986403E+02  0.10561345196E+03  0.47000000000E+01 0. -1.
        -11    1    6    6    0    0 -0.41090025977E+02 -0.23989830215E+02 -0.22526790401E+02  0.52643693585E+02  0.00000000000E+00 0.  1.
         12    1    6    6    0    0  0.19133990005E+02  0.28243426039E+02 -0.27759873376E+02  0.43981942406E+02  0.00000000000E+00 0. -1.
         -5    1    3    3    0  503  0.27676608288E+02 -0.42755110710E+02  0.37909195984E+02  0.63664678420E+02  0.47000000000E+01 0.  1.
         13    1    4    4    0    0 -0.13553328061E+02 -0.42742500130E+02 -0.38399786552E+02  0.59035223605E+02  0.00000000000E+00 0. -1.
        -14    1    4    4    0    0  0.52077659222E+02  0.38931570748E+01 -0.61726992912E+02  0.80854566451E+02  0.00000000000E+00 0.  1.
</event>
<event>
12    1  0.8493057E-002  0.2026839E+03  0.7818608E-02  0.1147519E+00
         21   -1    0    0  503  502  0.00000000000E+00  0.00000000000E+00  0.48984681099E+03  0.48984681099E+03  0.00000000000E+00 0. -1.
         21   -1    0    0  501  503 -0.00000000000E+00 -0.00000000000E+00 -0.99319506432E+02  0.99319506432E+02  0.00000000000E+00 0. -1.
          6    2    1    2  501    0 -0.99010555191E+02  0.42480365430E+02  0.78922190728E+02  0.21750743445E+03  0.17167731465E+03 0.  0.
         24    2    3    3    0    0  0.77426039183E+01 -0.71395099955E+01  0.82877894879E+02  0.99625686023E+02  0.54273486506E+02 0.  0.
         -6    2    1    2    0  502  0.99010555191E+02 -0.42480365430E+02  0.31160511383E+03  0.37165888297E+03  0.17153689644E+03 0.  0.
        -24    2    5    5    0    0  0.12427848556E+03 -0.32723830536E+01  0.27592045220E+03  0.31274182888E+03  0.78863839146E+02 0.  0.
          5    1    3    3  501    0 -0.10675315911E+03  0.49619875425E+02 -0.39557041511E+01  0.11788174843E+03  0.47000000000E+01 0. -1.
        -13    1    4    4    0    0 -0.90779386020E+01 -0.27445490731E+02  0.44298603046E+02  0.52896409732E+02  0.00000000000E+00 0.  1.
         14    1    4    4    0    0  0.16820542520E+02  0.20305980735E+02  0.38579291833E+02  0.46729276291E+02  0.00000000000E+00 0. -1.
         -5    1    5    5    0  502 -0.25267930370E+02 -0.39207982376E+02  0.35684661630E+02  0.58917054091E+02  0.47000000000E+01 0.  1.
         11    1    6    6    0    0  0.16586447584E+02 -0.17408058070E+02  0.12206067761E+03  0.12440642969E+03  0.00000000000E+00 0. -1.
        -12    1    6    6    0    0  0.10769203798E+03  0.14135675017E+02  0.15385977459E+03  0.18833539919E+03  0.00000000000E+00 0.  1.
</event>
<event>
12    1  0.8493057E-002  0.1875356E+03  0.7818608E-02  0.1161271E+00
         21   -1    0    0  503  502  0.00000000000E+00  0.00000000000E+00  0.16025766565E+02  0.16025766565E+02  0.00000000000E+00 0. -1.
         21   -1    0    0  501  503 -0.00000000000E+00 -0.00000000000E+00 -0.22252563149E+04  0.22252563149E+04  0.00000000000E+00 0. -1.
          6    2    1    2  501    0  0.50131646489E+02 -0.46950234595E+02 -0.12805700982E+04  0.12938751822E+04  0.17185954763E+03 0.  0.
         24    2    3    3    0    0 -0.16385873850E+02  0.26453941054E+02 -0.50137717079E+03  0.50839669001E+03  0.78229273059E+02 0.  0.
         -6    2    1    2    0  502 -0.50131646489E+02  0.46950234595E+02 -0.92866045015E+03  0.94740689931E+03  0.17450528556E+03 0.  0.
        -24    2    5    5    0    0 -0.98359394786E+02  0.52484677321E+02 -0.73475926560E+03  0.74746614526E+03  0.80032793461E+02 0.  0.
          5    1    3    3  501    0  0.66517520339E+02 -0.73404175649E+02 -0.77919292741E+03  0.78547849216E+03  0.47000000000E+01 0. -1.
        -13    1    4    4    0    0  0.19072413478E+02  0.54459162094E+01 -0.37383360124E+03  0.37435942138E+03  0.00000000000E+00 0.  1.
         14    1    4    4    0    0 -0.35458287328E+02  0.21008024845E+02 -0.12754356955E+03  0.13403726863E+03  0.00000000000E+00 0. -1.
         -5    1    5    5    0  502  0.48227748298E+02 -0.55344427263E+01 -0.19390118455E+03  0.19994075406E+03  0.47000000000E+01 0.  1.
         11    1    6    6    0    0  0.12208398811E+02  0.13999245103E+02 -0.14625259092E+03  0.14742742017E+03  0.00000000000E+00 0. -1.
        -12    1    6    6    0    0 -0.11056779360E+03  0.38485432218E+02 -0.58850667467E+03  0.60003872509E+03  0.00000000000E+00 0.  1.
</event>
<event>
12    1  0.8493057E-002  0.1799467E+03  0.7818608E-02  0.1168036E+00
         21   -1    0    0  503  502  0.00000000000E+00  0.00000000000E+00  0.71162722471E+03  0.71162722471E+03  0.00000000000E+00 0. -1.
         21   -1    0    0  501  503 -0.00000000000E+00 -0.00000000000E+00 -0.88928063990E+02  0.88928063990E+02  0.00000000000E+00 0. -1.
          6    2    1    2  501    0 -0.16387049181E+02  0.50100545488E+02  0.30698213851E+02  0.18180982603E+03  0.17127122487E+03 0.  0.
         24    2    3    3    0    0 -0.29103437322E+02 -0.23324112096E+02 -0.24977980717E+02  0.88671136373E+02  0.76469906734E+02 0.  0.
         -6    2    1    2    0  502  0.16387049181E+02 -0.50100545488E+02  0.59200094687E+03  0.61874546267E+03  0.17205297570E+03 0.  0.
        -24    2    5    5    0    0 -0.40091218112E+02 -0.24543470715E+01  0.44769781487E+03  0.45655594759E+03  0.79979186334E+02 0.  0.
          5    1    3    3  501    0  0.12716388141E+02  0.73424657584E+02  0.55676194569E+02  0.93138689653E+02  0.47000000000E+01 0. -1.
        -13    1    4    4    0    0 -0.45902983349E+02 -0.38015206090E+02 -0.69938176857E+01  0.60009609732E+02  0.00000000000E+00 0.  1.
         14    1    4    4    0    0  0.16799546027E+02  0.14691093994E+02 -0.17984163031E+02  0.28661526641E+02  0.00000000000E+00 0. -1.
         -5    1    5    5    0  502  0.56478267293E+02 -0.47646198416E+02  0.14430313199E+03  0.16218951508E+03  0.47000000000E+01 0.  1.
         11    1    6    6    0    0 -0.54934629035E+02 -0.74566023569E+01  0.17868566562E+03  0.18708816500E+03  0.00000000000E+00 0. -1.
        -12    1    6    6    0    0  0.14843410923E+02  0.50022552854E+01  0.26901214925E+03  0.26946778259E+03  0.00000000000E+00 0.  1.
</event>
<event>
12    1  0.8493057E-002  0.1824271E+03  0.7818608E-02  0.1166066E+00
         21   -1    0    0  501  502  0.00000000000E+00  0.00000000000E+00  0.51355923979E+02  0.51355923979E+02  0.00000000000E+00 0. -1.
         21   -1    0    0  502  503 -0.00000000000E+00 -0.00000000000E+00 -0.81119179287E+03  0.81119179287E+03  0.00000000000E+00 0. -1.
         -6    2    1    2    0  503  0.21299878455E+01  0.52579940744E+02 -0.58048908806E+03  0.60847944799E+03  0.17467246562E+03 0.  0.
        -24    2    3    3    0    0  0.14519225231E+02  0.83232467759E+02 -0.55352642438E+03  0.56555922143E+03  0.79544194378E+02 0.  0.
          6    2    1    2  501    0 -0.21299878455E+01 -0.52579940744E+02 -0.17934678083E+03  0.25406826886E+03  0.17209366761E+03 0.  0.
         24    2    5    5    0    0 -0.61960715809E+02 -0.18729069464E+02 -0.13697870789E+03  0.17318105665E+03  0.83896386215E+02 0.  0.
          5    1    5    5  501    0  0.59830727964E+02 -0.33850871280E+02 -0.42368072939E+02  0.80887212213E+02  0.47000000000E+01 0. -1.
        -13    1    6    6    0    0 -0.44030584939E+02 -0.40114314830E+02 -0.38736233670E+02  0.71051716821E+02  0.00000000000E+00 0.  1.
         14    1    6    6    0    0 -0.17930130871E+02  0.21385245366E+02 -0.98242474224E+02  0.10212933983E+03  0.00000000000E+00 0. -1.
         -5    1    3    3    0  503 -0.12389237386E+02 -0.30652527015E+02 -0.26962663679E+02  0.42920226562E+02  0.47000000000E+01 0.  1.
         11    1    4    4    0    0 -0.24177503213E+02  0.94608538604E+01 -0.65215540049E+02  0.70193490306E+02  0.00000000000E+00 0. -1.
        -12    1    4    4    0    0  0.38696728445E+02  0.73771613898E+02 -0.48831088433E+03  0.49536573112E+03  0.00000000000E+00 0.  1.
</event>
<event>
12    1  0.8493057E-002  0.1864368E+03  0.7818608E-02  0.1162546E+00
         21   -1    0    0  503  502  0.00000000000E+00  0.00000000000E+00  0.13120938836E+03  0.13120938836E+03  0.00000000000E+00 0.  1.
         21   -1    0    0  501  503 -0.00000000000E+00 -0.00000000000E+00 -0.31417994617E+03  0.31417994617E+03  0.00000000000E+00 0.  1.
          6    2    1    2  501    0 -0.47765872066E+02  0.51374642436E+02 -0.18333707354E+03  0.25895215028E+03  0.16888694793E+03 0.  0.
         24    2    3    3    0    0 -0.41887766115E+02  0.38988952822E+02 -0.26988531738E+02  0.10193331714E+03  0.79920566227E+02 0.  0.
         -6    2    1    2    0  502  0.47765872066E+02 -0.51374642436E+02  0.36651573439E+00  0.18643718424E+03  0.17273609036E+03 0.  0.
        -24    2    5    5    0    0  0.56465735056E+02 -0.95724814567E+02 -0.16705174731E+02  0.13789691231E+03  0.79905420351E+02 0.  0.
          5    1    3    3  501    0 -0.58781059506E+01  0.12385689614E+02 -0.15634854180E+03  0.15701883314E+03  0.47000000000E+01 0. -1.
        -13    1    4    4    0    0 -0.47532069051E+02  0.28230305284E+02 -0.50877962316E+02  0.75131982365E+02  0.00000000000E+00 0.  1.
         14    1    4    4    0    0  0.56443029356E+01  0.10758647538E+02  0.23889430578E+02  0.26801334777E+02  0.00000000000E+00 0. -1.
         -5    1    5    5    0  502 -0.86998629899E+01  0.44350172131E+02  0.17071690465E+02  0.48540271934E+02  0.47000000000E+01 0.  1.
         13    1    6    6    0    0  0.52396499420E+02 -0.51469051254E+02 -0.44119275240E+02  0.85679442319E+02  0.00000000000E+00 0. -1.
        -14    1    6    6    0    0  0.40692356362E+01 -0.44255763313E+02  0.27414100510E+02  0.52217469987E+02  0.00000000000E+00 0.  1.
</event>
<event>
12    1  0.8493057E-002  0.1944450E+03  0.7818608E-02  0.1155813E+00
         21   -1    0    0  501  502  0.00000000000E+00  0.00000000000E+00  0.10749265790E+04  0.10749265790E+04  0.00000000000E+00 0. -1.
         21   -1    0    0  502  503 -0.00000000000E+00 -0.00000000000E+00 -0.35223868551E+02  0.35223868551E+02  0.00000000000E+00 0. -1.
         -6    2    1    2    0  503 -0.73974776531E+02  0.50829356754E+02  0.42943282037E+03  0.47140365091E+03  0.17249047455E+03 0.  0.
        -24    2    3    3    0    0 -0.90494721435E+00  0.79329846190E+02  0.21681833233E+03  0.24473541675E+03  0.81186153684E+02 0.  0.
          6    2    1    2  501    0  0.73974776531E+02 -0.50829356754E+02  0.61026989012E+03  0.63874679668E+03  0.16586814165E+03 0.  0.
         24    2    5    5    0    0  0.55905447776E+02  0.18606439767E+02  0.21247575466E+03  0.23450665186E+03  0.79848636530E+02 0.  0.
          5    1    5    5  501    0  0.18069328755E+02 -0.69435796522E+02  0.39779413546E+03  0.40424014482E+03  0.47000000000E+01 0. -1.
        -13    1    6    6    0    0 -0.40408542434E+01  0.29991768873E+02  0.32221098469E+02  0.44204455541E+02  0.00000000000E+00 0.  1.
         14    1    6    6    0    0  0.59946302020E+02 -0.11385329105E+02  0.18025465620E+03  0.19030219632E+03  0.00000000000E+00 0. -1.
         -5    1    3    3    0  503 -0.73069829317E+02 -0.28500489435E+02  0.21261448804E+03  0.22666823416E+03  0.47000000000E+01 0.  1.
         13    1    4    4    0    0 -0.22912505278E+02  0.86863510530E+02  0.16326502687E+03  0.18634838705E+03  0.00000000000E+00 0. -1.
        -14    1    4    4    0    0  0.22007558064E+02 -0.75336643406E+01  0.53553305465E+02  0.58387029694E+02  0.00000000000E+00 0.  1.
</event>
<event>
12    1  0.8493057E-002  0.2269630E+03  0.7818608E-02  0.1128799E+00
         21   -1    0    0  503  502  0.00000000000E+00  0.00000000000E+00  0.34253162924E+02  0.34253162924E+02  0.00000000000E+00 0.  1.
         21   -1    0    0  501  503 -0.00000000000E+00 -0.00000000000E+00 -0.16823238837E+04  0.16823238837E+04  0.00000000000E+00 0. -1.
          6    2    1    2  501    0 -0.93390133835E+02 -0.11403140336E+03 -0.54442231958E+03  0.58983716115E+03  0.17259008246E+03 0.  0.
         24    2    3    3    0    0 -0.13294903250E+03 -0.90109630611E+02 -0.41185319063E+03  0.44936003978E+03  0.80661043575E+02 0.  0.
         -6    2    1    2    0  502  0.93390133835E+02  0.11403140336E+03 -0.11036484012E+04  0.11267398855E+04  0.17256331596E+03 0.  0.
        -24    2    5    5    0    0  0.26065510837E+02  0.10732908660E+03 -0.93508363480E+03  0.94504317010E+03  0.80785181717E+02 0.  0.
          5    1    3    3  501    0  0.39558898670E+02 -0.23921772748E+02 -0.13256912895E+03  0.14047712136E+03  0.47000000000E+01 0. -1.
        -13    1    4    4    0    0 -0.16540412134E+01 -0.37100921202E+02 -0.67684992774E+02  0.77204096091E+02  0.00000000000E+00 0.  1.
         14    1    4    4    0    0 -0.13129499129E+03 -0.53008709409E+02 -0.34416819785E+03  0.37215594369E+03  0.00000000000E+00 0. -1.
         -5    1    5    5    0  502  0.67324622998E+02  0.67023167564E+01 -0.16856476642E+03  0.18169671541E+03  0.47000000000E+01 0.  1.
         11    1    6    6    0    0  0.14163337051E+02  0.84048157223E+02 -0.87946016006E+03  0.88358070712E+03  0.00000000000E+00 0. -1.
        -12    1    6    6    0    0  0.11902173786E+02  0.23280929379E+02 -0.55623474737E+02  0.61462462979E+02  0.00000000000E+00 0.  1.
</event>
<event>
12    1  0.8493057E-002  0.1739240E+03  0.7818608E-02  0.1174124E+00
         21   -1    0    0  501  502  0.00000000000E+00  0.00000000000E+00  0.11451468643E+04  0.11451468643E+04  0.00000000000E+00 0. -1.
         21   -1    0    0  502  503 -0.00000000000E+00 -0.00000000000E+00 -0.33214273737E+02  0.33214273737E+02  0.00000000000E+00 0. -1.
         -6    2    1    2    0  503  0.10519453604E+02  0.21742559051E+02  0.28429101978E+03  0.33264243864E+03  0.17101523406E+03 0.  0.
        -24    2    3    3    0    0  0.50871892011E+02  0.58846756915E+02  0.14907988730E+03  0.18666579280E+03  0.81045759962E+02 0.  0.
          6    2    1    2  501    0 -0.10519453604E+02 -0.21742559051E+02  0.82764157078E+03  0.84571869939E+03  0.17223864561E+03 0.  0.
         24    2    5    5    0    0  0.13956492336E+02  0.12966329741E+02  0.76747573308E+03  0.77192305646E+03  0.80518909768E+02 0.  0.
          5    1    5    5  501    0 -0.24475945940E+02 -0.34708888792E+02  0.60165837692E+02  0.73795642934E+02  0.47000000000E+01 0. -1.
        -11    1    6    6    0    0  0.40922718663E+02 -0.14661179454E+02  0.35733832456E+03  0.35997263408E+03  0.00000000000E+00 0.  1.
         12    1    6    6    0    0 -0.26966226327E+02  0.27627509195E+02  0.41013740852E+03  0.41195042238E+03  0.00000000000E+00 0. -1.
         -5    1    3    3    0  503 -0.40352438407E+02 -0.37104197864E+02  0.13521113248E+03  0.14597664584E+03  0.47000000000E+01 0.  1.
         11    1    4    4    0    0  0.32687700058E+02 -0.13568681964E+02  0.66538555340E+02  0.75365603641E+02  0.00000000000E+00 0. -1.
        -12    1    4    4    0    0  0.18184191953E+02  0.72415438880E+02  0.82541331959E+02  0.11130018916E+03  0.00000000000E+00 0.  1.
</event>
<event>
12    1  0.8493057E-002  0.2682121E+03  0.7818608E-02  0.1102464E+00
         21   -1    0    0  501  502  0.00000000000E+00  0.00000000000E+00  0.46681797386E+03  0.46681797386E+03  0.00000000000E+00 0. -1.
         21   -1    0    0  502  503 -0.00000000000E+00 -0.00000000000E+00 -0.15595613912E+03  0.15595613912E+03  0.00000000000E+00 0. -1.
         -6    2    1    2    0  503 -0.18240035245E+03 -0.93762883799E+02  0.11650814382E+03  0.29242414753E+03  0.17284781609E+03 0.  0.
        -24    2    3    3    0    0 -0.20411772046E+03 -0.72594696694E+02  0.78836045893E+02  0.24383388944E+03  0.79409128636E+02 0.  0.
          6    2    1    2  501    0  0.18240035245E+03  0.93762883799E+02  0.19435369091E+03  0.33034996545E+03  0.17116184023E+03 0.  0.
         24    2    5    5    0    0  0.60473979505E+02  0.90557147245E+02  0.14730851456E+03  0.19953843773E+03  0.79108094128E+02 0.  0.
          5    1    5    5  501    0  0.12192637294E+03  0.32057365538E+01  0.47045176358E+02  0.13081152772E+03  0.47000000000E+01 0. -1.
        -13    1    6    6    0    0 -0.36818313401E+01  0.38790422117E+02  0.11426764064E+02  0.40605709783E+02  0.00000000000E+00 0.  1.
         14    1    6    6    0    0  0.64155810846E+02  0.51766725128E+02  0.13588175049E+03  0.15893272795E+03  0.00000000000E+00 0. -1.
         -5    1    3    3    0  503  0.21717368015E+02 -0.21168187105E+02  0.37672097931E+02  0.48590258091E+02  0.47000000000E+01 0.  1.
         13    1    4    4    0    0 -0.18606828893E+03 -0.76744801560E+02  0.91806841570E+02  0.22122312011E+03  0.00000000000E+00 0. -1.
        -14    1    4    4    0    0 -0.18049431529E+02  0.41501048662E+01 -0.12970795677E+02  0.22610769324E+02  0.00000000000E+00 0.  1.
</event>
<event>
12    1  0.8493057E-002  0.2773850E+03  0.7818608E-02  0.1098566E+00
         21   -1    0    0  501  502  0.00000000000E+00  0.00000000000E+00  0.32437259017E+03  0.32437259017E+03  0.00000000000E+00 0.  1.
         21   -1    0    0  502  503 -0.00000000000E+00 -0.00000000000E+00 -0.23081906087E+03  0.23081906087E+03  0.00000000000E+00 0. -1.
         -6    2    1    2    0  503 -0.11452300651E+03  0.18458381323E+03  0.73411638858E+02  0.27707631572E+03  0.15554842619E+03 0.  0.
        -24    2    3    3    0    0 -0.69708891529E+02  0.16231810150E+03  0.99834318895E+02  0.22029326507E+03  0.85765586203E+02 0.  0.
          6    2    1    2  501    0  0.11452300651E+03 -0.18458381323E+03  0.20141890438E+02  0.27811533531E+03  0.17249852423E+03 0.  0.
         24    2    5    5    0    0  0.13819880133E+03 -0.19394064846E+03  0.13753915190E+02  0.25145094232E+03  0.79539439245E+02 0.  0.
          5    1    5    5  501    0 -0.23675794820E+02  0.93568352344E+01  0.63879752476E+01  0.26664392994E+02  0.47000000000E+01 0. -1.
        -13    1    6    6    0    0  0.29730206387E+02 -0.10806165652E+03  0.15136799681E+02  0.11309433888E+03  0.00000000000E+00 0.  1.
         14    1    6    6    0    0  0.10846859494E+03 -0.85878991937E+02 -0.13828844909E+01  0.13835660344E+03  0.00000000000E+00 0. -1.
         -5    1    3    3    0  503 -0.44814114982E+02  0.22265711732E+02 -0.26422680037E+02  0.56783050647E+02  0.47000000000E+01 0.  1.
         11    1    4    4    0    0 -0.83072388748E+01 -0.22704455434E+01  0.30069171448E+02  0.31278110753E+02  0.00000000000E+00 0. -1.
        -12    1    4    4    0    0 -0.61401652654E+02  0.16458854704E+03  0.69765147447E+02  0.18901515432E+03  0.00000000000E+00 0.  1.
</event>
<event>
12    1  0.8493057E-002  0.1798390E+03  0.7818608E-02  0.1168206E+00
         21   -1    0    0  503  502  0.00000000000E+00  0.00000000000E+00  0.16826855017E+03  0.16826855017E+03  0.00000000000E+00 0.  1.
         21   -1    0    0  501  503 -0.00000000000E+00 -0.00000000000E+00 -0.25730282684E+03  0.25730282684E+03  0.00000000000E+00 0.  1.
          6    2    1    2  501    0  0.36224101333E+02  0.40799519623E+02 -0.15252880631E+03  0.23581161796E+03  0.17136305346E+03 0.  0.
         24    2    3    3    0    0  0.23802493248E+02  0.74138977416E+02 -0.16354299515E+03  0.19827206350E+03  0.80637170369E+02 0.  0.
         -6    2    1    2    0  502 -0.36224101333E+02 -0.40799519623E+02  0.63494529636E+02  0.18975975905E+03  0.17029511015E+03 0.  0.
        -24    2    5    5    0    0  0.45293832355E+02 -0.27693845496E+02  0.43459899035E+02  0.10466916832E+03  0.79046768718E+02 0.  0.
          5    1    3    3  501    0  0.12421608086E+02 -0.33339457793E+02  0.11014188837E+02  0.37539554461E+02  0.47000000000E+01 0. -1.
        -11    1    4    4    0    0  0.42312465611E+02  0.15565926465E+02 -0.39877028175E+02  0.60189867826E+02  0.00000000000E+00 0.  1.
         12    1    4    4    0    0 -0.18509972363E+02  0.58573050951E+02 -0.12366596698E+03  0.13808219568E+03  0.00000000000E+00 0. -1.
         -5    1    5    5    0  502 -0.81517933688E+02 -0.13105674127E+02  0.20034630601E+02  0.85090590728E+02  0.47000000000E+01 0.  1.
         13    1    6    6    0    0  0.12341336889E+02  0.25721879496E+02  0.28122668412E+02  0.40060056910E+02  0.00000000000E+00 0. -1.
        -14    1    6    6    0    0  0.32952495466E+02 -0.53415724992E+02  0.15337230622E+02  0.64609111409E+02  0.00000000000E+00 0.  1.
</event>
<event>
12    1  0.8493057E-002  0.1845337E+03  0.7818608E-02  0.1163781E+00
         21   -1    0    0  501  502  0.00000000000E+00  0.00000000000E+00  0.19883759959E+03  0.19883759959E+03  0.00000000000E+00 0.  1.
         21   -1    0    0  502  503 -0.00000000000E+00 -0.00000000000E+00 -0.21536428068E+03  0.21536428068E+03  0.00000000000E+00 0.  1.
         -6    2    1    2    0  503  0.58175020810E+02  0.28350661142E+02 -0.10323304298E+03  0.21144682767E+03  0.17281379209E+03 0.  0.
        -24    2    3    3    0    0  0.90201846766E+02  0.51994104821E+02 -0.43324421197E+02  0.13936449299E+03  0.81888316245E+02 0.  0.
          6    2    1    2  501    0 -0.58175020810E+02 -0.28350661142E+02  0.86706361890E+02  0.20275505260E+03  0.17147456118E+03 0.  0.
         24    2    5    5    0    0 -0.77243793835E+02 -0.65853414897E+02  0.93944039766E+02  0.15980684397E+03  0.80059158329E+02 0.  0.
          5    1    5    5  501    0  0.19068773025E+02  0.37502753755E+02 -0.72376778764E+01  0.42948208635E+02  0.47000000000E+01 0. -1.
        -11    1    6    6    0    0 -0.10370334681E+02 -0.13527588158E+02  0.69336718428E+02  0.71401120475E+02  0.00000000000E+00 0.  1.
         12    1    6    6    0    0 -0.66873459154E+02 -0.52325826739E+02  0.24607321338E+02  0.88405723494E+02  0.00000000000E+00 0. -1.
         -5    1    3    3    0  503 -0.32026825955E+02 -0.23643443679E+02 -0.59908621782E+02  0.72082334684E+02  0.47000000000E+01 0.  1.
         11    1    4    4    0    0  0.31208745086E+01  0.28817579717E+02  0.14382615457E+02  0.32358188852E+02  0.00000000000E+00 0. -1.
        -12    1    4    4    0    0  0.87080972257E+02  0.23176525104E+02 -0.57707036654E+02  0.10700630413E+03  0.00000000000E+00 0.  1.
</event>
<event>
12    1  0.8493057E-002  0.1723125E+03  0.7818608E-02  0.1175845E+00
         21   -1    0    0  503  502  0.00000000000E+00  0.00000000000E+00  0.13368476236E+03  0.13368476236E+03  0.00000000000E+00 0.  1.
         21   -1    0    0  501  503 -0.00000000000E+00 -0.00000000000E+00 -0.31322772277E+03  0.31322772277E+03  0.00000000000E+00 0.  1.
          6    2    1    2  501    0  0.85131090973E+01  0.11455399855E+02 -0.21184741685E+03  0.27307675920E+03  0.17172038078E+03 0.  0.
         24    2    3    3    0    0  0.60724264376E+02 -0.22235522969E+02 -0.12171683188E+03  0.16350169194E+03  0.87954313933E+02 0.  0.
         -6    2    1    2    0  502 -0.85131090973E+01 -0.11455399855E+02  0.32304456443E+02  0.17383572592E+03  0.17021040652E+03 0.  0.
        -24    2    5    5    0    0  0.58142772520E+02  0.44117970969E+01  0.39095694869E+02  0.10482134038E+03  0.77839540664E+02 0.  0.
          5    1    3    3  501    0 -0.52211155279E+02  0.33690922824E+02 -0.90130584974E+02  0.10957506726E+03  0.47000000000E+01 0. -1.
        -11    1    4    4    0    0  0.48727083617E+02 -0.82229792257E+00 -0.12900030030E+03  0.13789881192E+03  0.00000000000E+00 0.  1.
         12    1    4    4    0    0  0.11997180758E+02 -0.21413225046E+02  0.72834684222E+01  0.25602880019E+02  0.00000000000E+00 0. -1.
         -5    1    5    5    0  502 -0.66655881618E+02 -0.15867196952E+02 -0.67912384261E+01  0.69014385549E+02  0.47000000000E+01 0.  1.
         11    1    6    6    0    0  0.26753246060E+02  0.14670051790E+02 -0.20450525995E+02  0.36731057809E+02  0.00000000000E+00 0. -1.
        -12    1    6    6    0    0  0.31389526460E+02 -0.10258254693E+02  0.59546220864E+02  0.68090282566E+02  0.00000000000E+00 0.  1.
</event>
<event>
12    1  0.8493057E-002  0.1875377E+03  0.7818608E-02  0.1160843E+00
         21   -1    0    0  503  502  0.00000000000E+00  0.00000000000E+00  0.37118335745E+03  0.37118335745E+03  0.00000000000E+00 0.  1.
         21   -1    0    0  501  503 -0.00000000000E+00 -0.00000000000E+00 -0.14761085081E+03  0.14761085081E+03  0.00000000000E+00 0.  1.
          6    2    1    2  501    0  0.70484156244E+02 -0.16109733396E+02 -0.43779995520E+02  0.19258005268E+03  0.17304002107E+03 0.  0.
         24    2    3    3    0    0  0.92680556856E+02 -0.30129599567E+02 -0.79272012352E+02  0.14818399310E+03  0.78593673284E+02 0.  0.
         -6    2    1    2    0  502 -0.70484156244E+02  0.16109733396E+02  0.26735250216E+03  0.32621415557E+03  0.17236813828E+03 0.  0.
        -24    2    5    5    0    0  0.27539057824E+02 -0.15657773584E+02  0.10226093163E+03  0.13154766730E+03  0.76445569231E+02 0.  0.
          5    1    3    3  501    0 -0.22196400612E+02  0.14019866171E+02  0.35492016832E+02  0.44396059582E+02  0.47000000000E+01 0. -1.
        -13    1    4    4    0    0  0.60792121320E+02 -0.50828611986E+02 -0.27343761824E+02  0.83826673092E+02  0.00000000000E+00 0.  1.
         14    1    4    4    0    0  0.31888435536E+02  0.20699012419E+02 -0.51928250528E+02  0.64357320011E+02  0.00000000000E+00 0. -1.
         -5    1    5    5    0  502 -0.98023214068E+02  0.31767506979E+02  0.16509157053E+03  0.19466648827E+03  0.47000000000E+01 0.  1.
         13    1    6    6    0    0  0.12237914399E+02 -0.29960515418E+02  0.58502166231E+01  0.32888053568E+02  0.00000000000E+00 0. -1.
        -14    1    6    6    0    0  0.15301143425E+02  0.14302741834E+02  0.96410715002E+02  0.98659613730E+02  0.00000000000E+00 0.  1.
</event>
<event>
12    1  0.8493057E-002  0.2632195E+03  0.7818608E-02  0.1106102E+00
         21   -1    0    0  501  502  0.00000000000E+00  0.00000000000E+00  0.35712261623E+02  0.35712261623E+02  0.00000000000E+00 0. -1.
         21   -1    0    0  502  503 -0.00000000000E+00 -0.00000000000E+00 -0.19290338361E+04  0.19290338361E+04  0.00000000000E+00 0. -1.
         -6    2    1    2    0  503  0.99075829710E+02 -0.17291984529E+03 -0.83068725288E+03  0.87139301921E+03  0.17195112355E+03 0.  0.
        -24    2    3    3    0    0  0.32077148334E+02 -0.63848766601E+02 -0.19324092800E+03  0.22120440763E+03  0.80521582574E+02 0.  0.
          6    2    1    2  501    0 -0.99075829710E+02  0.17291984529E+03 -0.10626343216E+04  0.10933530785E+04  0.16282493649E+03 0.  0.
         24    2    5    5    0    0 -0.72166482067E+02  0.15164607982E+03 -0.57072498876E+03  0.60022675817E+03  0.79627971028E+02 0.  0.
          5    1    5    5  501    0 -0.26909347644E+02  0.21273765468E+02 -0.49190933281E+03  0.49312632032E+03  0.47000000000E+01 0. -1.
        -11    1    6    6    0    0  0.14514534506E+02  0.47027914364E+01 -0.46246268661E+02  0.48698103908E+02  0.00000000000E+00 0.  1.
         12    1    6    6    0    0 -0.86681016573E+02  0.14694328839E+03 -0.52447872010E+03  0.55152865426E+03  0.00000000000E+00 0. -1.
         -5    1    3    3    0  503  0.66998681376E+02 -0.10907107869E+03 -0.63744632489E+03  0.65018861158E+03  0.47000000000E+01 0.  1.
         11    1    4    4    0    0  0.33331594169E+02 -0.14628210437E+02 -0.15399997400E+03  0.15824339387E+03  0.00000000000E+00 0. -1.
        -12    1    4    4    0    0 -0.12544458347E+01 -0.49220556163E+02 -0.39240953993E+02  0.62961013760E+02  0.00000000000E+00 0.  1.
</event>
<event>
12    1  0.8493057E-002  0.1928537E+03  0.7818608E-02  0.1156063E+00
         21   -1    0    0  503  502  0.00000000000E+00  0.00000000000E+00  0.51936564552E+02  0.51936564552E+02  0.00000000000E+00 0. -1.
         21   -1    0    0  501  503 -0.00000000000E+00 -0.00000000000E+00 -0.72040286625E+03  0.72040286625E+03  0.00000000000E+00 0.  1.
          6    2    1    2  501    0  0.79977417936E+02 -0.11038845655E+02 -0.29728035622E+03  0.35435597650E+03  0.17514081305E+03 0.  0.
         24    2    3    3    0    0  0.12020456987E+03  0.14355291590E+02 -0.22216230943E+03  0.26531723823E+03  0.79886996192E+02 0.  0.
         -6    2    1    2    0  502 -0.79977417936E+02  0.11038845655E+02 -0.37118594548E+03  0.41798345430E+03  0.17439300001E+03 0.  0.
        -24    2    5    5    0    0 -0.56568333940E+02  0.74417824532E+02 -0.25615216618E+03  0.28449285330E+03  0.81143467536E+02 0.  0.
          5    1    3    3  501    0 -0.40227151931E+02 -0.25394137245E+02 -0.75118046790E+02  0.89038738269E+02  0.47000000000E+01 0. -1.
        -11    1    4    4    0    0  0.31096597458E+02  0.26829400285E+02 -0.13076201546E+03  0.13706027791E+03  0.00000000000E+00 0.  1.
         12    1    4    4    0    0  0.89107972408E+02 -0.12474108694E+02 -0.91400293964E+02  0.12825696032E+03  0.00000000000E+00 0. -1.
         -5    1    5    5    0  502 -0.23409083996E+02 -0.63378978876E+02 -0.11503377930E+03  0.13349060101E+03  0.47000000000E+01 0.  1.
         11    1    6    6    0    0 -0.74394795439E+02  0.39780338615E+02 -0.16342442092E+03  0.18391466033E+03  0.00000000000E+00 0. -1.
        -12    1    6    6    0    0  0.17826461499E+02  0.34637485917E+02 -0.92727745260E+02  0.10057819297E+03  0.00000000000E+00 0.  1.
</event>
<event>
12    1  0.8493057E-002  0.2658382E+03  0.7818608E-02  0.1103693E+00
         21   -1    0    0  503  502  0.00000000000E+00  0.00000000000E+00  0.23682014540E+03  0.23682014540E+03  0.00000000000E+00 0. -1.
         21   -1    0    0  501  503 -0.00000000000E+00 -0.00000000000E+00 -0.89747231102E+03  0.89747231102E+03  0.00000000000E+00 0.  1.
          6    2    1    2  501    0  0.15474027409E+03 -0.13197379564E+03 -0.79369950307E+03  0.83701895931E+03  0.17111458707E+03 0.  0.
         24    2    3    3    0    0  0.15985077670E+03 -0.77149707885E+02 -0.71393626702E+03  0.73998256582E+03  0.79780048403E+02 0.  0.
         -6    2    1    2    0  502 -0.15474027409E+03  0.13197379564E+03  0.13304733746E+03  0.29727349711E+03  0.17119667906E+03 0.  0.
        -24    2    5    5    0    0 -0.96557776763E+01  0.29664080095E+02  0.66531730461E+02  0.10763382571E+03  0.78647171526E+02 0.  0.
          5    1    3    3  501    0 -0.51105026135E+01 -0.54824087751E+02 -0.79763236058E+02  0.97036393487E+02  0.47000000000E+01 0. -1.
        -11    1    4    4    0    0  0.41705675880E+02  0.14832735946E+02 -0.13959976164E+03  0.14644953706E+03  0.00000000000E+00 0.  1.
         12    1    4    4    0    0  0.11814510082E+03 -0.91982443831E+02 -0.57433650538E+03  0.59353302876E+03  0.00000000000E+00 0. -1.
         -5    1    5    5    0  502 -0.14508449641E+03  0.10230971554E+03  0.66515606995E+02  0.18963967140E+03  0.47000000000E+01 0.  1.
         11    1    6    6    0    0 -0.89668956241E+01  0.52562433730E+02  0.22251197802E+02  0.57778287102E+02  0.00000000000E+00 0. -1.
        -12    1    6    6    0    0 -0.68888205226E+00 -0.22898353635E+02  0.44280532659E+02  0.49855538611E+02  0.00000000000E+00 0.  1.
</event>
<event>
12    1  0.8493057E-002  0.2296143E+03  0.7818608E-02  0.1126941E+00
         21   -1    0    0  501  502  0.00000000000E+00  0.00000000000E+00  0.56197451213E+02  0.56197451213E+02  0.00000000000E+00 0.  1.
         21   -1    0    0  502  503 -0.00000000000E+00 -0.00000000000E+00 -0.94032693701E+03  0.94032693701E+03  0.00000000000E+00 0.  1.
         -6    2    1    2    0  503  0.79783190637E+02  0.12909163013E+03 -0.46965500552E+03  0.52277961993E+03  0.17231569960E+03 0.  0.
        -24    2    3    3    0    0  0.17793357590E+02  0.41042217631E+02 -0.91251921286E+02  0.12932514658E+03  0.79981330307E+02 0.  0.
          6    2    1    2  501    0 -0.79783190637E+02 -0.12909163013E+03 -0.41447448028E+03  0.47374476829E+03  0.17209010489E+03 0.  0.
         24    2    5    5    0    0 -0.70319829304E+02 -0.94817984538E+02 -0.14948748812E+03  0.20634163816E+03  0.79341249981E+02 0.  0.
          5    1    5    5  501    0 -0.94633613328E+01 -0.34273645595E+02 -0.26498699216E+03  0.26740313013E+03  0.47000000000E+01 0. -1.
        -11    1    6    6    0    0  0.71311271666E+01 -0.34252351631E+02 -0.75761735941E+02  0.83450088075E+02  0.00000000000E+00 0.  1.
         12    1    6    6    0    0 -0.77450956470E+02 -0.60565632906E+02 -0.73725752175E+02  0.12289155008E+03  0.00000000000E+00 0. -1.
         -5    1    3    3    0  503  0.61989833047E+02  0.88049412502E+02 -0.37840308423E+03  0.39345447335E+03  0.47000000000E+01 0.  1.
         11    1    4    4    0    0  0.22489180521E+02 -0.20054903879E+02 -0.34476926265E+02  0.45788872609E+02  0.00000000000E+00 0. -1.
        -12    1    4    4    0    0 -0.46958229312E+01  0.61097121510E+02 -0.56774995021E+02  0.83536273974E+02  0.00000000000E+00 0.  1.
</event>
<event>
12    1  0.8493057E-002  0.1922043E+03  0.7818608E-02  0.1157244E+00
         21   -1    0    0  501  502  0.00000000000E+00  0.00000000000E+00  0.13152027935E+03  0.13152027935E+03  0.00000000000E+00 0. -1.
         21   -1    0    0  502  503 -0.00000000000E+00 -0.00000000000E+00 -0.28952276068E+03  0.28952276068E+03  0.00000000000E+00 0. -1.
         -6    2    1    2    0  503  0.81495189938E+02  0.21528690687E+02 -0.12519414151E+03  0.22938189347E+03  0.17273543203E+03 0.  0.
        -24    2    3    3    0    0 -0.21106271183E+02  0.25784072129E+02 -0.37856659137E+02  0.94492702196E+02  0.79909017442E+02 0.  0.
          6    2    1    2  501    0 -0.81495189938E+02 -0.21528690687E+02 -0.32808339823E+02  0.19166114656E+03  0.16897531604E+03 0.  0.
         24    2    5    5    0    0 -0.48343909847E+02  0.24851060062E+02 -0.73011392912E+02  0.12174359419E+03  0.80846338356E+02 0.  0.
          5    1    5    5  501    0 -0.33151280092E+02 -0.46379750749E+02  0.40203053090E+02  0.69917552367E+02  0.47000000000E+01 0. -1.
        -11    1    6    6    0    0 -0.23920852490E+02 -0.21516161482E+02 -0.59471384749E+02  0.67616551175E+02  0.00000000000E+00 0.  1.
         12    1    6    6    0    0 -0.24423057357E+02  0.46367221544E+02 -0.13540008163E+02  0.54127043014E+02  0.00000000000E+00 0. -1.
         -5    1    3    3    0  503  0.10260146112E+03 -0.42553814417E+01 -0.87337482375E+02  0.13488919128E+03  0.47000000000E+01 0.  1.
         13    1    4    4    0    0  0.55424842438E+01  0.15216435289E+02 -0.57502513848E+02  0.59739418589E+02  0.00000000000E+00 0. -1.
        -14    1    4    4    0    0 -0.26648755426E+02  0.10567636839E+02  0.19645854711E+02  0.34753283607E+02  0.00000000000E+00 0.  1.
</event>
<event>
12    1  0.8493057E-002  0.1969066E+03  0.7818608E-02  0.1153055E+00
         21   -1    0    0  503  502  0.00000000000E+00  0.00000000000E+00  0.30632653351E+03  0.30632653351E+03  0.00000000000E+00 0.  1.
         21   -1    0    0  501  503 -0.00000000000E+00 -0.00000000000E+00 -0.17270981293E+03  0.17270981293E+03  0.00000000000E+00 0.  1.
          6    2    1    2  501    0 -0.79430671771E+02 -0.49714857415E+02 -0.59260450938E+02  0.20563073533E+03  0.17318025176E+03 0.  0.
         24    2    3    3    0    0 -0.24386991666E+02 -0.81879266973E+02 -0.76518426944E+02  0.13941681159E+03  0.79265616557E+02 0.  0.
         -6    2    1    2    0  502  0.79430671771E+02  0.49714857415E+02  0.19287717151E+03  0.27340561111E+03  0.16961198728E+03 0.  0.
        -24    2    5    5    0    0  0.64025140783E+01  0.17906200229E+02  0.17207452178E+03  0.19094505858E+03  0.80552778707E+02 0.  0.
          5    1    3    3  501    0 -0.55043680105E+02  0.32164409558E+02  0.17257976005E+02  0.66213923743E+02  0.47000000000E+01 0. -1.
        -11    1    4    4    0    0 -0.23273060631E+02 -0.40165352081E+02  0.61374526554E+01  0.46824771051E+02  0.00000000000E+00 0.  1.
         12    1    4    4    0    0 -0.11139310349E+01 -0.41713914893E+02 -0.82655879599E+02  0.92592040534E+02  0.00000000000E+00 0. -1.
         -5    1    5    5    0  502  0.73028157693E+02  0.31808657186E+02  0.20802649737E+02  0.82460552533E+02  0.47000000000E+01 0.  1.
         11    1    6    6    0    0  0.41697194056E+02 -0.28960545171E+01  0.86575610528E+02  0.96137294856E+02  0.00000000000E+00 0. -1.
        -12    1    6    6    0    0 -0.35294679977E+02  0.20802254746E+02  0.85498911249E+02  0.94807763722E+02  0.00000000000E+00 0.  1.
</event>
<event>
12    1  0.8493057E-002  0.2088298E+03  0.7818608E-02  0.1144986E+00
         21   -1    0    0  503  502  0.00000000000E+00  0.00000000000E+00  0.85991909466E+02  0.85991909466E+02  0.00000000000E+00 0. -1.
         21   -1    0    0  501  503 -0.00000000000E+00 -0.00000000000E+00 -0.74426890172E+03  0.74426890172E+03  0.00000000000E+00 0. -1.
          6    2    1    2  501    0  0.71349136073E+02  0.63316643985E+02 -0.57097263344E+03  0.60391604248E+03  0.17206144720E+03 0.  0.
         24    2    3    3    0    0  0.24636900497E+02  0.53560401338E+01 -0.10278340731E+03  0.12982247997E+03  0.75191644856E+02 0.  0.
         -6    2    1    2    0  502 -0.71349136073E+02 -0.63316643985E+02 -0.87304358814E+02  0.22634476870E+03  0.18576922949E+03 0.  0.
        -24    2    5    5    0    0 -0.69246887535E+02 -0.44112087244E+02  0.22213682482E+02  0.11503652184E+03  0.77452863048E+02 0.  0.
          5    1    3    3  501    0  0.46712235576E+02  0.57960603851E+02 -0.46818922613E+03  0.47409356251E+03  0.47000000000E+01 0. -1.
        -11    1    4    4    0    0 -0.21088191354E+02 -0.73548591797E+01 -0.78254865716E+01  0.23665248957E+02  0.00000000000E+00 0.  1.
         12    1    4    4    0    0  0.45725091851E+02  0.12710899314E+02 -0.94957920734E+02  0.10615723101E+03  0.00000000000E+00 0. -1.
         -5    1    5    5    0  502 -0.21022485376E+01 -0.19204556741E+02 -0.10951804130E+03  0.11130824685E+03  0.47000000000E+01 0.  1.
         13    1    6    6    0    0 -0.77355052213E+02 -0.27152350827E+02 -0.48038546185E+01  0.82122659951E+02  0.00000000000E+00 0. -1.
        -14    1    6    6    0    0  0.81081646777E+01 -0.16959736417E+02  0.27017537100E+02  0.32913861893E+02  0.00000000000E+00 0.  1.
</event>
<event>
12    1  0.8493057E-002  0.2853226E+03  0.7818608E-02  0.1092841E+00
         21   -1    0    0  503  502  0.00000000000E+00  0.00000000000E+00  0.48436879053E+03  0.48436879053E+03  0.00000000000E+00 0. -1.
         21   -1    0    0  501  503 -0.00000000000E+00 -0.00000000000E+00 -0.28139749799E+03  0.28139749799E+03  0.00000000000E+00 0.  1.
          6    2    1    2  501    0  0.18882497276E+03  0.12656356008E+03 -0.14158829486E+03  0.31852192051E+03  0.17244060868E+03 0.  0.
         24    2    3    3    0    0  0.16589175633E+03  0.12796644700E+03 -0.17030937395E+03  0.28144239932E+03  0.79429559382E+02 0.  0.
         -6    2    1    2    0  502 -0.18882497276E+03 -0.12656356008E+03  0.34455958739E+03  0.44724436801E+03  0.17214241306E+03 0.  0.
        -24    2    5    5    0    0 -0.98688920142E+02 -0.70540732705E+02  0.29784729607E+03  0.33119613093E+03  0.79135121395E+02 0.  0.
          5    1    3    3  501    0  0.22933216433E+02 -0.14028869151E+01  0.28721079088E+02  0.37079521189E+02  0.47000000000E+01 0. -1.
        -13    1    4    4    0    0  0.12756439510E+03  0.62722360124E+02 -0.78212168011E+02  0.16224645630E+03  0.00000000000E+00 0.  1.
         14    1    4    4    0    0  0.38327361232E+02  0.65244086875E+02 -0.92097205934E+02  0.11919594302E+03  0.00000000000E+00 0. -1.
         -5    1    5    5    0  502 -0.90136052621E+02 -0.56022827379E+02  0.46712291325E+02  0.11604823708E+03  0.47000000000E+01 0.  1.
         13    1    6    6    0    0 -0.74041567429E+02 -0.84862144179E+01  0.19304430470E+03  0.20693059976E+03  0.00000000000E+00 0. -1.
        -14    1    6    6    0    0 -0.24647352713E+02 -0.62054518287E+02  0.10480299137E+03  0.12426553116E+03  0.00000000000E+00 0.  1.
</event>
<event>
12    1  0.8493057E-002  0.1996351E+03  0.7818608E-02  0.1150924E+00
         21   -1    0    0  503  502  0.00000000000E+00  0.00000000000E+00  0.36518636243E+02  0.36518636243E+02  0.00000000000E+00 0. -1.
         21   -1    0    0  501  503 -0.00000000000E+00 -0.00000000000E+00 -0.17006690281E+04  0.17006690281E+04  0.00000000000E+00 0.  1.
          6    2    1    2  501    0 -0.92017774878E+02  0.17004584391E+02 -0.13559762432E+04  0.13700017527E+04  0.17168809965E+03 0.  0.
         24    2    3    3    0    0 -0.63713381960E+02 -0.53754483432E+02 -0.93996115318E+03  0.94703765323E+03  0.80027542865E+02 0.  0.
         -6    2    1    2    0  502  0.92017774878E+02 -0.17004584391E+02 -0.30817414865E+03  0.36718591161E+03  0.17634557269E+03 0.  0.
        -24    2    5    5    0    0 -0.16421604009E+02  0.95518710028E+01 -0.17106671077E+03  0.19031057772E+03  0.81199686831E+02 0.  0.
          5    1    3    3  501    0 -0.28304392918E+02  0.70759067823E+02 -0.41601509004E+03  0.42296409951E+03  0.47000000000E+01 0. -1.
        -13    1    4    4    0    0 -0.67070774246E+02 -0.76884335982E+01 -0.63843310512E+03  0.64199254706E+03  0.00000000000E+00 0.  1.
         14    1    4    4    0    0  0.33573922856E+01 -0.46066049834E+02 -0.30152804806E+03  0.30504510617E+03  0.00000000000E+00 0. -1.
         -5    1    5    5    0  502  0.10843937889E+03 -0.26556455394E+02 -0.13710743788E+03  0.17687533389E+03  0.47000000000E+01 0.  1.
         13    1    6    6    0    0  0.27693524569E+02  0.23729714682E+02 -0.86659470584E+02  0.94020713164E+02  0.00000000000E+00 0. -1.
        -14    1    6    6    0    0 -0.44115128578E+02 -0.14177843680E+02 -0.84407240187E+02  0.96289864559E+02  0.00000000000E+00 0.  1.
</event>
<event>
12    1  0.8493057E-002  0.2547005E+03  0.7818608E-02  0.1110454E+00
         21   -1    0    0  501  502  0.00000000000E+00  0.00000000000E+00  0.24843921277E+03  0.24843921277E+03  0.00000000000E+00 0. -1.
         21   -1    0    0  502  503 -0.00000000000E+00 -0.00000000000E+00 -0.36258449421E+03  0.36258449421E+03  0.00000000000E+00 0.  1.
         -6    2    1    2    0  503 -0.12549829053E+03 -0.13949920361E+03  0.10503132719E+03  0.27500178072E+03  0.17141922581E+03 0.  0.
        -24    2    3    3    0    0 -0.11410868391E+03 -0.78455211643E+02  0.87007759531E+01  0.16029451331E+03  0.80265905085E+02 0.  0.
          6    2    1    2  501    0  0.12549829053E+03  0.13949920361E+03 -0.21917660864E+03  0.33602192626E+03  0.17222804772E+03 0.  0.
         24    2    5    5    0    0  0.94002943371E+02  0.83369059182E+02 -0.51085279061E+02  0.15596822570E+03  0.77002781123E+02 0.  0.
          5    1    5    5  501    0  0.31495347154E+02  0.56130144425E+02 -0.16809132958E+03  0.18005370056E+03  0.47000000000E+01 0. -1.
        -11    1    6    6    0    0  0.30742617834E+02 -0.69727744626E+01 -0.30327583500E+02  0.43743461865E+02  0.00000000000E+00 0.  1.
         12    1    6    6    0    0  0.63260325537E+02  0.90341833645E+02 -0.20757695561E+02  0.11222476384E+03  0.00000000000E+00 0. -1.
         -5    1    3    3    0  503 -0.11389606616E+02 -0.61043991964E+02  0.96330551239E+02  0.11470726741E+03  0.47000000000E+01 0.  1.
         11    1    4    4    0    0 -0.65746742448E+01  0.12644575609E+02 -0.10981194464E+02  0.17991616537E+02  0.00000000000E+00 0. -1.
        -12    1    4    4    0    0 -0.10753400966E+03 -0.91099787251E+02  0.19681970417E+02  0.14230289678E+03  0.00000000000E+00 0.  1.
</event>
<event>
12    1  0.8493057E-002  0.2969186E+03  0.7818608E-02  0.1086978E+00
         21   -1    0    0  501  502  0.00000000000E+00  0.00000000000E+00  0.13343974572E+04  0.13343974572E+04  0.00000000000E+00 0. -1.
         21   -1    0    0  502  503 -0.00000000000E+00 -0.00000000000E+00 -0.13014047937E+03  0.13014047937E+03  0.00000000000E+00 0.  1.
         -6    2    1    2    0  503  0.82939507930E+02  0.22595888766E+03  0.86252076273E+02  0.30777709707E+03  0.17132116020E+03 0.  0.
        -24    2    3    3    0    0 -0.11615366956E+02  0.40488153157E+02  0.26354628306E+02  0.91098044104E+02  0.76354959962E+02 0.  0.
          6    2    1    2  501    0 -0.82939507930E+02 -0.22595888766E+03  0.11180049016E+04  0.11567608395E+04  0.17385137045E+03 0.  0.
         24    2    5    5    0    0  0.14983878204E+01 -0.17773507345E+03  0.63342419892E+03  0.66249791164E+03  0.78008112660E+02 0.  0.
          5    1    5    5  501    0 -0.84437895750E+02 -0.48223814213E+02  0.48458070265E+03  0.49426292788E+03  0.47000000000E+01 0. -1.
        -11    1    6    6    0    0  0.33278526263E+02 -0.76094841373E+02  0.20850977808E+03  0.22444200308E+03  0.00000000000E+00 0.  1.
         12    1    6    6    0    0 -0.31780138443E+02 -0.10164023207E+03  0.42491442085E+03  0.43805590855E+03  0.00000000000E+00 0. -1.
         -5    1    3    3    0  503  0.94554874885E+02  0.18547073450E+03  0.59897447967E+02  0.21667905297E+03  0.47000000000E+01 0.  1.
         13    1    4    4    0    0 -0.14883421521E+02  0.18795359809E+01  0.45478547158E+02  0.47888904178E+02  0.00000000000E+00 0. -1.
        -14    1    4    4    0    0  0.32680545657E+01  0.38608617176E+02 -0.19123918852E+02  0.43209139926E+02  0.00000000000E+00 0.  1.
</event>
<event>
12    1  0.8493057E-002  0.2301801E+03  0.7818608E-02  0.1126837E+00
         21   -1    0    0  501  502  0.00000000000E+00  0.00000000000E+00  0.26478024311E+04  0.26478024311E+04  0.00000000000E+00 0. -1.
         21   -1    0    0  502  503 -0.00000000000E+00 -0.00000000000E+00 -0.20335136560E+02  0.20335136560E+02  0.00000000000E+00 0. -1.
         -6    2    1    2    0  503  0.64856680641E+02 -0.13734753257E+03  0.11129963754E+04  0.11365490850E+04  0.17295131433E+03 0.  0.
        -24    2    3    3    0    0  0.61659012877E+02 -0.91838792806E+01  0.43349656925E+03  0.44504476562E+03  0.79116308966E+02 0.  0.
          6    2    1    2  501    0 -0.64856680641E+02  0.13734753257E+03  0.15144709191E+04  0.15315884826E+04  0.17050038625E+03 0.  0.
         24    2    5    5    0    0 -0.14176497430E+02  0.12239736547E+03  0.13669592578E+04  0.13748282560E+04  0.79956442288E+02 0.  0.
          5    1    5    5  501    0 -0.50680183211E+02  0.14950167098E+02  0.14751166125E+03  0.15676022669E+03  0.47000000000E+01 0. -1.
        -11    1    6    6    0    0  0.32481325297E+02  0.59637447606E+02  0.70605169387E+03  0.70930998587E+03  0.00000000000E+00 0.  1.
         12    1    6    6    0    0 -0.46657822727E+02  0.62759917865E+02  0.66090756396E+03  0.66551827008E+03  0.00000000000E+00 0. -1.
         -5    1    3    3    0  503  0.31976677646E+01 -0.12816365329E+03  0.67949980620E+03  0.69150431938E+03  0.47000000000E+01 0.  1.
         11    1    4    4    0    0  0.25429638250E+01 -0.21039569710E+02  0.28134698754E+02  0.35223450038E+02  0.00000000000E+00 0. -1.
        -12    1    4    4    0    0  0.59116049052E+02  0.11855690430E+02  0.40536187050E+03  0.40982131558E+03  0.00000000000E+00 0.  1.
</event>
<event>
12    1  0.8493057E-002  0.1728380E+03  0.7818608E-02  0.1175542E+00
         21   -1    0    0  501  502  0.00000000000E+00  0.00000000000E+00  0.18787292573E+04  0.18787292573E+04  0.00000000000E+00 0.  1.
         21   -1    0    0  502  503 -0.00000000000E+00 -0.00000000000E+00 -0.46702804827E+02  0.46702804827E+02  0.00000000000E+00 0.  1.
         -6    2    1    2    0  503 -0.74964506523E+01  0.18083686512E+01  0.12920056686E+03  0.21385706655E+03  0.17024274278E+03 0.  0.
        -24    2    3    3    0    0 -0.33298347865E+02  0.39157382953E+02  0.13762498362E+03  0.16744858062E+03  0.80351169408E+02 0.  0.
          6    2    1    2  501    0  0.74964506523E+01 -0.18083686512E+01  0.17028258856E+04  0.17115749956E+04  0.17266586748E+03 0.  0.
         24    2    5    5    0    0 -0.25879474899E+02 -0.32952474196E+02  0.52539056973E+03  0.53324570339E+03  0.80994547054E+02 0.  0.
          5    1    5    5  501    0  0.33375925552E+02  0.31144105545E+02  0.11774353159E+04  0.11783292922E+04  0.47000000000E+01 0. -1.
        -13    1    6    6    0    0 -0.16196220440E+02 -0.53424110869E+02  0.47145590712E+03  0.47474953980E+03  0.00000000000E+00 0.  1.
         14    1    6    6    0    0 -0.96832544590E+01  0.20471636673E+02  0.53934662607E+02  0.58496163597E+02  0.00000000000E+00 0. -1.
         -5    1    3    3    0  503  0.25801897212E+02 -0.37349014301E+02 -0.84244167577E+01  0.46408485935E+02  0.47000000000E+01 0.  1.
         13    1    4    4    0    0 -0.44198618178E+02  0.35795809588E+02  0.14368472312E+03  0.15453205975E+03  0.00000000000E+00 0. -1.
        -14    1    4    4    0    0  0.10900270313E+02  0.33615733647E+01 -0.60597395053E+01  0.12916520865E+02  0.00000000000E+00 0.  1.
</event>
<event>
12    1  0.8493057E-002  0.1783355E+03  0.7818608E-02  0.1169538E+00
         21   -1    0    0  503  502  0.00000000000E+00  0.00000000000E+00  0.25759682146E+03  0.25759682146E+03  0.00000000000E+00 0.  1.
         21   -1    0    0  501  503 -0.00000000000E+00 -0.00000000000E+00 -0.24214531847E+03  0.24214531847E+03  0.00000000000E+00 0.  1.
          6    2    1    2  501    0 -0.40660278000E+02 -0.25218593109E+02 -0.16745044054E+03  0.24428829764E+03  0.17131224908E+03 0.  0.
         24    2    3    3    0    0 -0.42758672204E+02  0.24390915086E+02 -0.16977082431E+03  0.19435853956E+03  0.80807724409E+02 0.  0.
         -6    2    1    2    0  502  0.40660278000E+02  0.25218593109E+02  0.18290194352E+03  0.25545384228E+03  0.17179729028E+03 0.  0.
        -24    2    5    5    0    0  0.35910465364E+01 -0.48662348191E+02  0.83276375902E+02  0.12591672354E+03  0.80864990805E+02 0.  0.
          5    1    3    3  501    0  0.20983942040E+01 -0.49609508195E+02  0.23203837758E+01  0.49929758085E+02  0.47000000000E+01 0. -1.
        -11    1    4    4    0    0 -0.47706923474E+02 -0.14619904638E+02 -0.61670513197E+02  0.79328080507E+02  0.00000000000E+00 0.  1.
         12    1    4    4    0    0  0.49482512705E+01  0.39010819725E+02 -0.10810031111E+03  0.11503045905E+03  0.00000000000E+00 0. -1.
         -5    1    5    5    0  502  0.37069231463E+02  0.73880941299E+02  0.99625567617E+02  0.12953711874E+03  0.47000000000E+01 0.  1.
         13    1    6    6    0    0 -0.38584507514E+02 -0.20189931272E+02  0.39393546912E+02  0.58721793937E+02  0.00000000000E+00 0. -1.
        -14    1    6    6    0    0  0.42175554050E+02 -0.28472416919E+02  0.43882828991E+02  0.67194929607E+02  0.00000000000E+00 0.  1.
</event>
<event>
12    1  0.8493057E-002  0.2134793E+03  0.7818608E-02  0.1141722E+00
         21   -1    0    0  501  502  0.00000000000E+00  0.00000000000E+00  0.28776503612E+03  0.28776503612E+03  0.00000000000E+00 0.  1.
         21   -1    0    0  502  503 -0.00000000000E+00 -0.00000000000E+00 -0.15230307086E+03  0.15230307086E+03  0.00000000000E+00 0. -1.
         -6    2    1    2    0  503  0.46544893343E+02 -0.81913343628E+02  0.10733045316E+03  0.23894190424E+03  0.19156509198E+03 0.  0.
        -24    2    3    3    0    0  0.28943617046E+02  0.61323333886E+01 -0.16081401489E+02  0.86251295375E+02  0.79406145855E+02 0.  0.
          6    2    1    2  501    0 -0.46544893343E+02  0.81913343628E+02  0.28131512099E+02  0.20112620274E+03  0.17545410937E+03 0.  0.
         24    2    5    5    0    0  0.33892553603E+02  0.79623717251E+02  0.92877728212E+01  0.11834575958E+03  0.80192359661E+02 0.  0.
          5    1    5    5  501    0 -0.80437446947E+02  0.22896263775E+01  0.18843739278E+02  0.82780443163E+02  0.47000000000E+01 0. -1.
        -13    1    6    6    0    0  0.31021030605E+02  0.10586223098E+02  0.31805207303E+02  0.45672132322E+02  0.00000000000E+00 0.  1.
         14    1    6    6    0    0  0.28715229984E+01  0.69037494152E+02 -0.22517434482E+02  0.72673627258E+02  0.00000000000E+00 0. -1.
         -5    1    3    3    0  503  0.17601276298E+02 -0.88045677017E+02  0.12341185465E+03  0.15269060887E+03  0.47000000000E+01 0.  1.
         11    1    4    4    0    0 -0.13064195904E+02  0.31504790176E+02  0.14536178117E+01  0.34137047667E+02  0.00000000000E+00 0. -1.
        -12    1    4    4    0    0  0.42007812950E+02 -0.25372456787E+02 -0.17535019301E+02  0.52114247708E+02  0.00000000000E+00 0.  1.
</event>
<event>
12    1  0.8493057E-002  0.2227855E+03  0.7818608E-02  0.1132537E+00
         21   -1    0    0  503  502  0.00000000000E+00  0.00000000000E+00  0.97206626923E+03  0.97206626923E+03  0.00000000000E+00 0.  1.
         21   -1    0    0  501  503 -0.00000000000E+00 -0.00000000000E+00 -0.10913426109E+03  0.10913426109E+03  0.00000000000E+00 0.  1.
          6    2    1    2  501    0 -0.12385110049E+03  0.68256522318E+02  0.35871971818E+02  0.22565497645E+03  0.17214912751E+03 0.  0.
         24    2    3    3    0    0 -0.94691535263E+02  0.30498926585E+02  0.87614708110E+02  0.15511904916E+03  0.80553776832E+02 0.  0.
         -6    2    1    2    0  502  0.12385110049E+03 -0.68256522318E+02  0.82706003633E+03  0.85554555387E+03  0.16712822359E+03 0.  0.
        -24    2    5    5    0    0  0.11415083382E+03 -0.10919137154E+03  0.65436694783E+03  0.67774018311E+03  0.78628779173E+02 0.  0.
          5    1    3    3  501    0 -0.29159565223E+02  0.37757595732E+02 -0.51742736292E+02  0.70535927289E+02  0.47000000000E+01 0. -1.
        -13    1    4    4    0    0 -0.30385139980E+02  0.11548283396E+02  0.81567956250E+02  0.87806327037E+02  0.00000000000E+00 0.  1.
         14    1    4    4    0    0 -0.64306395283E+02  0.18950643189E+02  0.60467518601E+01  0.67312722123E+02  0.00000000000E+00 0. -1.
         -5    1    5    5    0  502  0.97002666703E+01  0.40934849220E+02  0.17269308850E+03  0.17780537076E+03  0.47000000000E+01 0.  1.
         13    1    6    6    0    0  0.56752138300E+02 -0.43313799307E+02  0.15325811842E+03  0.16907081733E+03  0.00000000000E+00 0. -1.
        -14    1    6    6    0    0  0.57398695516E+02 -0.65877572230E+02  0.50110882941E+03  0.50866936578E+03  0.00000000000E+00 0.  1.
</event>
<event>
12    1  0.8493057E-002  0.1849364E+03  0.7818608E-02  0.1163191E+00
         21   -1    0    0  501  502  0.00000000000E+00  0.00000000000E+00  0.38575974636E+03  0.38575974636E+03  0.00000000000E+00 0.  1.
         21   -1    0    0  502  503 -0.00000000000E+00 -0.00000000000E+00 -0.13287006444E+03  0.13287006444E+03  0.00000000000E+00 0. -1.
         -6    2    1    2    0  503 -0.15828610732E+02 -0.68502179980E+02 -0.23498389910E+02  0.18607631656E+03  0.17067257448E+03 0.  0.
        -24    2    3    3    0    0  0.15489057292E+02 -0.11509626575E+02 -0.68179717449E+02  0.10703545052E+03  0.80223010398E+02 0.  0.
          6    2    1    2  501    0  0.15828610732E+02  0.68502179980E+02  0.27638807183E+03  0.33255349424E+03  0.17105077228E+03 0.  0.
         24    2    5    5    0    0  0.30776224070E+02 -0.11699185978E+02  0.20800538033E+03  0.22599847210E+03  0.82006245024E+02 0.  0.
          5    1    5    5  501    0 -0.14947613339E+02  0.80201365959E+02  0.68382691501E+02  0.10655502214E+03  0.47000000000E+01 0. -1.
        -13    1    6    6    0    0 -0.92231324060E+00 -0.19898210462E+02  0.18479239359E+03  0.18586290155E+03  0.00000000000E+00 0.  1.
         14    1    6    6    0    0  0.31698537311E+02  0.81990244836E+01  0.23212986738E+02  0.40135570550E+02  0.00000000000E+00 0. -1.
         -5    1    3    3    0  503 -0.31317668023E+02 -0.56992553405E+02  0.44681327540E+02  0.79040866043E+02  0.47000000000E+01 0.  1.
         11    1    4    4    0    0 -0.60719430215E+01 -0.24940181774E+02 -0.76192198661E+02  0.80399827710E+02  0.00000000000E+00 0. -1.
        -12    1    4    4    0    0  0.21561000313E+02  0.13430555198E+02  0.80124812116E+01  0.26635622813E+02  0.00000000000E+00 0.  1.
</event>
<event>
12    1  0.8493057E-002  0.2123957E+03  0.7818608E-02  0.1139940E+00
         21   -1    0    0  503  502  0.00000000000E+00  0.00000000000E+00  0.11918992122E+03  0.11918992122E+03  0.00000000000E+00 0.  1.
         21   -1    0    0  501  503 -0.00000000000E+00 -0.00000000000E+00 -0.67943553682E+03  0.67943553682E+03  0.00000000000E+00 0.  1.
          6    2    1    2  501    0 -0.12283580640E+03  0.16053854228E+02 -0.54738846264E+03  0.58715080014E+03  0.17252701673E+03 0.  0.
         24    2    3    3    0    0 -0.18276684693E+02 -0.37147257393E+02 -0.16858640398E+03  0.19057034443E+03  0.78623944392E+02 0.  0.
         -6    2    1    2    0  502  0.12283580640E+03 -0.16053854228E+02 -0.12857152963E+02  0.21147465790E+03  0.17090893185E+03 0.  0.
        -24    2    5    5    0    0  0.17975490559E+02  0.10838358433E+02 -0.47464533462E+02  0.97726525065E+02  0.82807025609E+02 0.  0.
          5    1    3    3  501    0 -0.10455912170E+03  0.53201111621E+02 -0.37880205866E+03  0.39658045571E+03  0.47000000000E+01 0. -1.
        -13    1    4    4    0    0 -0.34929925431E+02  0.11519652406E+02 -0.59231342071E+02  0.69721976203E+02  0.00000000000E+00 0.  1.
         14    1    4    4    0    0  0.16653240738E+02 -0.48666909799E+02 -0.10935506191E+03  0.12084836822E+03  0.00000000000E+00 0. -1.
         -5    1    5    5    0  502  0.10486031584E+03 -0.26892212661E+02  0.34607380499E+02  0.11374813284E+03  0.47000000000E+01 0.  1.
         11    1    6    6    0    0 -0.44707053754E+01 -0.32821991419E+02 -0.64308158596E+01  0.33743528563E+02  0.00000000000E+00 0. -1.
        -12    1    6    6    0    0  0.22446195934E+02  0.43660349852E+02 -0.41033717603E+02  0.63982996502E+02  0.00000000000E+00 0.  1.
</event>
<event>
12    1  0.8493057E-002  0.2969435E+03  0.7818608E-02  0.1087319E+00
         21   -1    0    0  501  502  0.00000000000E+00  0.00000000000E+00  0.13182989471E+04  0.13182989471E+04  0.00000000000E+00 0.  1.
         21   -1    0    0  502  503 -0.00000000000E+00 -0.00000000000E+00 -0.76594742876E+02  0.76594742876E+02  0.00000000000E+00 0. -1.
         -6    2    1    2    0  503  0.12211969931E+03  0.20316652945E+03  0.36450950142E+03  0.47015171719E+03  0.17884518699E+03 0.  0.
        -24    2    3    3    0    0  0.83227986429E+02  0.10309204590E+03  0.31562715810E+03  0.35208800102E+03  0.82405035530E+02 0.  0.
          6    2    1    2  501    0 -0.12211969931E+03 -0.20316652945E+03  0.87719470276E+03  0.92474197274E+03  0.17171869424E+03 0.  0.
         24    2    5    5    0    0 -0.32855979665E+02 -0.17535335578E+03  0.52217672405E+03  0.55758881739E+03  0.80052753604E+02 0.  0.
          5    1    5    5  501    0 -0.89263719641E+02 -0.27813173667E+02  0.35501797871E+03  0.36715315534E+03  0.47000000000E+01 0. -1.
        -13    1    6    6    0    0  0.12419617577E+01 -0.28244735127E+02  0.19749133735E+03  0.19950472641E+03  0.00000000000E+00 0.  1.
         14    1    6    6    0    0 -0.34097941422E+02 -0.14710862065E+03  0.32468538670E+03  0.35808409099E+03  0.00000000000E+00 0. -1.
         -5    1    3    3    0  503  0.38891712877E+02  0.10007448355E+03  0.48882343324E+02  0.11806371618E+03  0.47000000000E+01 0.  1.
         11    1    4    4    0    0  0.76994099830E+01 -0.14301039523E+02  0.38630392295E+02  0.41905940562E+02  0.00000000000E+00 0. -1.
        -12    1    4    4    0    0  0.75528576446E+02  0.11739308542E+03  0.27699676580E+03  0.31018206045E+03  0.00000000000E+00 0.  1.
</event>
<event>
12    1  0.8493057E-002  0.1891364E+03  0.7818608E-02  0.1159252E+00
         21   -1    0    0  501  502  0.00000000000E+00  0.00000000000E+00  0.34678006623E+02  0.34678006623E+02  0.00000000000E+00 0. -1.
         21   -1    0    0  502  503 -0.00000000000E+00 -0.00000000000E+00 -0.10318347341E+04  0.10318347341E+04  0.00000000000E+00 0. -1.
         -6    2    1    2    0  503  0.60389484951E+02 -0.47131843772E+02 -0.48678787606E+03  0.52224038929E+03  0.17292856138E+03 0.  0.
        -24    2    3    3    0    0  0.26392415514E+02  0.40731537524E+02 -0.17597852862E+03  0.19743226908E+03  0.75202663459E+02 0.  0.
          6    2    1    2  501    0 -0.60389484951E+02  0.47131843772E+02 -0.51036885144E+03  0.54427235145E+03  0.17288067401E+03 0.  0.
         24    2    5    5    0    0 -0.10301115152E+02  0.51126704728E+02 -0.46887846467E+03  0.47893977231E+03  0.82560510901E+02 0.  0.
          5    1    5    5  501    0 -0.50088369799E+02 -0.39948609559E+01 -0.41490386771E+02  0.65332579144E+02  0.47000000000E+01 0. -1.
        -11    1    6    6    0    0 -0.17718364509E+02  0.23010047034E+02 -0.42682544680E+03  0.42781230083E+03  0.00000000000E+00 0.  1.
         12    1    6    6    0    0  0.74172493578E+01  0.28116657694E+02 -0.42053017863E+02  0.51127471474E+02  0.00000000000E+00 0. -1.
         -5    1    3    3    0  503  0.33997069437E+02 -0.87863381296E+02 -0.31080934744E+03  0.32480812021E+03  0.47000000000E+01 0.  1.
         11    1    4    4    0    0  0.18222037081E+02  0.98354943524E+01 -0.16066635313E+03  0.16199523639E+03  0.00000000000E+00 0. -1.
        -12    1    4    4    0    0  0.81703784324E+01  0.30896043172E+02 -0.15312175490E+02  0.35437032687E+02  0.00000000000E+00 0.  1.
</event>
<event>
12    1  0.8493057E-002  0.3851026E+03  0.7818608E-02  0.1049282E+00
         21   -1    0    0  501  502  0.00000000000E+00  0.00000000000E+00  0.13425201614E+04  0.13425201614E+04  0.00000000000E+00 0.  1.
         21   -1    0    0  502  503 -0.00000000000E+00 -0.00000000000E+00 -0.24007892038E+03  0.24007892038E+03  0.00000000000E+00 0. -1.
         -6    2    1    2    0  503  0.21556347065E+03 -0.26892571173E+03 -0.32510298779E+02  0.38409208659E+03  0.16637657030E+03 0.  0.
        -24    2    3    3    0    0  0.89339097647E+02 -0.21289065217E+03 -0.29747989034E+02  0.24588123102E+03  0.79175329301E+02 0.  0.
          6    2    1    2  501    0 -0.21556347065E+03  0.26892571173E+03  0.11349515398E+04  0.11985069952E+04  0.17180038274E+03 0.  0.
         24    2    5    5    0    0 -0.39646564317E+02  0.14233440619E+03  0.47754721777E+03  0.50628257407E+03  0.80248154837E+02 0.  0.
          5    1    5    5  501    0 -0.17591690633E+03  0.12659130554E+03  0.65740432207E+03  0.69222442116E+03  0.47000000000E+01 0. -1.
        -13    1    6    6    0    0 -0.51303279085E+02  0.45920987439E+02  0.15919286561E+03  0.17344489613E+03  0.00000000000E+00 0.  1.
         14    1    6    6    0    0  0.11656714768E+02  0.96413418755E+02  0.31835435216E+03  0.33283767794E+03  0.00000000000E+00 0. -1.
         -5    1    3    3    0  503  0.12622437300E+03 -0.56035059564E+02 -0.27623097451E+01  0.13821085556E+03  0.47000000000E+01 0.  1.
         13    1    4    4    0    0  0.14092322546E+02 -0.69525777261E+02  0.24611197669E+02  0.75087537643E+02  0.00000000000E+00 0. -1.
        -14    1    4    4    0    0  0.75246775101E+02 -0.14336487491E+03 -0.54359186703E+02  0.17079369338E+03  0.00000000000E+00 0.  1.
</event>
<event>
12    1  0.8493057E-002  0.2401765E+03  0.7818608E-02  0.1119741E+00
         21   -1    0    0  501  502  0.00000000000E+00  0.00000000000E+00  0.43204977072E+03  0.43204977072E+03  0.00000000000E+00 0. -1.
         21   -1    0    0  502  503 -0.00000000000E+00 -0.00000000000E+00 -0.13362619323E+03  0.13362619323E+03  0.00000000000E+00 0.  1.
         -6    2    1    2    0  503 -0.16375836023E+03 -0.30712497037E+02  0.16317181301E+03  0.29003527847E+03  0.17243945076E+03 0.  0.
        -24    2    3    3    0    0 -0.62114094647E+02 -0.68318645266E+02  0.10941031964E+03  0.16896436008E+03  0.89737054159E+02 0.  0.
          6    2    1    2  501    0  0.16375836023E+03  0.30712497037E+02  0.13525176448E+03  0.27564068548E+03  0.17298754197E+03 0.  0.
         24    2    5    5    0    0  0.13042466658E+03 -0.26601937263E+02  0.13802839070E+03  0.20911340412E+03  0.83416559666E+02 0.  0.
          5    1    5    5  501    0  0.33333693657E+02  0.57314434300E+02 -0.27766262216E+01  0.66527281360E+02  0.47000000000E+01 0. -1.
        -11    1    6    6    0    0  0.90140256533E+02 -0.46448978066E+02  0.56621240842E+02  0.11614102775E+03  0.00000000000E+00 0.  1.
         12    1    6    6    0    0  0.40284410045E+02  0.19847040804E+02  0.81407149857E+02  0.92972376377E+02  0.00000000000E+00 0. -1.
         -5    1    3    3    0  503 -0.10164426559E+03  0.37606148229E+02  0.53761493373E+02  0.12107091840E+03  0.47000000000E+01 0.  1.
         13    1    4    4    0    0 -0.73165770364E+02 -0.42334773116E+02  0.11232401647E+03  0.14057790596E+03  0.00000000000E+00 0. -1.
        -14    1    4    4    0    0  0.11051675717E+02 -0.25983872150E+02 -0.29136968382E+01  0.28386454117E+02  0.00000000000E+00 0.  1.
</event>
<event>
12    1  0.8493057E-002  0.2922958E+03  0.7818608E-02  0.1090298E+00
         21   -1    0    0  503  502  0.00000000000E+00  0.00000000000E+00  0.31211906731E+03  0.31211906731E+03  0.00000000000E+00 0.  1.
         21   -1    0    0  501  503 -0.00000000000E+00 -0.00000000000E+00 -0.36317182171E+03  0.36317182171E+03  0.00000000000E+00 0.  1.
          6    2    1    2  501    0  0.22301079092E+03  0.28471468248E+02 -0.20076121767E+03  0.35460107176E+03  0.18679511825E+03 0.  0.
         24    2    3    3    0    0  0.20753561354E+03 -0.44902132198E+01 -0.93661259739E+02  0.24138250195E+03  0.80011797688E+02 0.  0.
         -6    2    1    2    0  502 -0.22301079092E+03 -0.28471468248E+02  0.14970846327E+03  0.32068981726E+03  0.17287248928E+03 0.  0.
        -24    2    5    5    0    0 -0.23020472821E+03 -0.14639424121E+02  0.92506622056E+02  0.26121529484E+03  0.80420305306E+02 0.  0.
          5    1    3    3  501    0  0.15475177377E+02  0.32961681468E+02 -0.10709995794E+03  0.11321856981E+03  0.47000000000E+01 0. -1.
        -11    1    4    4    0    0  0.82270363346E+02 -0.36277879031E+02 -0.59125698869E+02  0.10761201354E+03  0.00000000000E+00 0.  1.
         12    1    4    4    0    0  0.12526525019E+03  0.31787665811E+02 -0.34535560870E+02  0.13377048841E+03  0.00000000000E+00 0. -1.
         -5    1    5    5    0  502  0.71939372927E+01 -0.13832044128E+02  0.57201841218E+02  0.59474522422E+02  0.47000000000E+01 0.  1.
         13    1    6    6    0    0 -0.12222254256E+02  0.48108284956E+01 -0.12807448699E+02  0.18345525670E+02  0.00000000000E+00 0. -1.
        -14    1    6    6    0    0 -0.21798247395E+03 -0.19450252616E+02  0.10531407076E+03  0.24286976917E+03  0.00000000000E+00 0.  1.
</event>
<event>
12    1  0.8493057E-002  0.1826156E+03  0.7818608E-02  0.1166031E+00
         21   -1    0    0  503  502  0.00000000000E+00  0.00000000000E+00  0.14324060395E+03  0.14324060395E+03  0.00000000000E+00 0.  1.
         21   -1    0    0  501  503 -0.00000000000E+00 -0.00000000000E+00 -0.28173816437E+03  0.28173816437E+03  0.00000000000E+00 0.  1.
          6    2    1    2  501    0  0.38632417708E+02 -0.35928658371E+02  0.22278530057E+02  0.18396958194E+03  0.17482889346E+03 0.  0.
         24    2    3    3    0    0 -0.85631590276E+01 -0.61886159056E+02  0.62511582451E+02  0.11657519931E+03  0.76018779123E+02 0.  0.
         -6    2    1    2    0  502 -0.38632417708E+02  0.35928658371E+02 -0.16077609048E+03  0.24100918637E+03  0.17161918441E+03 0.  0.
        -24    2    5    5    0    0  0.30294367093E+01  0.53138132415E+02 -0.17047707074E+03  0.19466185497E+03  0.77446546263E+02 0.  0.
          5    1    3    3  501    0  0.47195576735E+02  0.25957500684E+02 -0.40233052395E+02  0.67394382630E+02  0.47000000000E+01 0. -1.
        -11    1    4    4    0    0  0.30516633554E+02 -0.24552970373E+02  0.83244970055E+01  0.40042608906E+02  0.00000000000E+00 0.  1.
         12    1    4    4    0    0 -0.39079792582E+02 -0.37333188683E+02  0.54187085446E+02  0.76532590408E+02  0.00000000000E+00 0. -1.
         -5    1    5    5    0  502 -0.41661854417E+02 -0.17209474043E+02  0.97009802660E+01  0.46347331406E+02  0.47000000000E+01 0.  1.
         13    1    6    6    0    0  0.32444245383E+02  0.27086631710E+02 -0.39252331877E+02  0.57680674698E+02  0.00000000000E+00 0. -1.
        -14    1    6    6    0    0 -0.29414808674E+02  0.26051500705E+02 -0.13122473886E+03  0.13698118027E+03  0.00000000000E+00 0.  1.
</event>
<event>
12    1  0.8493057E-002  0.1800408E+03  0.7818608E-02  0.1168800E+00
         21   -1    0    0  501  502  0.00000000000E+00  0.00000000000E+00  0.15032727799E+04  0.15032727799E+04  0.00000000000E+00 0. -1.
         21   -1    0    0  502  503 -0.00000000000E+00 -0.00000000000E+00 -0.23268442876E+02  0.23268442876E+02  0.00000000000E+00 0.  1.
         -6    2    1    2    0  503  0.11644600594E+02  0.34669116069E+02  0.51277985058E+03  0.54346835289E+03  0.17628707017E+03 0.  0.
        -24    2    3    3    0    0 -0.34182975154E+02  0.75212295375E+02  0.30086500750E+03  0.32284671569E+03  0.82975200673E+02 0.  0.
          6    2    1    2  501    0 -0.11644600594E+02 -0.34669116069E+02  0.96722448644E+03  0.98307286988E+03  0.17196370542E+03 0.  0.
         24    2    5    5    0    0  0.37750248600E+02  0.20680803609E+02  0.38444180598E+03  0.39556865084E+03  0.82621295304E+02 0.  0.
          5    1    5    5  501    0 -0.49394849194E+02 -0.55349919678E+02  0.58278268046E+03  0.58750421903E+03  0.47000000000E+01 0. -1.
        -13    1    6    6    0    0 -0.10466140723E+02 -0.13405999014E+02  0.19475635445E+02  0.25856552113E+02  0.00000000000E+00 0.  1.
         14    1    6    6    0    0  0.48216389323E+02  0.34086802623E+02  0.36496617053E+03  0.36971209873E+03  0.00000000000E+00 0. -1.
         -5    1    3    3    0  503  0.45827575748E+02 -0.40543179305E+02  0.21191484308E+03  0.22062163721E+03  0.47000000000E+01 0.  1.
         13    1    4    4    0    0  0.27651020099E+01 -0.10147341643E+02  0.11023267088E+03  0.11073326538E+03  0.00000000000E+00 0. -1.
        -14    1    4    4    0    0 -0.36948077164E+02  0.85359637017E+02  0.19063233661E+03  0.21211345030E+03  0.00000000000E+00 0.  1.
</event>
<event>
12    1  0.8493057E-002  0.2529406E+03  0.7818608E-02  0.1111552E+00
         21   -1    0    0  503  502  0.00000000000E+00  0.00000000000E+00  0.58335968880E+03  0.58335968880E+03  0.00000000000E+00 0.  1.
         21   -1    0    0  501  503 -0.00000000000E+00 -0.00000000000E+00 -0.11765598456E+03  0.11765598456E+03  0.00000000000E+00 0.  1.
          6    2    1    2  501    0 -0.16766132676E+03 -0.77203256080E+02  0.32534954156E+03  0.41174377632E+03  0.17207541923E+03 0.  0.
         24    2    3    3    0    0 -0.16582226761E+03 -0.73504474498E+02  0.18410120132E+03  0.27035690725E+03  0.79370477916E+02 0.  0.
         -6    2    1    2    0  502  0.16766132676E+03  0.77203256080E+02  0.14035416267E+03  0.28927189704E+03  0.17294009424E+03 0.  0.
        -24    2    5    5    0    0  0.96083451895E+01  0.29294033838E+02  0.38404096609E+02  0.95127763645E+02  0.81387689880E+02 0.  0.
          5    1    3    3  501    0 -0.18390591555E+01 -0.36987815823E+01  0.14124834025E+03  0.14138686907E+03  0.47000000000E+01 0. -1.
        -11    1    4    4    0    0 -0.13999957157E+03 -0.33260676869E+02  0.16482933079E+03  0.21880324712E+03  0.00000000000E+00 0.  1.
         12    1    4    4    0    0 -0.25822696042E+02 -0.40243797629E+02  0.19271870531E+02  0.51553660125E+02  0.00000000000E+00 0. -1.
         -5    1    5    5    0  502  0.15805298157E+03  0.47909222243E+02  0.10195006606E+03  0.19414413339E+03  0.47000000000E+01 0.  1.
         11    1    6    6    0    0 -0.15565449359E+02 -0.22700711200E+02  0.21531679268E+02  0.34945939890E+02  0.00000000000E+00 0. -1.
        -12    1    6    6    0    0  0.25173794548E+02  0.51994745038E+02  0.16872417342E+02  0.60181823755E+02  0.00000000000E+00 0.  1.
</event>
<event>
12    1  0.8493057E-002  0.1915606E+03  0.7818608E-02  0.1157370E+00
         21   -1    0    0  501  502  0.00000000000E+00  0.00000000000E+00  0.56019748991E+03  0.56019748991E+03  0.00000000000E+00 0. -1.
         21   -1    0    0  502  503 -0.00000000000E+00 -0.00000000000E+00 -0.76636296161E+02  0.76636296161E+02  0.00000000000E+00 0.  1.
         -6    2    1    2    0  503  0.75070802055E+02  0.31517076138E+02  0.11863005642E+03  0.22531877930E+03  0.17339697405E+03 0.  0.
        -24    2    3    3    0    0  0.82724193587E+02  0.46585728350E+02  0.14481270550E+03  0.19380275490E+03  0.87036003138E+02 0.  0.
          6    2    1    2  501    0 -0.75070802055E+02 -0.31517076138E+02  0.36493113733E+03  0.41151500677E+03  0.17187470551E+03 0.  0.
         24    2    5    5    0    0 -0.87879509733E+02  0.29231199138E+02  0.19735492697E+03  0.23274618337E+03  0.81514093510E+02 0.  0.
          5    1    5    5  501    0  0.12808707678E+02 -0.60748275275E+02  0.16757621036E+03  0.17876882340E+03  0.47000000000E+01 0. -1.
        -11    1    6    6    0    0 -0.90287855353E+01 -0.16394918863E+02  0.41944697997E+01  0.19180873537E+02  0.00000000000E+00 0.  1.
         12    1    6    6    0    0 -0.78850724198E+02  0.45626118000E+02  0.19316045717E+03  0.21356530983E+03  0.00000000000E+00 0. -1.
         -5    1    3    3    0  503 -0.76533915323E+01 -0.15068652212E+02 -0.26182649077E+02  0.31516024402E+02  0.47000000000E+01 0.  1.
         13    1    4    4    0    0 -0.63709104213E+01  0.31126589151E+02  0.13861526714E+02  0.34664029982E+02  0.00000000000E+00 0. -1.
        -14    1    4    4    0    0  0.89095104008E+02  0.15459139199E+02  0.13095117878E+03  0.15913872492E+03  0.00000000000E+00 0.  1.
</event>
<event>
12    1  0.8493057E-002  0.2211350E+03  0.7818608E-02  0.1133302E+00
         21   -1    0    0  501  502  0.00000000000E+00  0.00000000000E+00  0.23027806206E+03  0.23027806206E+03  0.00000000000E+00 0.  1.
         21   -1    0    0  502  503 -0.00000000000E+00 -0.00000000000E+00 -0.25570097983E+03  0.25570097983E+03  0.00000000000E+00 0. -1.
         -6    2    1    2    0  503 -0.61718480845E+02  0.12708200795E+03  0.88849276122E+02  0.23831676652E+03  0.17012254323E+03 0.  0.
        -24    2    3    3    0    0 -0.41805372404E+02  0.61207967172E+02 -0.19038854917E+02  0.11026263751E+03  0.79380519194E+02 0.  0.
          6    2    1    2  501    0  0.61718480845E+02 -0.12708200795E+03 -0.11427219389E+03  0.24766227537E+03  0.16828386947E+03 0.  0.
         24    2    5    5    0    0  0.95597528657E+02 -0.78568447218E+02 -0.41088095208E+02  0.15343193124E+03  0.80877917709E+02 0.  0.
          5    1    5    5  501    0 -0.33879047812E+02 -0.48513560728E+02 -0.73184098681E+02  0.94230344130E+02  0.47000000000E+01 0. -1.
        -13    1    6    6    0    0  0.44672882572E+02 -0.16324613443E+02  0.20842174904E+02  0.51928370820E+02  0.00000000000E+00 0.  1.
         14    1    6    6    0    0  0.50924646086E+02 -0.62243833775E+02 -0.61930270112E+02  0.10150356042E+03  0.00000000000E+00 0. -1.
         -5    1    3    3    0  503 -0.19913108441E+02  0.65874040774E+02  0.10788813104E+03  0.12805412900E+03  0.47000000000E+01 0.  1.
         11    1    4    4    0    0 -0.27936849512E+00  0.30498521513E+02 -0.43490482418E+02  0.53119298962E+02  0.00000000000E+00 0. -1.
        -12    1    4    4    0    0 -0.41526003909E+02  0.30709445658E+02  0.24451627500E+02  0.57143338550E+02  0.00000000000E+00 0.  1.
</event>
<event>
12    1  0.8493057E-002  0.2426142E+03  0.7818608E-02  0.1118220E+00
         21   -1    0    0  501  502  0.00000000000E+00  0.00000000000E+00  0.87667060639E+02  0.87667060639E+02  0.00000000000E+00 0. -1.
         21   -1    0    0  502  503 -0.00000000000E+00 -0.00000000000E+00 -0.69155331116E+03  0.69155331116E+03  0.00000000000E+00 0.  1.
         -6    2    1    2    0  503  0.15108287994E+03 -0.78171707946E+02 -0.37320688930E+03  0.44513484365E+03  0.17298784430E+03 0.  0.
        -24    2    3    3    0    0  0.67705105649E+02 -0.10260734611E+03 -0.17176721928E+03  0.22570607545E+03  0.79542479637E+02 0.  0.
          6    2    1    2  501    0 -0.15108287994E+03  0.78171707946E+02 -0.23067936122E+03  0.33408552814E+03  0.17164882723E+03 0.  0.
         24    2    5    5    0    0 -0.15412968512E+03  0.94154361136E+02 -0.24294988014E+03  0.31317180395E+03  0.80193085578E+02 0.  0.
          5    1    5    5  501    0  0.30468051832E+01 -0.15982653189E+02  0.12270518926E+02  0.20913724190E+02  0.47000000000E+01 0. -1.
        -11    1    6    6    0    0 -0.37905600204E+02  0.20819962280E+02 -0.12431391146E+03  0.13162163173E+03  0.00000000000E+00 0.  1.
         12    1    6    6    0    0 -0.11622408492E+03  0.73334398856E+02 -0.11863596868E+03  0.18155017223E+03  0.00000000000E+00 0. -1.
         -5    1    3    3    0  503  0.83377774289E+02  0.24435638165E+02 -0.20143967002E+03  0.21942876821E+03  0.47000000000E+01 0.  1.
         13    1    4    4    0    0  0.16371666963E+02 -0.30096233763E+02 -0.22694346115E+01  0.34336061209E+02  0.00000000000E+00 0. -1.
        -14    1    4    4    0    0  0.51333438686E+02 -0.72511112348E+02 -0.16949778467E+03  0.19137001424E+03  0.00000000000E+00 0.  1.
</event>
<event>
12    1  0.8493057E-002  0.1943246E+03  0.7818608E-02  0.1155715E+00
         21   -1    0    0  501  502  0.00000000000E+00  0.00000000000E+00  0.10684073634E+04  0.10684073634E+04  0.00000000000E+00 0. -1.
         21   -1    0    0  502  503 -0.00000000000E+00 -0.00000000000E+00 -0.43615871520E+02  0.43615871520E+02  0.00000000000E+00 0. -1.
         -6    2    1    2    0  503 -0.15821499541E+02 -0.44076893790E+02  0.25233177082E+03  0.31549572804E+03  0.18350242351E+03 0.  0.
        -24    2    3    3    0    0 -0.77846456695E+02 -0.57551205403E+02  0.17159652380E+03  0.21269046313E+03  0.80122743720E+02 0.  0.
          6    2    1    2  501    0  0.15821499541E+02  0.44076893790E+02  0.77245972102E+03  0.79652750683E+03  0.18859733862E+03 0.  0.
         24    2    5    5    0    0 -0.34677893881E+01  0.88478038833E+02  0.69496168880E+03  0.70503120447E+03  0.79100325288E+02 0.  0.
          5    1    5    5  501    0  0.19289288929E+02 -0.44401145043E+02  0.77498032221E+02  0.91496302365E+02  0.47000000000E+01 0. -1.
        -11    1    6    6    0    0 -0.83664871408E+01  0.45450841737E+01  0.34428453755E+03  0.34441617078E+03  0.00000000000E+00 0.  1.
         12    1    6    6    0    0  0.48986977527E+01  0.83932954659E+02  0.35067715125E+03  0.36061503369E+03  0.00000000000E+00 0. -1.
         -5    1    3    3    0  503  0.62024957154E+02  0.13474311613E+02  0.80735247017E+02  0.10280526492E+03  0.47000000000E+01 0.  1.
         11    1    4    4    0    0 -0.14562675232E+02 -0.60578025064E+02  0.84064765438E+02  0.10463581327E+03  0.00000000000E+00 0. -1.
        -12    1    4    4    0    0 -0.63283781463E+02  0.30268196610E+01  0.87531758364E+02  0.10805464986E+03  0.00000000000E+00 0.  1.
</event>
<event>
12    1  0.8493057E-002  0.2279231E+03  0.7818608E-02  0.1128209E+00
         21   -1    0    0  503  502  0.00000000000E+00  0.00000000000E+00  0.12814034899E+03  0.12814034899E+03  0.00000000000E+00 0. -1.
         21   -1    0    0  501  503 -0.00000000000E+00 -0.00000000000E+00 -0.84830498114E+03  0.84830498114E+03  0.00000000000E+00 0.  1.
          6    2    1    2  501    0  0.10622310202E+03  0.10494376206E+03 -0.71345507849E+03  0.74897736679E+03  0.17219874082E+03 0.  0.
         24    2    3    3    0    0  0.51786979327E+02 -0.12968030885E+02 -0.34747180428E+03  0.36060598605E+03  0.80311651442E+02 0.  0.
         -6    2    1    2    0  502 -0.10622310202E+03 -0.10494376206E+03 -0.67095536605E+01  0.22746796333E+03  0.17146461919E+03 0.  0.
        -24    2    5    5    0    0 -0.11817289721E+03 -0.33950500149E+02  0.25031898983E+02  0.14864886249E+03  0.79702059306E+02 0.  0.
          5    1    3    3  501    0  0.54436122696E+02  0.11791179294E+03 -0.36598327421E+03  0.38837138073E+03  0.47000000000E+01 0. -1.
        -13    1    4    4    0    0 -0.63363881568E+01 -0.11114490947E+02 -0.22139010735E+03  0.22175946735E+03  0.00000000000E+00 0.  1.
         14    1    4    4    0    0  0.58123367484E+02 -0.18535399385E+01 -0.12608169693E+03  0.13884651871E+03  0.00000000000E+00 0. -1.
         -5    1    5    5    0  502  0.11949795188E+02 -0.70993261911E+02 -0.31741452643E+02  0.78819100843E+02  0.47000000000E+01 0.  1.
         11    1    6    6    0    0 -0.53974207515E+02 -0.55460976157E+02  0.29989882486E+01  0.77447587979E+02  0.00000000000E+00 0. -1.
        -12    1    6    6    0    0 -0.64198689696E+02  0.21510476009E+02  0.22032910734E+02  0.71201274512E+02  0.00000000000E+00 0.  1.
</event>
<event>
12    1  0.8493057E-002  0.2029815E+03  0.7818608E-02  0.1147274E+00
         21   -1    0    0  503  502  0.00000000000E+00  0.00000000000E+00  0.50706176778E+03  0.50706176778E+03  0.00000000000E+00 0.  1.
         21   -1    0    0  501  503 -0.00000000000E+00 -0.00000000000E+00 -0.32237504722E+03  0.32237504722E+03  0.00000000000E+00 0.  1.
          6    2    1    2  501    0 -0.10551746825E+03 -0.48335478400E+01 -0.26635209141E+03  0.33488046106E+03  0.17333259159E+03 0.  0.
         24    2    3    3    0    0 -0.87938914026E+02 -0.67016278263E+02 -0.15707311855E+03  0.20783841510E+03  0.79375109868E+02 0.  0.
         -6    2    1    2    0  502  0.10551746825E+03  0.48335478400E+01  0.45103881197E+03  0.49455635394E+03  0.17318394274E+03 0.  0.
        -24    2    5    5    0    0 -0.93667871744E+01  0.21129243981E+02  0.18405962389E+03  0.20341391676E+03  0.83457143081E+02 0.  0.
          5    1    3    3  501    0 -0.17578554226E+02  0.62182730423E+02 -0.10927897286E+03  0.12704204596E+03  0.47000000000E+01 0. -1.
        -11    1    4    4    0    0  0.13632196671E+02  0.12518745389E+01 -0.14417526077E+02  0.19881374050E+02  0.00000000000E+00 0.  1.
         12    1    4    4    0    0 -0.10157111070E+03 -0.68268152802E+02 -0.14265559248E+03  0.18795704105E+03  0.00000000000E+00 0. -1.
         -5    1    5    5    0  502  0.11488425543E+03 -0.16295696141E+02  0.26697918808E+03  0.29114243718E+03  0.47000000000E+01 0.  1.
         13    1    6    6    0    0  0.18276979887E+02  0.10338669309E+01  0.22778251130E+01  0.18447367342E+02  0.00000000000E+00 0. -1.
        -14    1    6    6    0    0 -0.27643767061E+02  0.20095377050E+02  0.18178179878E+03  0.18496654942E+03  0.00000000000E+00 0.  1.
</event>
<event>
12    1  0.8493057E-002  0.1802084E+03  0.7818608E-02  0.1168121E+00
         21   -1    0    0  503  502  0.00000000000E+00  0.00000000000E+00  0.30329683277E+03  0.30329683277E+03  0.00000000000E+00 0. -1.
         21   -1    0    0  501  503 -0.00000000000E+00 -0.00000000000E+00 -0.16688725895E+03  0.16688725895E+03  0.00000000000E+00 0. -1.
          6    2    1    2  501    0  0.70819508610E+01  0.48112370900E+02 -0.73759767307E+02  0.19471922832E+03  0.17352267962E+03 0.  0.
         24    2    3    3    0    0 -0.11395111245E+02 -0.24381096269E+02  0.99211756042E+01  0.82374692127E+02  0.77219646218E+02 0.  0.
         -6    2    1    2    0  502 -0.70819508610E+01 -0.48112370900E+02  0.21016934113E+03  0.27546486340E+03  0.17130319540E+03 0.  0.
        -24    2    5    5    0    0  0.29292069519E+02 -0.88566908212E+02  0.15206222830E+03  0.19572675765E+03  0.80522790664E+02 0.  0.
          5    1    3    3  501    0  0.18477062106E+02  0.72493467169E+02 -0.83680942911E+02  0.11234453619E+03  0.47000000000E+01 0. -1.
        -13    1    4    4    0    0  0.32766568935E+02 -0.13186877392E+02  0.10379336077E+02  0.36814024400E+02  0.00000000000E+00 0.  1.
         14    1    4    4    0    0 -0.44161680181E+02 -0.11194218877E+02 -0.45816047265E+00  0.45560667726E+02  0.00000000000E+00 0. -1.
         -5    1    5    5    0  502 -0.36374020380E+02  0.40454537312E+02  0.58107112827E+02  0.79738105751E+02  0.47000000000E+01 0.  1.
         11    1    6    6    0    0  0.55555717150E+00  0.14323537605E+02  0.81217841318E+01  0.16475307305E+02  0.00000000000E+00 0. -1.
        -12    1    6    6    0    0  0.28736512348E+02 -0.10289044582E+03  0.14394044417E+03  0.17925145035E+03  0.00000000000E+00 0.  1.
</event>
<event>
12    1  0.8493057E-002  0.1788882E+03  0.7818608E-02  0.1169122E+00
         21   -1    0    0  503  502  0.00000000000E+00  0.00000000000E+00  0.62942513112E+02  0.62942513112E+02  0.00000000000E+00 0.  1.
         21   -1    0    0  501  503 -0.00000000000E+00 -0.00000000000E+00 -0.73123233357E+03  0.73123233357E+03  0.00000000000E+00 0.  1.
          6    2    1    2  501    0 -0.34213287468E+02  0.35637527948E+02 -0.55406471577E+03  0.58192887806E+03  0.17091789670E+03 0.  0.
         24    2    3    3    0    0  0.29369227332E+02  0.49194461413E+02 -0.44090772484E+03  0.45134127822E+03  0.77631701358E+02 0.  0.
         -6    2    1    2    0  502  0.34213287468E+02 -0.35637527948E+02 -0.11422510468E+03  0.21224596862E+03  0.17193136485E+03 0.  0.
        -24    2    5    5    0    0  0.24707619570E+02 -0.55752535261E+02 -0.13632597599E+03  0.18053619483E+03  0.10143832738E+03 0.  0.
          5    1    3    3  501    0 -0.63582514800E+02 -0.13556933465E+02 -0.11315699093E+03  0.13058759983E+03  0.47000000000E+01 0. -1.
        -13    1    4    4    0    0  0.81684991567E+01  0.58481496503E+02 -0.18063894322E+03  0.19004535674E+03  0.00000000000E+00 0.  1.
         14    1    4    4    0    0  0.21200728175E+02 -0.92870350901E+01 -0.26026878162E+03  0.26129592148E+03  0.00000000000E+00 0. -1.
         -5    1    5    5    0  502  0.95056678982E+01  0.20115007313E+02  0.22100871309E+02  0.31709773793E+02  0.47000000000E+01 0.  1.
         13    1    6    6    0    0  0.41494219809E+02 -0.38212604467E+02 -0.14433867695E+03  0.15496976183E+03  0.00000000000E+00 0. -1.
        -14    1    6    6    0    0 -0.16786600239E+02 -0.17539930794E+02  0.80127009579E+01  0.25566433003E+02  0.00000000000E+00 0.  1.
</event>
<event>
12    1  0.8493057E-002  0.2005870E+03  0.7818608E-02  0.1149380E+00
         21   -1    0    0  501  502  0.00000000000E+00  0.00000000000E+00  0.34390632149E+03  0.34390632149E+03  0.00000000000E+00 0.  1.
         21   -1    0    0  502  503 -0.00000000000E+00 -0.00000000000E+00 -0.80287456711E+03  0.80287456711E+03  0.00000000000E+00 0. -1.
         -6    2    1    2    0  503 -0.10040580347E+03  0.22343722521E+02 -0.75954441474E+03  0.78542069819E+03  0.17145666472E+03 0.  0.
        -24    2    3    3    0    0 -0.12078159367E+03  0.14381562458E+02 -0.40701284612E+03  0.43217975253E+03  0.79528981382E+02 0.  0.
          6    2    1    2  501    0  0.10040580347E+03 -0.22343722521E+02  0.30057616913E+03  0.36136019041E+03  0.17220507094E+03 0.  0.
         24    2    5    5    0    0  0.88162433398E+02  0.38127989128E+02  0.25731133551E+03  0.28585744974E+03  0.79240141160E+02 0.  0.
          5    1    5    5  501    0  0.12243370075E+02 -0.60471711649E+02  0.43264833612E+02  0.75502740666E+02  0.47000000000E+01 0. -1.
        -13    1    6    6    0    0  0.67665603707E+02 -0.12898728692E+02  0.12847701830E+03  0.14577844614E+03  0.00000000000E+00 0.  1.
         14    1    6    6    0    0  0.20496829692E+02  0.51026717819E+02  0.12883431721E+03  0.14007900360E+03  0.00000000000E+00 0. -1.
         -5    1    3    3    0  503  0.20375790200E+02  0.79621600638E+01 -0.35253156862E+03  0.35324094567E+03  0.47000000000E+01 0.  1.
         13    1    4    4    0    0 -0.11534273848E+03  0.37213446570E+02 -0.35494702415E+03  0.37506823096E+03  0.00000000000E+00 0. -1.
        -14    1    4    4    0    0 -0.54388551936E+01 -0.22831884113E+02 -0.52065821969E+02  0.57111521563E+02  0.00000000000E+00 0.  1.
</event>
<event>
12    1  0.8493057E-002  0.2348746E+03  0.7818608E-02  0.1123471E+00
         21   -1    0    0  501  502  0.00000000000E+00  0.00000000000E+00  0.89296821160E+02  0.89296821160E+02  0.00000000000E+00 0.  1.
         21   -1    0    0  502  503 -0.00000000000E+00 -0.00000000000E+00 -0.63010392980E+03  0.63010392980E+03  0.00000000000E+00 0.  1.
         -6    2    1    2    0  503  0.49422681809E+02  0.15276907168E+03 -0.32633172191E+03  0.40133510077E+03  0.16969525522E+03 0.  0.
        -24    2    3    3    0    0  0.86225645232E+02  0.14525715856E+03 -0.22411337422E+03  0.29233249732E+03  0.81835080944E+02 0.  0.
          6    2    1    2  501    0 -0.49422681809E+02 -0.15276907168E+03 -0.21447538673E+03  0.31806565019E+03  0.17142075597E+03 0.  0.
         24    2    5    5    0    0 -0.66762977987E+02 -0.10861373569E+03 -0.22387395092E+03  0.26947755929E+03  0.79021327829E+02 0.  0.
          5    1    5    5  501    0  0.17340296178E+02 -0.44155335992E+02  0.93985641910E+01  0.48588090896E+02  0.47000000000E+01 0. -1.
        -13    1    6    6    0    0 -0.69415639233E+02 -0.56732001759E+02 -0.95475873242E+02  0.13096829145E+03  0.00000000000E+00 0.  1.
         14    1    6    6    0    0  0.26526612463E+01 -0.51881733930E+02 -0.12839807768E+03  0.13850926784E+03  0.00000000000E+00 0. -1.
         -5    1    3    3    0  503 -0.36802963423E+02  0.75119131195E+01 -0.10221834769E+03  0.10900260345E+03  0.47000000000E+01 0.  1.
         11    1    4    4    0    0  0.15907471026E+02  0.21470268159E+02 -0.99850018313E+02  0.10336365999E+03  0.00000000000E+00 0. -1.
        -12    1    4    4    0    0  0.70318174206E+02  0.12378689040E+03 -0.12426335591E+03  0.18896883733E+03  0.00000000000E+00 0.  1.
</event>
<event>
12    1  0.8493057E-002  0.2491612E+03  0.7818608E-02  0.1114832E+00
         21   -1    0    0  501  502  0.00000000000E+00  0.00000000000E+00  0.27926610995E+02  0.27926610995E+02  0.00000000000E+00 0. -1.
         21   -1    0    0  502  503 -0.00000000000E+00 -0.00000000000E+00 -0.23901117522E+04  0.23901117522E+04  0.00000000000E+00 0. -1.
         -6    2    1    2    0  503 -0.13925673579E+03  0.10105515548E+03 -0.82613352345E+03  0.86288926328E+03  0.18021292740E+03 0.  0.
        -24    2    3    3    0    0 -0.12674588855E+03  0.12447601498E+03 -0.80658588068E+03  0.82958373376E+03  0.77907572488E+02 0.  0.
          6    2    1    2  501    0  0.13925673579E+03 -0.10105515548E+03 -0.15360516178E+04  0.15551490999E+04  0.17155048134E+03 0.  0.
         24    2    5    5    0    0  0.16573426885E+03 -0.11030424527E+03 -0.13555472493E+04  0.13724183624E+04  0.79930856679E+02 0.  0.
          5    1    5    5  501    0 -0.26477533053E+02  0.92490897847E+01 -0.18050436845E+03  0.18273073756E+03  0.47000000000E+01 0. -1.
        -11    1    6    6    0    0  0.83305872751E+01 -0.11530577105E+02 -0.32093666451E+03  0.32125176345E+03  0.00000000000E+00 0.  1.
         12    1    6    6    0    0  0.15740368157E+03 -0.98773668161E+02 -0.10346105848E+04  0.10511665989E+04  0.00000000000E+00 0. -1.
         -5    1    3    3    0  503 -0.12510847240E+02 -0.23420859497E+02 -0.19547642771E+02  0.33305529513E+02  0.47000000000E+01 0.  1.
         11    1    4    4    0    0 -0.85869489243E+02  0.79084426065E+02 -0.66813107128E+03  0.67825293515E+03  0.00000000000E+00 0. -1.
        -12    1    4    4    0    0 -0.40876399310E+02  0.45391588913E+02 -0.13845480939E+03  0.15133079861E+03  0.00000000000E+00 0.  1.
</event>
<event>
12    1  0.8493057E-002  0.2789071E+03  0.7818608E-02  0.1097187E+00
         21   -1    0    0  501  502  0.00000000000E+00  0.00000000000E+00  0.82773979617E+03  0.82773979617E+03  0.00000000000E+00 0.  1.
         21   -1    0    0  502  503 -0.00000000000E+00 -0.00000000000E+00 -0.92060469773E+02  0.92060469773E+02  0.00000000000E+00 0. -1.
         -6    2    1    2    0  503  0.20041307632E+03 -0.57517332305E+02  0.34807684521E+03  0.44603438552E+03  0.18524453628E+03 0.  0.
        -24    2    3    3    0    0  0.20522747599E+03 -0.91119139658E+02  0.26049785980E+03  0.35198956330E+03  0.74943333249E+02 0.  0.
          6    2    1    2  501    0 -0.20041307632E+03  0.57517332305E+02  0.38760248120E+03  0.47376588043E+03  0.17534189846E+03 0.  0.
         24    2    5    5    0    0 -0.80754565156E+02  0.10235237125E+03  0.21107004064E+03  0.25578851330E+03  0.62288793444E+02 0.  0.
          5    1    5    5  501    0 -0.11965851116E+03 -0.44835038943E+02  0.17653244055E+03  0.21797736712E+03  0.47000000000E+01 0. -1.
        -13    1    6    6    0    0 -0.46625315702E+02  0.65307762861E+02  0.17876638601E+03  0.19595010773E+03  0.00000000000E+00 0.  1.
         14    1    6    6    0    0 -0.34129249454E+02  0.37044608387E+02  0.32303654636E+02  0.59838405574E+02  0.00000000000E+00 0. -1.
         -5    1    3    3    0  503 -0.48143996722E+01  0.33601807353E+02  0.87578985410E+02  0.94044822223E+02  0.47000000000E+01 0.  1.
         11    1    4    4    0    0  0.77067006915E+02  0.28536279369E+01  0.72848793455E+02  0.10608682036E+03  0.00000000000E+00 0. -1.
        -12    1    4    4    0    0  0.12816046907E+03 -0.93972767595E+02  0.18764906634E+03  0.24590274293E+03  0.00000000000E+00 0.  1.
</event>
<event>
12    1  0.8493057E-002  0.2559354E+03  0.7818608E-02  0.1109669E+00
         21   -1    0    0  503  502  0.00000000000E+00  0.00000000000E+00  0.84054864546E+03  0.84054864546E+03  0.00000000000E+00 0.  1.
         21   -1    0    0  501  503 -0.00000000000E+00 -0.00000000000E+00 -0.97482033594E+02  0.97482033594E+02  0.00000000000E+00 0.  1.
          6    2    1    2  501    0 -0.15179412761E+03 -0.11380900872E+03  0.16107702742E+03  0.30240494443E+03  0.17178182095E+03 0.  0.
         24    2    3    3    0    0 -0.87706607727E+02 -0.36171005068E+02  0.15995661124E+03  0.20161697318E+03  0.77862030216E+02 0.  0.
         -6    2    1    2    0  502  0.15179412761E+03  0.11380900872E+03  0.58198958445E+03  0.63562573463E+03  0.17121404870E+03 0.  0.
        -24    2    5    5    0    0  0.15106015443E+03  0.13954735167E+03  0.44989263800E+03  0.50096061563E+03  0.79155031853E+02 0.  0.
          5    1    3    3  501    0 -0.64087519886E+02 -0.77638003651E+02  0.11204161815E+01  0.10078797125E+03  0.47000000000E+01 0. -1.
        -13    1    4    4    0    0 -0.67812761075E+02 -0.15088554833E+02  0.44324279317E+02  0.82406776351E+02  0.00000000000E+00 0.  1.
         14    1    4    4    0    0 -0.19893846651E+02 -0.21082450234E+02  0.11563233193E+03  0.11921019683E+03  0.00000000000E+00 0. -1.
         -5    1    5    5    0  502  0.73397318274E+00 -0.25738342953E+02  0.13209694644E+03  0.13466511900E+03  0.47000000000E+01 0.  1.
         13    1    6    6    0    0  0.30494332602E+02  0.69893319052E+02  0.11192119776E+03  0.13543018452E+03  0.00000000000E+00 0. -1.
        -14    1    6    6    0    0  0.12056582183E+03  0.69654032619E+02  0.33797144024E+03  0.36553043111E+03  0.00000000000E+00 0.  1.
</event>
<event>
12    1  0.8493057E-002  0.1959171E+03  0.7818608E-02  0.1153250E+00
         21   -1    0    0  501  502  0.00000000000E+00  0.00000000000E+00  0.23513199611E+03  0.23513199611E+03  0.00000000000E+00 0. -1.
         21   -1    0    0  502  503 -0.00000000000E+00 -0.00000000000E+00 -0.17450177833E+03  0.17450177833E+03  0.00000000000E+00 0. -1.
         -6    2    1    2    0  503 -0.89822595341E+02 -0.25861217176E+02  0.82527653360E+02  0.21258956637E+03  0.17218190664E+03 0.  0.
        -24    2    3    3    0    0 -0.29735740093E+02 -0.44848859892E+02  0.11300353260E+03  0.14243381133E+03  0.67984981856E+02 0.  0.
          6    2    1    2  501    0  0.89822595341E+02  0.25861217176E+02 -0.21897435581E+02  0.19704420806E+03  0.17207562598E+03 0.  0.
         24    2    5    5    0    0  0.48006207311E+02  0.18550925578E+02 -0.79112312659E+02  0.12564614905E+03  0.82942534188E+02 0.  0.
          5    1    5    5  501    0  0.41816388030E+02  0.73102915982E+01  0.57214877078E+02  0.71398059008E+02  0.47000000000E+01 0. -1.
        -11    1    6    6    0    0  0.34079905647E+02 -0.20944722489E+02 -0.47240245802E+01  0.40279495742E+02  0.00000000000E+00 0.  1.
         12    1    6    6    0    0  0.13926301664E+02  0.39495648067E+02 -0.74388288079E+02  0.85366653311E+02  0.00000000000E+00 0. -1.
         -5    1    3    3    0  503 -0.60086855248E+02  0.18987642715E+02 -0.30475879240E+02  0.70155755038E+02  0.47000000000E+01 0.  1.
         11    1    4    4    0    0 -0.49520743444E+02 -0.19497015462E+02  0.57986160463E+02  0.78707257915E+02  0.00000000000E+00 0. -1.
        -12    1    4    4    0    0  0.19785003351E+02 -0.25351844430E+02  0.55017372136E+02  0.63726553417E+02  0.00000000000E+00 0.  1.
</event>
<event>
12    1  0.8493057E-002  0.1772530E+03  0.7818608E-02  0.1170854E+00
         21   -1    0    0  503  502  0.00000000000E+00  0.00000000000E+00  0.20054655296E+03  0.20054655296E+03  0.00000000000E+00 0. -1.
         21   -1    0    0  501  503 -0.00000000000E+00 -0.00000000000E+00 -0.15868584529E+03  0.15868584529E+03  0.00000000000E+00 0. -1.
          6    2    1    2  501    0 -0.35058706336E+02  0.22585964128E+02 -0.51424812837E+01  0.17585316883E+03  0.17075905015E+03 0.  0.
         24    2    3    3    0    0  0.42374373768E+02 -0.16066242289E+02 -0.43154011678E+01  0.89177630087E+02  0.76683214116E+02 0.  0.
         -6    2    1    2    0  502  0.35058706336E+02 -0.22585964128E+02  0.47003188949E+02  0.18337922941E+03  0.17227711207E+03 0.  0.
        -24    2    5    5    0    0  0.80218643647E+01 -0.55426405997E+02 -0.25665826766E+02  0.99044412814E+02  0.77554008642E+02 0.  0.
          5    1    3    3  501    0 -0.77433080104E+02  0.38652206416E+02 -0.82708011591E+00  0.86675538745E+02  0.47000000000E+01 0. -1.
        -11    1    4    4    0    0  0.44208459494E+02 -0.42214649386E+02 -0.11041339253E+02  0.62115824764E+02  0.00000000000E+00 0.  1.
         12    1    4    4    0    0 -0.18340857266E+01  0.26148407098E+02  0.67259380848E+01  0.27061805322E+02  0.00000000000E+00 0. -1.
         -5    1    5    5    0  502  0.27036841971E+02  0.32840441870E+02  0.72669015715E+02  0.84334816600E+02  0.47000000000E+01 0.  1.
         13    1    6    6    0    0 -0.34534707418E+02 -0.18179506620E+02 -0.12466854566E+02  0.40970268978E+02  0.00000000000E+00 0. -1.
        -14    1    6    6    0    0  0.42556571782E+02 -0.37246899377E+02 -0.13198972200E+02  0.58074143836E+02  0.00000000000E+00 0.  1.
</event>
<event>
12    1  0.8493057E-002  0.2210555E+03  0.7818608E-02  0.1133108E+00
         21   -1    0    0  501  502  0.00000000000E+00  0.00000000000E+00  0.88430355366E+02  0.88430355366E+02  0.00000000000E+00 0.  1.
         21   -1    0    0  502  503 -0.00000000000E+00 -0.00000000000E+00 -0.14941544788E+04  0.14941544788E+04  0.00000000000E+00 0.  1.
         -6    2    1    2    0  503 -0.95574875847E+02 -0.10151750033E+03 -0.13310855192E+04  0.13493161870E+04  0.17153761512E+03 0.  0.
        -24    2    3    3    0    0  0.82721209407E+01 -0.39365153723E+02 -0.79099456366E+03  0.79581149583E+03  0.77624054512E+02 0.  0.
          6    2    1    2  501    0  0.95574875847E+02  0.10151750033E+03 -0.74638604287E+02  0.23326864719E+03  0.17147297380E+03 0.  0.
         24    2    5    5    0    0  0.11572651827E+03  0.54909773926E+02 -0.11567689166E+02  0.15216131591E+03  0.81311403406E+02 0.  0.
          5    1    5    5  501    0 -0.20151642420E+02  0.46607726403E+02 -0.63070915121E+02  0.81107331277E+02  0.47000000000E+01 0. -1.
        -11    1    6    6    0    0 -0.72771375708E+01  0.52514111263E+01  0.14425617410E+02  0.16989187376E+02  0.00000000000E+00 0.  1.
         12    1    6    6    0    0  0.12300365584E+03  0.49658362800E+02 -0.25993306576E+02  0.13517212853E+03  0.00000000000E+00 0. -1.
         -5    1    3    3    0  503 -0.10384699679E+03 -0.62152346606E+02 -0.54009095552E+03  0.55350469119E+03  0.47000000000E+01 0.  1.
         13    1    4    4    0    0  0.39913932865E+02 -0.38457534070E+02 -0.53663848551E+03  0.53949325120E+03  0.00000000000E+00 0. -1.
        -14    1    4    4    0    0 -0.31641811924E+02 -0.90761965284E+00 -0.25435607816E+03  0.25631824463E+03  0.00000000000E+00 0.  1.
</event>
<event>
12    1  0.8493057E-002  0.1972479E+03  0.7818608E-02  0.1152593E+00
         21   -1    0    0  503  502  0.00000000000E+00  0.00000000000E+00  0.22524972363E+03  0.22524972363E+03  0.00000000000E+00 0. -1.
         21   -1    0    0  501  503 -0.00000000000E+00 -0.00000000000E+00 -0.22285671810E+03  0.22285671810E+03  0.00000000000E+00 0.  1.
          6    2    1    2  501    0 -0.36432382715E+02  0.85211712636E+02 -0.10722733746E+03  0.22450929727E+03  0.17412170508E+03 0.  0.
         24    2    3    3    0    0 -0.54179960141E+02  0.11098392075E+03 -0.43727075349E+02  0.15356173562E+03  0.80101503004E+02 0.  0.
         -6    2    1    2    0  502  0.36432382715E+02 -0.85211712636E+02  0.10962034299E+03  0.22359714446E+03  0.17143718655E+03 0.  0.
        -24    2    5    5    0    0  0.48036362532E+02 -0.79599154264E+02  0.10094583690E+02  0.12313013533E+03  0.80097516329E+02 0.  0.
          5    1    3    3  501    0  0.17747577426E+02 -0.25772208110E+02 -0.63500262114E+02  0.70947561649E+02  0.47000000000E+01 0. -1.
        -13    1    4    4    0    0 -0.75312658167E+00  0.21933975968E+02 -0.44603402013E+02  0.49710461400E+02  0.00000000000E+00 0.  1.
         14    1    4    4    0    0 -0.53426833560E+02  0.89049944778E+02  0.87632666406E+00  0.10385127422E+03  0.00000000000E+00 0. -1.
         -5    1    5    5    0  502 -0.11603979817E+02 -0.56125583723E+01  0.99525759298E+02  0.10046700913E+03  0.47000000000E+01 0.  1.
         13    1    6    6    0    0 -0.18315918413E+02 -0.63108726141E+01  0.14455470912E+02  0.24171483607E+02  0.00000000000E+00 0. -1.
        -14    1    6    6    0    0  0.66352280945E+02 -0.73288281650E+02 -0.43608872223E+01  0.98958651724E+02  0.00000000000E+00 0.  1.
</event>
<event>
12    1  0.8493057E-002  0.1749603E+03  0.7818608E-02  0.1173035E+00
         21   -1    0    0  501  502  0.00000000000E+00  0.00000000000E+00  0.54190213661E+02  0.54190213661E+02  0.00000000000E+00 0.  1.
         21   -1    0    0  502  503 -0.00000000000E+00 -0.00000000000E+00 -0.91365394627E+03  0.91365394627E+03  0.00000000000E+00 0.  1.
         -6    2    1    2    0  503  0.24520689743E+02 -0.11967818131E+02 -0.72936887451E+03  0.74981716716E+03  0.17176244111E+03 0.  0.
        -24    2    3    3    0    0  0.40297956109E+02 -0.57559039742E+02 -0.63337636672E+03  0.64228050749E+03  0.80135261039E+02 0.  0.
          6    2    1    2  501    0 -0.24520689743E+02  0.11967818131E+02 -0.13009485810E+03  0.21802699277E+03  0.17281957231E+03 0.  0.
         24    2    5    5    0    0 -0.74257854919E+02  0.38639011857E+02 -0.65993657210E+02  0.13249225053E+03  0.78688191005E+02 0.  0.
          5    1    5    5  501    0  0.49737165175E+02 -0.26671193725E+02 -0.64101200893E+02  0.85534742242E+02  0.47000000000E+01 0. -1.
        -13    1    6    6    0    0 -0.79245676396E+02  0.25687613223E+02 -0.21713943964E+02  0.86088478108E+02  0.00000000000E+00 0.  1.
         14    1    6    6    0    0  0.49878214772E+01  0.12951398634E+02 -0.44279713246E+02  0.46403772420E+02  0.00000000000E+00 0. -1.
         -5    1    3    3    0  503 -0.15777266366E+02  0.45591221611E+02 -0.95992507788E+02  0.10753665967E+03  0.47000000000E+01 0.  1.
         11    1    4    4    0    0  0.33894947938E+02  0.39573375414E+01 -0.10767098225E+03  0.11294940652E+03  0.00000000000E+00 0. -1.
        -12    1    4    4    0    0  0.64030081713E+01 -0.61516377284E+02 -0.52570538447E+03  0.52933110097E+03  0.00000000000E+00 0.  1.
</event>
<event>
12    1  0.8493057E-002  0.1777468E+03  0.7818608E-02  0.1170284E+00
         21   -1    0    0  501  502  0.00000000000E+00  0.00000000000E+00  0.57776915543E+03  0.57776915543E+03  0.00000000000E+00 0.  1.
         21   -1    0    0  502  503 -0.00000000000E+00 -0.00000000000E+00 -0.58560414302E+03  0.58560414302E+03  0.00000000000E+00 0.  1.
         -6    2    1    2    0  503 -0.43167172968E+02 -0.10203779652E+02 -0.55796195524E+03  0.58524390521E+03  0.17094257266E+03 0.  0.
        -24    2    3    3    0    0 -0.46462136084E+01  0.41346470776E+02 -0.17227547781E+03  0.19419730760E+03  0.79389143329E+02 0.  0.
          6    2    1    2  501    0  0.43167172968E+02  0.10203779652E+02  0.55012696765E+03  0.57812939325E+03  0.17212319093E+03 0.  0.
         24    2    5    5    0    0 -0.29264025496E+02  0.60060945371E+01  0.42141939986E+03  0.43030643468E+03  0.81712060269E+02 0.  0.
          5    1    5    5  501    0  0.72431198463E+02  0.41976851149E+01  0.12870756779E+03  0.14782295856E+03  0.47000000000E+01 0. -1.
        -11    1    6    6    0    0  0.26588082377E+02  0.71811962949E+00  0.79926798824E+02  0.84236185754E+02  0.00000000000E+00 0.  1.
         12    1    6    6    0    0 -0.55852107873E+02  0.52879749077E+01  0.34149260103E+03  0.34607024893E+03  0.00000000000E+00 0. -1.
         -5    1    3    3    0  503 -0.38520959359E+02 -0.51550250428E+02 -0.38568647742E+03  0.39104659760E+03  0.47000000000E+01 0.  1.
         11    1    4    4    0    0  0.27479208174E+02 -0.54156758244E+01 -0.90000460024E+02  0.94257727699E+02  0.00000000000E+00 0. -1.
        -12    1    4    4    0    0 -0.32125421783E+02  0.46762146600E+02 -0.82275017789E+02  0.99939579905E+02  0.00000000000E+00 0.  1.
</event>
<event>
12    1  0.8493057E-002  0.1824410E+03  0.7818608E-02  0.1165510E+00
         21   -1    0    0  501  502  0.00000000000E+00  0.00000000000E+00  0.16002366416E+03  0.16002366416E+03  0.00000000000E+00 0.  1.
         21   -1    0    0  502  503 -0.00000000000E+00 -0.00000000000E+00 -0.38115877334E+03  0.38115877334E+03  0.00000000000E+00 0.  1.
         -6    2    1    2    0  503 -0.60370138502E+02 -0.54503488188E+01 -0.29310786808E+03  0.34524911132E+03  0.17207692064E+03 0.  0.
        -24    2    3    3    0    0 -0.60964779734E+02 -0.64575611543E+02 -0.15694705311E+03  0.19672972598E+03  0.78635193334E+02 0.  0.
          6    2    1    2  501    0  0.60370138502E+02  0.54503488188E+01  0.71972758893E+02  0.19593332618E+03  0.17185904213E+03 0.  0.
         24    2    5    5    0    0  0.40979136591E+01  0.34229976449E+02  0.93247573254E+02  0.12907872289E+03  0.82326925129E+02 0.  0.
          5    1    5    5  501    0  0.56272224842E+02 -0.28779627630E+02 -0.21274814360E+02  0.66854603292E+02  0.47000000000E+01 0. -1.
        -11    1    6    6    0    0  0.39894719047E+02  0.67291278078E+00  0.46995927968E+02  0.61649482278E+02  0.00000000000E+00 0.  1.
         12    1    6    6    0    0 -0.35796805388E+02  0.33557063668E+02  0.46251645285E+02  0.67429240613E+02  0.00000000000E+00 0. -1.
         -5    1    3    3    0  503  0.59464123297E+00  0.59125262724E+02 -0.13616081497E+03  0.14851938534E+03  0.47000000000E+01 0.  1.
         11    1    4    4    0    0 -0.12599893724E+02 -0.31933316595E+02 -0.59371859854E+01  0.34838831898E+02  0.00000000000E+00 0. -1.
        -12    1    4    4    0    0 -0.48364886010E+02 -0.32642294948E+02 -0.15100986712E+03  0.16189089408E+03  0.00000000000E+00 0.  1.
</event>
<event>
12    1  0.8493057E-002  0.2795001E+03  0.7818608E-02  0.1096200E+00
         21   -1    0    0  501  502  0.00000000000E+00  0.00000000000E+00  0.10223034113E+03  0.10223034113E+03  0.00000000000E+00 0.  1.
         21   -1    0    0  502  503 -0.00000000000E+00 -0.00000000000E+00 -0.80835656001E+03  0.80835656001E+03  0.00000000000E+00 0. -1.
         -6    2    1    2    0  503  0.97535754241E+02 -0.19593550862E+03 -0.46403141616E+03  0.54081641609E+03  0.17103594310E+03 0.  0.
        -24    2    3    3    0    0  0.10418851408E+03 -0.13339221763E+03 -0.43058586511E+03  0.46942581904E+03  0.79420917648E+02 0.  0.
          6    2    1    2  501    0 -0.97535754241E+02  0.19593550862E+03 -0.24209480272E+03  0.36977048505E+03  0.17382856848E+03 0.  0.
         24    2    5    5    0    0 -0.88457462323E+02  0.12003007779E+03 -0.73989129217E+02  0.18503917402E+03  0.80827980705E+02 0.  0.
          5    1    5    5  501    0 -0.90782919179E+01  0.75905430831E+02 -0.16810567350E+03  0.18473131103E+03  0.47000000000E+01 0. -1.
        -11    1    6    6    0    0  0.53654294025E+01  0.19524137367E+02  0.11353195137E+02  0.23213677270E+02  0.00000000000E+00 0.  1.
         12    1    6    6    0    0 -0.93822891726E+02  0.10050594042E+03 -0.85342324354E+02  0.16182549675E+03  0.00000000000E+00 0. -1.
         -5    1    3    3    0  503 -0.66527598372E+01 -0.62543290990E+02 -0.33445551049E+02  0.71390597044E+02  0.47000000000E+01 0.  1.
         13    1    4    4    0    0  0.52106837206E+02 -0.13679950249E+02 -0.16338325337E+03  0.17203590033E+03  0.00000000000E+00 0. -1.
        -14    1    4    4    0    0  0.52081676872E+02 -0.11971226738E+03 -0.26720261174E+03  0.29738991871E+03  0.00000000000E+00 0.  1.
</event>
<event>
12    1  0.8493057E-002  0.1830474E+03  0.7818608E-02  0.1165421E+00
         21   -1    0    0  501  502  0.00000000000E+00  0.00000000000E+00  0.76855308925E+03  0.76855308925E+03  0.00000000000E+00 0.  1.
         21   -1    0    0  502  503 -0.00000000000E+00 -0.00000000000E+00 -0.47120031158E+02  0.47120031158E+02  0.00000000000E+00 0.  1.
         -6    2    1    2    0  503 -0.56350991332E+02  0.10809998055E+02  0.48240752937E+03  0.51596839648E+03  0.17382195344E+03 0.  0.
        -24    2    3    3    0    0  0.31818259888E+02 -0.10876660005E+02  0.22741174333E+03  0.24524885730E+03  0.85441193860E+02 0.  0.
          6    2    1    2  501    0  0.56350991332E+02 -0.10809998055E+02  0.23902552873E+03  0.29970472393E+03  0.17145678137E+03 0.  0.
         24    2    5    5    0    0  0.61060525659E+02  0.42654142981E+02  0.82309993142E+02  0.13398676116E+03  0.75031683225E+02 0.  0.
          5    1    5    5  501    0 -0.47095343274E+01 -0.53464141036E+02  0.15671553558E+03  0.16571796277E+03  0.47000000000E+01 0. -1.
        -11    1    6    6    0    0  0.30255660721E+02  0.36556553838E+01 -0.74626392948E+01  0.31376102485E+02  0.00000000000E+00 0.  1.
         12    1    6    6    0    0  0.30804864939E+02  0.38998487597E+02  0.89772632437E+02  0.10261065867E+03  0.00000000000E+00 0. -1.
         -5    1    3    3    0  503 -0.88169251220E+02  0.21686658060E+02  0.25499578604E+03  0.27071953918E+03  0.47000000000E+01 0.  1.
         13    1    4    4    0    0 -0.14132795385E+02 -0.23495290486E+02  0.24347296147E+02  0.36668179803E+02  0.00000000000E+00 0. -1.
        -14    1    4    4    0    0  0.45951055273E+02  0.12618630482E+02  0.20306444718E+03  0.20858067750E+03  0.00000000000E+00 0.  1.
</event>
<event>
12    1  0.8493057E-002  0.3131874E+03  0.7818608E-02  0.1079570E+00
         21   -1    0    0  503  502  0.00000000000E+00  0.00000000000E+00  0.12285012311E+03  0.12285012311E+03  0.00000000000E+00 0. -1.
         21   -1    0    0  501  503 -0.00000000000E+00 -0.00000000000E+00 -0.87752774090E+03  0.87752774090E+03  0.00000000000E+00 0.  1.
          6    2    1    2  501    0  0.14362583861E+03  0.20955969842E+03 -0.20953131048E+03  0.37167217014E+03  0.17231710092E+03 0.  0.
         24    2    3    3    0    0  0.79173754146E+02  0.17388334194E+03 -0.21474142129E+03  0.29767143462E+03  0.77398352843E+02 0.  0.
         -6    2    1    2    0  502 -0.14362583861E+03 -0.20955969842E+03 -0.54514630731E+03  0.62870569386E+03  0.18314667456E+03 0.  0.
        -24    2    5    5    0    0 -0.16483200144E+01 -0.11945266741E+03 -0.25160809268E+03  0.29038089980E+03  0.82114419929E+02 0.  0.
          5    1    3    3  501    0  0.64452084462E+02  0.35676356485E+02  0.52101108058E+01  0.74000735525E+02  0.47000000000E+01 0. -1.
        -11    1    4    4    0    0  0.19196825387E+02  0.18022045819E+01 -0.43605418376E+02  0.47678072088E+02  0.00000000000E+00 0.  1.
         12    1    4    4    0    0  0.59976928758E+02  0.17208113736E+03 -0.17113600291E+03  0.24999336253E+03  0.00000000000E+00 0. -1.
         -5    1    5    5    0  502 -0.14197751859E+03 -0.90107031014E+02 -0.29353821463E+03  0.33832479406E+03  0.47000000000E+01 0.  1.
         11    1    6    6    0    0  0.64487997550E+00  0.55787070905E+01  0.32552330435E+01  0.64911004577E+01  0.00000000000E+00 0. -1.
        -12    1    6    6    0    0 -0.22931999899E+01 -0.12503137450E+03 -0.25486332572E+03  0.28388979935E+03  0.00000000000E+00 0.  1.
</event>
<event>
12    1  0.8493057E-002  0.2191359E+03  0.7818608E-02  0.1135101E+00
         21   -1    0    0  501  502  0.00000000000E+00  0.00000000000E+00  0.77668111958E+02  0.77668111958E+02  0.00000000000E+00 0.  1.
         21   -1    0    0  502  503 -0.00000000000E+00 -0.00000000000E+00 -0.65010703331E+03  0.65010703331E+03  0.00000000000E+00 0. -1.
         -6    2    1    2    0  503 -0.16165547614E+02 -0.13463091522E+03 -0.37875263584E+03  0.43757754101E+03  0.17214452353E+03 0.  0.
        -24    2    3    3    0    0 -0.77149308237E+01 -0.12131488396E+03 -0.39096759081E+03  0.41708303595E+03  0.79534775936E+02 0.  0.
          6    2    1    2  501    0  0.16165547614E+02  0.13463091522E+03 -0.19368628551E+03  0.29019760426E+03  0.16826605141E+03 0.  0.
         24    2    5    5    0    0  0.70194644519E+02  0.11762986059E+03 -0.14973793052E+03  0.21835244383E+03  0.80574621726E+02 0.  0.
          5    1    5    5  501    0 -0.54029096905E+02  0.17001054625E+02 -0.43948354996E+02  0.71845160432E+02  0.47000000000E+01 0. -1.
        -11    1    6    6    0    0  0.33337341975E+02  0.62445835625E+00 -0.16365924464E+02  0.37143125902E+02  0.00000000000E+00 0.  1.
         12    1    6    6    0    0  0.36857302544E+02  0.11700540224E+03 -0.13337200605E+03  0.18120931792E+03  0.00000000000E+00 0. -1.
         -5    1    3    3    0  503 -0.84506167906E+01 -0.13316031257E+02  0.12214954976E+02  0.20494505060E+02  0.47000000000E+01 0.  1.
         11    1    4    4    0    0 -0.43560753976E+02 -0.65446693194E+02 -0.22459085116E+03  0.23795348150E+03  0.00000000000E+00 0. -1.
        -12    1    4    4    0    0  0.35845823153E+02 -0.55868190768E+02 -0.16637673966E+03  0.17912955445E+03  0.00000000000E+00 0.  1.
</event>
<event>
12    1  0.8493057E-002  0.1764134E+03  0.7818608E-02  0.1172916E+00
         21   -1    0    0  503  502  0.00000000000E+00  0.00000000000E+00  0.85217838929E+03  0.85217838929E+03  0.00000000000E+00 0. -1.
         21   -1    0    0  501  503 -0.00000000000E+00 -0.00000000000E+00 -0.42827630586E+02  0.42827630586E+02  0.00000000000E+00 0.  1.
          6    2    1    2  501    0  0.13868806470E+02 -0.37283752489E+02  0.22223560774E+03  0.28374347081E+03  0.17186992143E+03 0.  0.
         24    2    3    3    0    0 -0.25955170587E+02  0.41691148734E+02  0.87693585422E+02  0.12266389439E+03  0.70316735566E+02 0.  0.
         -6    2    1    2    0  502 -0.13868806470E+02  0.37283752489E+02  0.58711515097E+03  0.61126254906E+03  0.16539432093E+03 0.  0.
        -24    2    5    5    0    0 -0.26740360563E+02  0.69165566866E+02  0.54865090118E+03  0.55945795945E+03  0.80476546308E+02 0.  0.
          5    1    3    3  501    0  0.39823977057E+02 -0.78974901223E+02  0.13454202231E+03  0.16107957642E+03  0.47000000000E+01 0. -1.
        -13    1    4    4    0    0 -0.20670865525E+02 -0.16785870152E+02  0.21866593962E+02  0.34455740448E+02  0.00000000000E+00 0.  1.
         14    1    4    4    0    0 -0.52843050625E+01  0.58477018886E+02  0.65826991459E+02  0.88208153945E+02  0.00000000000E+00 0. -1.
         -5    1    5    5    0  502  0.12871554093E+02 -0.31881814377E+02  0.38464249789E+02  0.51804589609E+02  0.47000000000E+01 0.  1.
         13    1    6    6    0    0 -0.54920592479E+02  0.48789974685E+02  0.40881058552E+03  0.41535867385E+03  0.00000000000E+00 0. -1.
        -14    1    6    6    0    0  0.28180231916E+02  0.20375592181E+02  0.13984031566E+03  0.14409928560E+03  0.00000000000E+00 0.  1.
</event>
<event>
12    1  0.8493057E-002  0.1774867E+03  0.7818608E-02  0.1170598E+00
         21   -1    0    0  501  502  0.00000000000E+00  0.00000000000E+00  0.16227131283E+03  0.16227131283E+03  0.00000000000E+00 0. -1.
         21   -1    0    0  502  503 -0.00000000000E+00 -0.00000000000E+00 -0.26970173361E+03  0.26970173361E+03  0.00000000000E+00 0.  1.
         -6    2    1    2    0  503 -0.20272482990E+02 -0.31168102966E+02  0.61597760427E+02  0.18787179890E+03  0.17354856532E+03 0.  0.
        -24    2    3    3    0    0  0.47223352296E+02 -0.28463033454E+02 -0.30679644429E+01  0.94240868357E+02  0.76365827354E+02 0.  0.
          6    2    1    2  501    0  0.20272482990E+02  0.31168102966E+02 -0.16902818121E+03  0.24410124754E+03  0.17214084000E+03 0.  0.
         24    2    5    5    0    0  0.32350340822E+02  0.83604740331E+02 -0.12627123582E+03  0.17521204688E+03  0.81966695786E+02 0.  0.
          5    1    5    5  501    0 -0.12077857832E+02 -0.52436637365E+02 -0.42756945393E+02  0.68889200658E+02  0.47000000000E+01 0. -1.
        -11    1    6    6    0    0 -0.26367936886E+02  0.13916786389E+02 -0.38440537264E+02  0.48647918189E+02  0.00000000000E+00 0.  1.
         12    1    6    6    0    0  0.58718277707E+02  0.69687953942E+02 -0.87830698558E+02  0.12656412869E+03  0.00000000000E+00 0. -1.
         -5    1    3    3    0  503 -0.67495835285E+02 -0.27050695117E+01  0.64665724870E+02  0.93630930546E+02  0.47000000000E+01 0.  1.
         11    1    4    4    0    0  0.39718174625E+02  0.64130421122E+01  0.26272196172E+02  0.48050897977E+02  0.00000000000E+00 0. -1.
        -12    1    4    4    0    0  0.75051776703E+01 -0.34876075566E+02 -0.29340160615E+02  0.46189970380E+02  0.00000000000E+00 0.  1.
</event>
<event>
12    1  0.8493057E-002  0.1972565E+03  0.7818608E-02  0.1152644E+00
         21   -1    0    0  501  502  0.00000000000E+00  0.00000000000E+00  0.30383910521E+03  0.30383910521E+03  0.00000000000E+00 0. -1.
         21   -1    0    0  502  503 -0.00000000000E+00 -0.00000000000E+00 -0.14156924069E+03  0.14156924069E+03  0.00000000000E+00 0. -1.
         -6    2    1    2    0  503 -0.60919434470E+02 -0.68294274891E+02  0.76463856379E+01  0.19477207889E+03  0.17176265608E+03 0.  0.
        -24    2    3    3    0    0 -0.78895760609E+02  0.10120651479E+02  0.18815972219E+02  0.11341546488E+03  0.78626065880E+02 0.  0.
          6    2    1    2  501    0  0.60919434470E+02  0.68294274891E+02  0.15462347888E+03  0.25063626701E+03  0.17474218907E+03 0.  0.
         24    2    5    5    0    0  0.16057365114E+01  0.93616073159E+02  0.61505864223E+02  0.13726833331E+03  0.79328913087E+02 0.  0.
          5    1    5    5  501    0  0.59313697959E+02 -0.25321798268E+02  0.93117614660E+02  0.11336793371E+03  0.47000000000E+01 0. -1.
        -11    1    6    6    0    0  0.19556066621E+02 -0.56010807673E+01  0.26357848306E+01  0.20512415975E+02  0.00000000000E+00 0.  1.
         12    1    6    6    0    0 -0.17950330110E+02  0.99217153926E+02  0.58870079393E+02  0.11675591733E+03  0.00000000000E+00 0. -1.
         -5    1    3    3    0  503  0.17976326139E+02 -0.78414926370E+02 -0.11169586581E+02  0.81356614011E+02  0.47000000000E+01 0.  1.
         13    1    4    4    0    0 -0.25440142346E+02 -0.21774152444E+02 -0.20997099177E+02  0.39524583883E+02  0.00000000000E+00 0. -1.
        -14    1    4    4    0    0 -0.53455618263E+02  0.31894803923E+02  0.39813071396E+02  0.73890881001E+02  0.00000000000E+00 0.  1.
</event>
<event>
12    1  0.8493057E-002  0.1848565E+03  0.7818608E-02  0.1163350E+00
         21   -1    0    0  501  502  0.00000000000E+00  0.00000000000E+00  0.34995430429E+02  0.34995430429E+02  0.00000000000E+00 0.  1.
         21   -1    0    0  502  503 -0.00000000000E+00 -0.00000000000E+00 -0.10820618458E+04  0.10820618458E+04  0.00000000000E+00 0.  1.
         -6    2    1    2    0  503  0.50173917045E+02  0.43485339324E+02 -0.34508487972E+03  0.39114405542E+03  0.17176059265E+03 0.  0.
        -24    2    3    3    0    0 -0.27220897429E+02  0.44356518486E+02 -0.11849661438E+03  0.15165491526E+03  0.79052436492E+02 0.  0.
          6    2    1    2  501    0 -0.50173917045E+02 -0.43485339324E+02 -0.70198153568E+03  0.72591322084E+03  0.17252110326E+03 0.  0.
         24    2    5    5    0    0 -0.33903302911E+02 -0.87879539645E+02 -0.61152428334E+03  0.62373601004E+03  0.78818866199E+02 0.  0.
          5    1    5    5  501    0 -0.16270614134E+02  0.44394200321E+02 -0.90457252338E+02  0.10217721080E+03  0.47000000000E+01 0. -1.
        -11    1    6    6    0    0 -0.37849198039E+02 -0.78825385319E+02 -0.31125432746E+03  0.32330366457E+03  0.00000000000E+00 0.  1.
         12    1    6    6    0    0  0.39458951277E+01 -0.90541543256E+01 -0.30026995589E+03  0.30043234547E+03  0.00000000000E+00 0. -1.
         -5    1    3    3    0  503  0.77394814475E+02 -0.87117916231E+00 -0.22658826534E+03  0.23948914015E+03  0.47000000000E+01 0.  1.
         13    1    4    4    0    0 -0.58651793055E+01  0.59490063632E+02 -0.10802831598E+03  0.12346491426E+03  0.00000000000E+00 0. -1.
        -14    1    4    4    0    0 -0.21355718124E+02 -0.15133545146E+02 -0.10468298396E+02  0.28190001003E+02  0.00000000000E+00 0.  1.
</event>
<event>
12    1  0.8493057E-002  0.2245530E+03  0.7818608E-02  0.1130575E+00
         21   -1    0    0  503  502  0.00000000000E+00  0.00000000000E+00  0.88145347747E+02  0.88145347747E+02  0.00000000000E+00 0. -1.
         21   -1    0    0  501  503 -0.00000000000E+00 -0.00000000000E+00 -0.64984077116E+03  0.64984077116E+03  0.00000000000E+00 0.  1.
          6    2    1    2  501    0 -0.96310436864E+02  0.10893014736E+03 -0.40911667304E+03  0.46669102636E+03  0.17112154943E+03 0.  0.
         24    2    3    3    0    0 -0.12745471882E+03  0.11186919693E+03 -0.37916689369E+03  0.42312861603E+03  0.80689961367E+02 0.  0.
         -6    2    1    2    0  502  0.96310436864E+02 -0.10893014736E+03 -0.15257875038E+03  0.27129509255E+03  0.17081942197E+03 0.  0.
        -24    2    5    5    0    0  0.91092670313E+02 -0.45789200564E+02 -0.28877709380E+02  0.13223380464E+03  0.79103296505E+02 0.  0.
          5    1    3    3  501    0  0.31144281953E+02 -0.29390495759E+01 -0.29949779350E+02  0.43562410331E+02  0.47000000000E+01 0. -1.
        -13    1    4    4    0    0 -0.57318120852E+02  0.11597332622E+02 -0.73830264133E+02  0.94184781170E+02  0.00000000000E+00 0.  1.
         14    1    4    4    0    0 -0.70136597964E+02  0.10027186431E+03 -0.30533662955E+03  0.32894383486E+03  0.00000000000E+00 0. -1.
         -5    1    5    5    0  502  0.52177665511E+01 -0.63140946792E+02 -0.12370104100E+03  0.13906128790E+03  0.47000000000E+01 0.  1.
         11    1    6    6    0    0  0.28404267715E+02 -0.56327552656E+02 -0.17197049194E+01  0.63107471806E+02  0.00000000000E+00 0. -1.
        -12    1    6    6    0    0  0.62688402597E+02  0.10538352092E+02 -0.27158004460E+02  0.69126332836E+02  0.00000000000E+00 0.  1.
</event>
<event>
12    1  0.8493057E-002  0.2767401E+03  0.7818608E-02  0.1097493E+00
         21   -1    0    0  501  502  0.00000000000E+00  0.00000000000E+00  0.84096088477E+03  0.84096088477E+03  0.00000000000E+00 0.  1.
         21   -1    0    0  502  503 -0.00000000000E+00 -0.00000000000E+00 -0.95632062871E+02  0.95632062871E+02  0.00000000000E+00 0. -1.
         -6    2    1    2    0  503 -0.19477086098E+03 -0.95916381578E+02  0.27014305940E+03  0.38673289430E+03  0.17160832862E+03 0.  0.
        -24    2    3    3    0    0 -0.79442425931E+02  0.24514845146E+01  0.14021088706E+03  0.18702975357E+03  0.94889024946E+02 0.  0.
          6    2    1    2  501    0  0.19477086098E+03  0.95916381578E+02  0.47518576250E+03  0.54986005334E+03  0.17149031704E+03 0.  0.
         24    2    5    5    0    0  0.17833497032E+03  0.12406029948E+03  0.34347211050E+03  0.41409262448E+03  0.79405865085E+02 0.  0.
          5    1    5    5  501    0  0.16435890655E+02 -0.28143917904E+02  0.13171365200E+03  0.13576742886E+03  0.47000000000E+01 0. -1.
        -13    1    6    6    0    0  0.82359212597E+02  0.10438179851E+03  0.20919073351E+03  0.24786964870E+03  0.00000000000E+00 0.  1.
         14    1    6    6    0    0  0.95975757725E+02  0.19678500976E+02  0.13428137699E+03  0.16622297578E+03  0.00000000000E+00 0. -1.
         -5    1    3    3    0  503 -0.11532843505E+03 -0.98367866092E+02  0.12993217234E+03  0.19970314073E+03  0.47000000000E+01 0.  1.
         13    1    4    4    0    0 -0.56671845617E+02 -0.96062457350E+01  0.14908204462E+03  0.15977932930E+03  0.00000000000E+00 0. -1.
        -14    1    4    4    0    0 -0.22770580313E+02  0.12057730250E+02 -0.88711575571E+01  0.27250424271E+02  0.00000000000E+00 0.  1.
</event>
<event>
12    1  0.8493057E-002  0.2048162E+03  0.7818608E-02  0.1146115E+00
         21   -1    0    0  501  502  0.00000000000E+00  0.00000000000E+00  0.68436437223E+03  0.68436437223E+03  0.00000000000E+00 0.  1.
         21   -1    0    0  502  503 -0.00000000000E+00 -0.00000000000E+00 -0.65590740377E+02  0.65590740377E+02  0.00000000000E+00 0. -1.
         -6    2    1    2    0  503  0.65293714128E+02 -0.87161207177E+02  0.20880578484E+03  0.29248848590E+03  0.17346271489E+03 0.  0.
        -24    2    3    3    0    0  0.33051357349E+02  0.19554389942E+02  0.68630230983E+02  0.11332636898E+03  0.81596512865E+02 0.  0.
          6    2    1    2  501    0 -0.65293714128E+02  0.87161207177E+02  0.40996784701E+03  0.45746662671E+03  0.17129429013E+03 0.  0.
         24    2    5    5    0    0 -0.77495298785E+02  0.47471680103E+02  0.14296083400E+03  0.18720939328E+03  0.79689868410E+02 0.  0.
          5    1    5    5  501    0  0.12201584656E+02  0.39689527075E+02  0.26700701301E+03  0.27025723343E+03  0.47000000000E+01 0. -1.
        -11    1    6    6    0    0  0.73993991590E+01  0.33814103530E+02  0.35512685314E+02  0.49591284755E+02  0.00000000000E+00 0.  1.
         12    1    6    6    0    0 -0.84894697944E+02  0.13657576573E+02  0.10744814869E+03  0.13761810852E+03  0.00000000000E+00 0. -1.
         -5    1    3    3    0  503  0.32242356779E+02 -0.10671559712E+03  0.14017555386E+03  0.17916211692E+03  0.47000000000E+01 0.  1.
         11    1    4    4    0    0  0.49717883740E+02 -0.14883274872E+02  0.38175545658E+02  0.64426330959E+02  0.00000000000E+00 0. -1.
        -12    1    4    4    0    0 -0.16666526391E+02  0.34437664814E+02  0.30454685324E+02  0.48900038016E+02  0.00000000000E+00 0.  1.
</event>
<event>
12    1  0.8493057E-002  0.2214297E+03  0.7818608E-02  0.1132852E+00
         21   -1    0    0  503  502  0.00000000000E+00  0.00000000000E+00  0.94704184899E+02  0.94704184899E+02  0.00000000000E+00 0. -1.
         21   -1    0    0  501  503 -0.00000000000E+00 -0.00000000000E+00 -0.56395419069E+03  0.56395419069E+03  0.00000000000E+00 0. -1.
          6    2    1    2  501    0  0.13710689401E+03  0.22782572805E+02 -0.32938863956E+03  0.39689794312E+03  0.17237678315E+03 0.  0.
         24    2    3    3    0    0  0.13294584497E+02 -0.22206100583E+02 -0.81696218763E+02  0.11631445458E+03  0.78644283349E+02 0.  0.
         -6    2    1    2    0  502 -0.13710689401E+03 -0.22782572805E+02 -0.13986136623E+03  0.26176043247E+03  0.17216264472E+03 0.  0.
        -24    2    5    5    0    0 -0.87914615195E+02  0.50241079673E+02 -0.10971767973E+03  0.16857746218E+03  0.78276726163E+02 0.  0.
          5    1    3    3  501    0  0.12381230951E+03  0.44988673388E+02 -0.24769242080E+03  0.28058348854E+03  0.47000000000E+01 0. -1.
        -11    1    4    4    0    0 -0.14243957401E+02  0.20194829406E+01  0.10022934189E+02  0.17533620378E+02  0.00000000000E+00 0.  1.
         12    1    4    4    0    0  0.27538541898E+02 -0.24225583524E+02 -0.91719152952E+02  0.98780834199E+02  0.00000000000E+00 0. -1.
         -5    1    5    5    0  502 -0.49192278812E+02 -0.73023652478E+02 -0.30143686497E+02  0.93182970288E+02  0.47000000000E+01 0.  1.
         13    1    6    6    0    0 -0.34830892403E+02 -0.19797590551E+02 -0.32427222202E+02  0.51542801601E+02  0.00000000000E+00 0. -1.
        -14    1    6    6    0    0 -0.53083722793E+02  0.70038670224E+02 -0.77290457528E+02  0.11703466058E+03  0.00000000000E+00 0.  1.
</event>
<event>
12    1  0.8493057E-002  0.1913485E+03  0.7818608E-02  0.1158098E+00
         21   -1    0    0  501  502  0.00000000000E+00  0.00000000000E+00  0.21307517534E+04  0.21307517534E+04  0.00000000000E+00 0.  1.
         21   -1    0    0  502  503 -0.00000000000E+00 -0.00000000000E+00 -0.18078038160E+02  0.18078038160E+02  0.00000000000E+00 0.  1.
         -6    2    1    2    0  503  0.84932937091E+02  0.11255601022E+02  0.13267746587E+04  0.13399715972E+04  0.16689096407E+03 0.  0.
        -24    2    3    3    0    0  0.30913541329E+02  0.33205558360E+02  0.11510767337E+04  0.11547912889E+04  0.80666087981E+02 0.  0.
          6    2    1    2  501    0 -0.84932937091E+02 -0.11255601022E+02  0.78589905649E+03  0.80885819434E+03  0.17109634481E+03 0.  0.
         24    2    5    5    0    0 -0.10587762692E+03  0.36942724297E+02  0.51906089322E+03  0.53685368340E+03  0.78821505620E+02 0.  0.
          5    1    5    5  501    0  0.20944689834E+02 -0.48198325319E+02  0.26683816326E+03  0.27200451094E+03  0.47000000000E+01 0. -1.
        -13    1    6    6    0    0 -0.36982741218E+02 -0.15805142185E+02  0.82839866276E+02  0.92086747755E+02  0.00000000000E+00 0.  1.
         14    1    6    6    0    0 -0.68894885707E+02  0.52747866482E+02  0.43622102695E+03  0.44476693565E+03  0.00000000000E+00 0. -1.
         -5    1    3    3    0  503  0.54019395762E+02 -0.21949957338E+02  0.17569792497E+03  0.18518030831E+03  0.47000000000E+01 0.  1.
         11    1    4    4    0    0 -0.20267558668E+02  0.25603115622E+02  0.23543392513E+03  0.23768766600E+03  0.00000000000E+00 0. -1.
        -12    1    4    4    0    0  0.51181099998E+02  0.76024427383E+01  0.91564280861E+03  0.91710362288E+03  0.00000000000E+00 0.  1.
</event>
<event>
12    1  0.8493057E-002  0.1867540E+03  0.7818608E-02  0.1161624E+00
         21   -1    0    0  503  502  0.00000000000E+00  0.00000000000E+00  0.38678495319E+03  0.38678495319E+03  0.00000000000E+00 0. -1.
         21   -1    0    0  501  503 -0.00000000000E+00 -0.00000000000E+00 -0.89750992871E+02  0.89750992871E+02  0.00000000000E+00 0. -1.
          6    2    1    2  501    0  0.33851836948E+01 -0.73591220252E+02  0.14951255647E+03  0.23923017219E+03  0.17160985863E+03 0.  0.
         24    2    3    3    0    0  0.43474162103E+02 -0.96316493744E+02  0.79994599366E+02  0.15569335035E+03  0.81697084873E+02 0.  0.
         -6    2    1    2    0  502 -0.33851836948E+01  0.73591220252E+02  0.14752140385E+03  0.23730577387E+03  0.17065854373E+03 0.  0.
        -24    2    5    5    0    0 -0.48688200957E+02  0.13504529000E+02  0.12933377366E+03  0.15974512837E+03  0.78983338819E+02 0.  0.
          5    1    3    3  501    0 -0.40088978408E+02  0.22725273491E+02  0.69517957101E+02  0.83536821848E+02  0.47000000000E+01 0. -1.
        -13    1    4    4    0    0 -0.46501428025E+01 -0.44997649034E+01 -0.14213311032E+02  0.15616975468E+02  0.00000000000E+00 0.  1.
         14    1    4    4    0    0  0.48124304905E+02 -0.91816728840E+02  0.94207910398E+02  0.14007637488E+03  0.00000000000E+00 0. -1.
         -5    1    5    5    0  502  0.45303017263E+02  0.60086691252E+02  0.18187630192E+02  0.77560645502E+02  0.47000000000E+01 0.  1.
         13    1    6    6    0    0 -0.22079727080E+02  0.33779167730E+02  0.19289253831E+02  0.44728311323E+02  0.00000000000E+00 0. -1.
        -14    1    6    6    0    0 -0.26608473877E+02 -0.20274638730E+02  0.11004451983E+03  0.11501681704E+03  0.00000000000E+00 0.  1.
</event>
<event>
12    1  0.8493057E-002  0.1752923E+03  0.7818608E-02  0.1173245E+00
         21   -1    0    0  503  502  0.00000000000E+00  0.00000000000E+00  0.12320707887E+03  0.12320707887E+03  0.00000000000E+00 0. -1.
         21   -1    0    0  501  503 -0.00000000000E+00 -0.00000000000E+00 -0.29586689166E+03  0.29586689166E+03  0.00000000000E+00 0. -1.
          6    2    1    2  501    0  0.31190146082E+02 -0.15221025897E+02 -0.17265509010E+03  0.24378165113E+03  0.16856811219E+03 0.  0.
         24    2    3    3    0    0  0.20665917225E+02 -0.29716042734E+02 -0.19522153916E+03  0.21458919440E+03  0.81406078830E+02 0.  0.
         -6    2    1    2    0  502 -0.31190146082E+02  0.15221025897E+02 -0.47226935248E-02  0.17529231940E+03  0.17182226973E+03 0.  0.
        -24    2    5    5    0    0 -0.58750634780E+02  0.25676647256E+02 -0.52437181766E+02  0.11495863627E+03  0.79717643717E+02 0.  0.
          5    1    3    3  501    0  0.10524228857E+02  0.14495016837E+02  0.22566449068E+02  0.29192456725E+02  0.47000000000E+01 0. -1.
        -11    1    4    4    0    0  0.45544382214E+02  0.44021766302E+01 -0.84574598550E+02  0.96158892622E+02  0.00000000000E+00 0.  1.
         12    1    4    4    0    0 -0.24878464989E+02 -0.34118219364E+02 -0.11064694061E+03  0.11843030178E+03  0.00000000000E+00 0. -1.
         -5    1    5    5    0  502  0.27560488698E+02 -0.10455621359E+02  0.52432459073E+02  0.60333683127E+02  0.47000000000E+01 0.  1.
         13    1    6    6    0    0  0.53696617222E+01  0.28281654886E+02 -0.40494078454E+02  0.49683555227E+02  0.00000000000E+00 0. -1.
        -14    1    6    6    0    0 -0.64120296502E+02 -0.26050076304E+01 -0.11943103312E+02  0.65275081042E+02  0.00000000000E+00 0.  1.
</event>
<event>
12    1  0.8493057E-002  0.2180114E+03  0.7818608E-02  0.1136415E+00
         21   -1    0    0  503  502  0.00000000000E+00  0.00000000000E+00  0.22733402797E+03  0.22733402797E+03  0.00000000000E+00 0. -1.
         21   -1    0    0  501  503 -0.00000000000E+00 -0.00000000000E+00 -0.22501597398E+03  0.22501597398E+03  0.00000000000E+00 0. -1.
          6    2    1    2  501    0  0.11105784142E+03  0.71103487168E+02 -0.68164931289E+02  0.22322818122E+03  0.16671776451E+03 0.  0.
         24    2    3    3    0    0  0.10223017859E+03  0.99282461165E+02 -0.16948227721E+02  0.16392200168E+03  0.79215930863E+02 0.  0.
         -6    2    1    2    0  502 -0.11105784142E+03 -0.71103487168E+02  0.70482985273E+02  0.22912182073E+03  0.17360704909E+03 0.  0.
        -24    2    5    5    0    0 -0.90112711493E+00  0.50626315051E+01  0.11651698903E+02  0.82769541640E+02  0.81783816664E+02 0.  0.
          5    1    3    3  501    0  0.88276628269E+01 -0.28178973998E+02 -0.51216703568E+02  0.59306179534E+02  0.47000000000E+01 0. -1.
        -11    1    4    4    0    0 -0.93187256081E+01  0.48244752664E+01  0.10892575093E+02  0.15124893411E+02  0.00000000000E+00 0.  1.
         12    1    4    4    0    0  0.11154890420E+03  0.94457985899E+02 -0.27840802814E+02  0.14879710827E+03  0.00000000000E+00 0. -1.
         -5    1    5    5    0  502 -0.11015671430E+03 -0.76166118673E+02  0.58831286370E+02  0.14635227909E+03  0.47000000000E+01 0.  1.
         13    1    6    6    0    0 -0.38104517012E+02 -0.12413351861E+02  0.10757313230E+00  0.40075642142E+02  0.00000000000E+00 0. -1.
        -14    1    6    6    0    0  0.37203389897E+02  0.17475983366E+02  0.11544125771E+02  0.42693899497E+02  0.00000000000E+00 0.  1.
</event>
<event>
12    1  0.8493057E-002  0.1886388E+03  0.7818608E-02  0.1159854E+00
         21   -1    0    0  501  502  0.00000000000E+00  0.00000000000E+00  0.23722850808E+03  0.23722850808E+03  0.00000000000E+00 0. -1.
         21   -1    0    0  502  503 -0.00000000000E+00 -0.00000000000E+00 -0.25298113652E+03  0.25298113652E+03  0.00000000000E+00 0. -1.
         -6    2    1    2    0  503  0.70479431166E+02  0.30463535637E+02  0.14891751381E+03  0.24033525820E+03  0.17230563889E+03 0.  0.
        -24    2    3    3    0    0  0.11168529498E+03  0.46232558304E+02  0.11773272075E+03  0.18610273468E+03  0.78499552610E+02 0.  0.
          6    2    1    2  501    0 -0.70479431166E+02 -0.30463535637E+02 -0.16467014226E+03  0.24987438639E+03  0.17153884692E+03 0.  0.
         24    2    5    5    0    0  0.28542428946E+02 -0.23941427514E+02 -0.83581980821E+02  0.12163536503E+03  0.80133340798E+02 0.  0.
          5    1    5    5  501    0 -0.99021860112E+02 -0.65221081229E+01 -0.81088161435E+02  0.12823902136E+03  0.47000000000E+01 0. -1.
        -11    1    6    6    0    0  0.28682197838E+02  0.82018785640E+01  0.23145852800E+01  0.29921507145E+02  0.00000000000E+00 0.  1.
         12    1    6    6    0    0 -0.13976889181E+00 -0.32143306078E+02 -0.85896566101E+02  0.91713857890E+02  0.00000000000E+00 0. -1.
         -5    1    3    3    0  503 -0.41205863812E+02 -0.15769022667E+02  0.31184793062E+02  0.54232523514E+02  0.47000000000E+01 0.  1.
         11    1    4    4    0    0  0.10977442438E+02 -0.17047833982E+02  0.23826438905E+01  0.20415922165E+02  0.00000000000E+00 0. -1.
        -12    1    4    4    0    0  0.10070785254E+03  0.63280392286E+02  0.11535007686E+03  0.16568681252E+03  0.00000000000E+00 0.  1.
</event>
<event>
12    1  0.8493057E-002  0.2010360E+03  0.7818608E-02  0.1149149E+00
         21   -1    0    0  503  502  0.00000000000E+00  0.00000000000E+00  0.10003181297E+03  0.10003181297E+03  0.00000000000E+00 0. -1.
         21   -1    0    0  501  503 -0.00000000000E+00 -0.00000000000E+00 -0.10490527908E+04  0.10490527908E+04  0.00000000000E+00 0.  1.
          6    2    1    2  501    0 -0.94325209858E+02  0.43172412574E+02 -0.92657026070E+03  0.94812863764E+03  0.17220442233E+03 0.  0.
         24    2    3    3    0    0 -0.73436443756E+02 -0.10350391307E+02 -0.81731323762E+03  0.82459638202E+03  0.80363069789E+02 0.  0.
         -6    2    1    2    0  502  0.94325209858E+02 -0.43172412574E+02 -0.22450717157E+02  0.20095596617E+03  0.17064045012E+03 0.  0.
        -24    2    5    5    0    0 -0.63889182410E+01 -0.27564921662E+02 -0.44664727439E+02  0.96541016932E+02  0.80774914983E+02 0.  0.
          5    1    3    3  501    0 -0.20888766102E+02  0.53522803882E+02 -0.10925702308E+03  0.12353225562E+03  0.47000000000E+01 0. -1.
        -11    1    4    4    0    0 -0.30177327506E+02  0.15343249946E+02 -0.10108976455E+03  0.10660781824E+03  0.00000000000E+00 0.  1.
         12    1    4    4    0    0 -0.43259116249E+02 -0.25693641253E+02 -0.71622347307E+03  0.71798856378E+03  0.00000000000E+00 0. -1.
         -5    1    5    5    0  502  0.10071412810E+03 -0.15607490912E+02  0.22214010282E+02  0.10441494924E+03  0.47000000000E+01 0.  1.
         13    1    6    6    0    0  0.27926321870E+02  0.10479527042E+02 -0.32038843284E+02  0.43774278054E+02  0.00000000000E+00 0. -1.
        -14    1    6    6    0    0 -0.34315240111E+02 -0.38044448705E+02 -0.12625884155E+02  0.52766738878E+02  0.00000000000E+00 0.  1.
</event>
<event>
12    1  0.8493057E-002  0.1909422E+03  0.7818608E-02  0.1158293E+00
         21   -1    0    0  503  502  0.00000000000E+00  0.00000000000E+00  0.81794943551E+02  0.81794943551E+02  0.00000000000E+00 0. -1.
         21   -1    0    0  501  503 -0.00000000000E+00 -0.00000000000E+00 -0.75213479345E+03  0.75213479345E+03  0.00000000000E+00 0. -1.
          6    2    1    2  501    0 -0.21834376597E+02  0.79067394893E+02 -0.60586038960E+03  0.63523674129E+03  0.17242538345E+03 0.  0.
         24    2    3    3    0    0 -0.33682975663E+02 -0.10356776085E+01 -0.46178040980E+03  0.46989460479E+03  0.80150965393E+02 0.  0.
         -6    2    1    2    0  502  0.21834376597E+02 -0.79067394893E+02 -0.64479460301E+02  0.19869299571E+03  0.16909439024E+03 0.  0.
        -24    2    5    5    0    0  0.71162460233E+02 -0.27622230249E+02 -0.14294455229E+02  0.11139758040E+03  0.79862419941E+02 0.  0.
          5    1    3    3  501    0  0.11848599067E+02  0.80103072501E+02 -0.14407997980E+03  0.16534213650E+03  0.47000000000E+01 0. -1.
        -13    1    4    4    0    0 -0.23578263326E+02  0.14782293587E+02 -0.46507879942E+02  0.54198095925E+02  0.00000000000E+00 0.  1.
         14    1    4    4    0    0 -0.10104712338E+02 -0.15817971196E+02 -0.41527252986E+03  0.41569650886E+03  0.00000000000E+00 0. -1.
         -5    1    5    5    0  502 -0.49328083637E+02 -0.51445164644E+02 -0.50185005072E+02  0.87295415312E+02  0.47000000000E+01 0.  1.
         11    1    6    6    0    0 -0.50534566733E+01 -0.33385090044E+02 -0.80348034441E+01  0.34708208366E+02  0.00000000000E+00 0. -1.
        -12    1    6    6    0    0  0.76215916907E+02  0.57628597945E+01 -0.62596517849E+01  0.76689372037E+02  0.00000000000E+00 0.  1.
</event>
<event>
12    1  0.8493057E-002  0.1833243E+03  0.7818608E-02  0.1164653E+00
         21   -1    0    0  503  502  0.00000000000E+00  0.00000000000E+00  0.29386597402E+02  0.29386597402E+02  0.00000000000E+00 0.  1.
         21   -1    0    0  501  503 -0.00000000000E+00 -0.00000000000E+00 -0.17031010322E+04  0.17031010322E+04  0.00000000000E+00 0.  1.
          6    2    1    2  501    0  0.60657111343E+02 -0.19114900666E+02 -0.13334882857E+04  0.13460143206E+04  0.17181058906E+03 0.  0.
         24    2    3    3    0    0  0.78819462178E+02  0.89818048928E+01 -0.12617467238E+04  0.12667159123E+04  0.79191079192E+02 0.  0.
         -6    2    1    2    0  502 -0.60657111343E+02  0.19114900666E+02 -0.34022614902E+03  0.38647330895E+03  0.17193929588E+03 0.  0.
        -24    2    5    5    0    0 -0.25224921142E+02  0.40374141554E+02 -0.33106027628E+03  0.34388811612E+03  0.79948495416E+02 0.  0.
          5    1    3    3  501    0 -0.18162350835E+02 -0.28096705559E+02 -0.71741561914E+02  0.79298408288E+02  0.47000000000E+01 0. -1.
        -13    1    4    4    0    0  0.86917062545E+02 -0.79455929927E+01 -0.83327032611E+03  0.83782882774E+03  0.00000000000E+00 0.  1.
         14    1    4    4    0    0 -0.80976003672E+01  0.16927397885E+02 -0.42847639772E+03  0.42888708460E+03  0.00000000000E+00 0. -1.
         -5    1    5    5    0  502 -0.35432190201E+02 -0.21259240888E+02 -0.91658727364E+01  0.42585192833E+02  0.47000000000E+01 0.  1.
         13    1    6    6    0    0 -0.27201060156E+02  0.55638427569E+02 -0.15150516569E+03  0.16367451704E+03  0.00000000000E+00 0. -1.
        -14    1    6    6    0    0  0.19761390146E+01 -0.15264286015E+02 -0.17955511059E+03  0.18021359908E+03  0.00000000000E+00 0.  1.
</event>
<event>
12    1  0.8493057E-002  0.2078037E+03  0.7818608E-02  0.1144280E+00
         21   -1    0    0  503  502  0.00000000000E+00  0.00000000000E+00  0.30207908575E+03  0.30207908575E+03  0.00000000000E+00 0.  1.
         21   -1    0    0  501  503 -0.00000000000E+00 -0.00000000000E+00 -0.16319394138E+03  0.16319394138E+03  0.00000000000E+00 0. -1.
          6    2    1    2  501    0 -0.92732247314E+02  0.42577580266E+02 -0.19487055541E+02  0.20399900833E+03  0.17556688193E+03 0.  0.
         24    2    3    3    0    0  0.15362565995E+02  0.28044619523E+02 -0.26958588242E+02  0.94575019123E+02  0.84824286876E+02 0.  0.
         -6    2    1    2    0  502  0.92732247314E+02 -0.42577580266E+02  0.15837219991E+03  0.26127401881E+03  0.18102552076E+03 0.  0.
        -24    2    5    5    0    0 -0.75203256768E+01 -0.20412004551E+02  0.13095126584E+03  0.15489785248E+03  0.79824215930E+02 0.  0.
          5    1    3    3  501    0 -0.10809481331E+03  0.14532960743E+02  0.74715327009E+01  0.10942398920E+03  0.47000000000E+01 0. -1.
        -11    1    4    4    0    0  0.12200560013E+02  0.58278742399E+02 -0.23372773382E+02  0.63965240684E+02  0.00000000000E+00 0.  1.
         12    1    4    4    0    0  0.31620059814E+01 -0.30234122875E+02 -0.35858148599E+01  0.30609778439E+02  0.00000000000E+00 0. -1.
         -5    1    5    5    0  502  0.10025257299E+03 -0.22165575715E+02  0.27420934073E+02  0.10637616633E+03  0.47000000000E+01 0.  1.
         11    1    6    6    0    0 -0.33674309308E+02  0.90950866089E-01  0.20200732020E+02  0.39268778356E+02  0.00000000000E+00 0. -1.
        -12    1    6    6    0    0  0.26153983631E+02 -0.20502955417E+02  0.11075053382E+03  0.11562907412E+03  0.00000000000E+00 0.  1.
</event>
<event>
12    1  0.8493057E-002  0.2076524E+03  0.7818608E-02  0.1143528E+00
         21   -1    0    0  503  502  0.00000000000E+00  0.00000000000E+00  0.13460247126E+03  0.13460247126E+03  0.00000000000E+00 0.  1.
         21   -1    0    0  501  503 -0.00000000000E+00 -0.00000000000E+00 -0.14628991484E+04  0.14628991484E+04  0.00000000000E+00 0. -1.
          6    2    1    2  501    0  0.83147706744E+02  0.81977284725E+02 -0.13701024289E+04  0.13856826895E+04  0.17117836882E+03 0.  0.
         24    2    3    3    0    0  0.52546160068E+02 -0.15224593387E+02 -0.86276648302E+03  0.86819209852E+03  0.79991427869E+02 0.  0.
         -6    2    1    2    0  502 -0.83147706744E+02 -0.81977284725E+02  0.41805751771E+02  0.21181893015E+03  0.17171407030E+03 0.  0.
        -24    2    5    5    0    0  0.83396033109E+01 -0.81448464300E+02  0.42495965070E+02  0.12020684608E+03  0.77073844315E+02 0.  0.
          5    1    3    3  501    0  0.30601546676E+02  0.97201878111E+02 -0.50733594585E+03  0.51749059095E+03  0.47000000000E+01 0. -1.
        -13    1    4    4    0    0  0.41342487715E+02  0.15919315881E+02 -0.21174291985E+03  0.21632773751E+03  0.00000000000E+00 0.  1.
         14    1    4    4    0    0  0.11203672353E+02 -0.31143909268E+02 -0.65102356317E+03  0.65186436101E+03  0.00000000000E+00 0. -1.
         -5    1    5    5    0  502 -0.91487310055E+02 -0.52882042451E+00 -0.69021329909E+00  0.91612084064E+02  0.47000000000E+01 0.  1.
         13    1    6    6    0    0  0.37513611222E+02 -0.16600676191E+02  0.11254650563E+02  0.42538460671E+02  0.00000000000E+00 0. -1.
        -14    1    6    6    0    0 -0.29174007911E+02 -0.64847788109E+02  0.31241314507E+02  0.77668385411E+02  0.00000000000E+00 0.  1.
</event>
<event>
12    1  0.8493057E-002  0.1999284E+03  0.7818608E-02  0.1150200E+00
         21   -1    0    0  503  502  0.00000000000E+00  0.00000000000E+00  0.13050106265E+03  0.13050106265E+03  0.00000000000E+00 0.  1.
         21   -1    0    0  501  503 -0.00000000000E+00 -0.00000000000E+00 -0.30712659517E+03  0.30712659517E+03  0.00000000000E+00 0.  1.
          6    2    1    2  501    0  0.42795336977E+02 -0.93165665105E+02 -0.64637251461E+02  0.21011743970E+03  0.17163939573E+03 0.  0.
         24    2    3    3    0    0  0.86082340061E+02 -0.43661901475E+02 -0.11297751092E+02  0.12531425846E+03  0.79116959508E+02 0.  0.
         -6    2    1    2    0  502 -0.42795336977E+02  0.93165665105E+02 -0.11198828106E+03  0.22751021813E+03  0.16943506790E+03 0.  0.
        -24    2    5    5    0    0 -0.95942016784E+02  0.50521653030E+02 -0.62182099618E+02  0.14297722427E+03  0.69415885340E+02 0.  0.
          5    1    3    3  501    0 -0.43287003084E+02 -0.49503763629E+02 -0.53339500369E+02  0.84803181244E+02  0.47000000000E+01 0. -1.
        -13    1    4    4    0    0  0.27249406918E+02 -0.54474144534E+02 -0.21578853663E+02  0.64618956395E+02  0.00000000000E+00 0.  1.
         14    1    4    4    0    0  0.58832933143E+02  0.10812243059E+02  0.10281102571E+02  0.60695302061E+02  0.00000000000E+00 0. -1.
         -5    1    5    5    0  502  0.53146679807E+02  0.42644012075E+02 -0.49806181443E+02  0.84532993856E+02  0.47000000000E+01 0.  1.
         13    1    6    6    0    0 -0.45079717437E+02 -0.11133943526E+02 -0.36379260793E+02  0.58988102517E+02  0.00000000000E+00 0. -1.
        -14    1    6    6    0    0 -0.50862299346E+02  0.61655596556E+02 -0.25802838825E+02  0.83989121753E+02  0.00000000000E+00 0.  1.
</event>
<event>
12    1  0.8493057E-002  0.2204854E+03  0.7818608E-02  0.1133861E+00
         21   -1    0    0  501  502  0.00000000000E+00  0.00000000000E+00  0.19610805491E+03  0.19610805491E+03  0.00000000000E+00 0.  1.
         21   -1    0    0  502  503 -0.00000000000E+00 -0.00000000000E+00 -0.25103513258E+03  0.25103513258E+03  0.00000000000E+00 0.  1.
         -6    2    1    2    0  503 -0.12653519706E+03 -0.43738047043E+02  0.45528296433E+01  0.22053236931E+03  0.17518454498E+03 0.  0.
        -24    2    3    3    0    0 -0.15647164780E+03 -0.30715985454E+02 -0.18900364491E+02  0.18006129958E+03  0.81473919141E+02 0.  0.
          6    2    1    2  501    0  0.12653519706E+03  0.43738047043E+02 -0.59479907320E+02  0.22661081818E+03  0.17288849206E+03 0.  0.
         24    2    5    5    0    0  0.15392329720E+03  0.49044414948E+02 -0.26254891975E+02  0.18297302247E+03  0.81805082603E+02 0.  0.
          5    1    5    5  501    0 -0.27388100139E+02 -0.53063679043E+01 -0.33225015346E+02  0.43637795708E+02  0.47000000000E+01 0. -1.
        -11    1    6    6    0    0  0.75967253710E+02 -0.17442885030E+02 -0.19188808178E+02  0.80271341298E+02  0.00000000000E+00 0.  1.
         12    1    6    6    0    0  0.77956043494E+02  0.66487299978E+02 -0.70660837967E+01  0.10270168117E+03  0.00000000000E+00 0. -1.
         -5    1    3    3    0  503  0.29936450733E+02 -0.13022061589E+02  0.23453194135E+02  0.40471069736E+02  0.47000000000E+01 0.  1.
         11    1    4    4    0    0 -0.15030163511E+02 -0.96601812633E+01  0.24770169230E+02  0.30541548764E+02  0.00000000000E+00 0. -1.
        -12    1    4    4    0    0 -0.14144148429E+03 -0.21055804191E+02 -0.43670533722E+02  0.14951975081E+03  0.00000000000E+00 0.  1.
</event>
<event>
12    1  0.8493057E-002  0.2065995E+03  0.7818608E-02  0.1144745E+00
         21   -1    0    0  503  502  0.00000000000E+00  0.00000000000E+00  0.14177942396E+03  0.14177942396E+03  0.00000000000E+00 0.  1.
         21   -1    0    0  501  503 -0.00000000000E+00 -0.00000000000E+00 -0.29990029694E+03  0.29990029694E+03  0.00000000000E+00 0.  1.
          6    2    1    2  501    0 -0.10748190133E+03  0.22747126587E+02 -0.98039123477E+02  0.22868102093E+03  0.17496727900E+03 0.  0.
         24    2    3    3    0    0 -0.72964595954E+02 -0.15709486049E+02  0.89719613505E+01  0.10975323737E+03  0.79966598079E+02 0.  0.
         -6    2    1    2    0  502  0.10748190133E+03 -0.22747126587E+02 -0.60081749504E+02  0.21299869997E+03  0.17230449408E+03 0.  0.
        -24    2    5    5    0    0  0.33776131342E+01 -0.45101134096E+02 -0.18580570038E+01  0.91551209908E+02  0.79577956072E+02 0.  0.
          5    1    3    3  501    0 -0.34517305378E+02  0.38456612636E+02 -0.10701108483E+03  0.11892778356E+03  0.47000000000E+01 0. -1.
        -13    1    4    4    0    0 -0.27224549370E+02 -0.46755420226E+02  0.46433059025E+01  0.54302906908E+02  0.00000000000E+00 0.  1.
         14    1    4    4    0    0 -0.45740046584E+02  0.31045934177E+02  0.43286554480E+01  0.55450330463E+02  0.00000000000E+00 0. -1.
         -5    1    5    5    0  502  0.10410428820E+03  0.22354007509E+02 -0.58223692500E+02  0.12144749006E+03  0.47000000000E+01 0.  1.
         13    1    6    6    0    0  0.36291685725E+02 -0.38857093186E+02 -0.15494866231E+02  0.55380962642E+02  0.00000000000E+00 0. -1.
        -14    1    6    6    0    0 -0.32914072591E+02 -0.62440409108E+01  0.13636809227E+02  0.36170247267E+02  0.00000000000E+00 0.  1.
</event>
<event>
12    1  0.8493057E-002  0.1728264E+03  0.7818608E-02  0.1175849E+00
         21   -1    0    0  503  502  0.00000000000E+00  0.00000000000E+00  0.40218492051E+03  0.40218492051E+03  0.00000000000E+00 0.  1.
         21   -1    0    0  501  503 -0.00000000000E+00 -0.00000000000E+00 -0.72754531852E+02  0.72754531852E+02  0.00000000000E+00 0.  1.
          6    2    1    2  501    0  0.10001206030E+02 -0.86202565744E+01  0.16070595799E+03  0.23340915606E+03  0.16875750724E+03 0.  0.
         24    2    3    3    0    0 -0.18749813317E+02  0.17518508293E+02  0.21313488667E+02  0.88625846773E+02  0.82108600554E+02 0.  0.
         -6    2    1    2    0  502 -0.10001206030E+02  0.86202565744E+01  0.16872443067E+03  0.24153029631E+03  0.17232126272E+03 0.  0.
        -24    2    5    5    0    0  0.58364004000E+02 -0.17697906627E+02  0.90812586335E+02  0.13448454373E+03  0.78227832671E+02 0.  0.
          5    1    3    3  501    0  0.28751019347E+02 -0.26138764868E+02  0.13939246933E+03  0.14478330928E+03  0.47000000000E+01 0. -1.
        -13    1    4    4    0    0  0.27374934972E+02 -0.11233505575E+02  0.16944355288E+02  0.34098238787E+02  0.00000000000E+00 0.  1.
         14    1    4    4    0    0 -0.46124748289E+02  0.28752013868E+02  0.43691333786E+01  0.54527607986E+02  0.00000000000E+00 0. -1.
         -5    1    5    5    0  502 -0.68365210031E+02  0.26318163202E+02  0.77911844335E+02  0.10704575258E+03  0.47000000000E+01 0.  1.
         13    1    6    6    0    0  0.38864446109E+02  0.15351886900E+02  0.86251809198E+02  0.95841015191E+02  0.00000000000E+00 0. -1.
        -14    1    6    6    0    0  0.19499557891E+02 -0.33049793527E+02  0.45607771369E+01  0.38643528543E+02  0.00000000000E+00 0.  1.
</event>
<event>
12    1  0.8493057E-002  0.1777172E+03  0.7818608E-02  0.1170219E+00
         21   -1    0    0  503  502  0.00000000000E+00  0.00000000000E+00  0.18370401827E+03  0.18370401827E+03  0.00000000000E+00 0.  1.
         21   -1    0    0  501  503 -0.00000000000E+00 -0.00000000000E+00 -0.22232450382E+03  0.22232450382E+03  0.00000000000E+00 0.  1.
          6    2    1    2  501    0 -0.39707984889E+02 -0.79334681875E+01 -0.11670528448E+03  0.21261124920E+03  0.17304264180E+03 0.  0.
         24    2    3    3    0    0 -0.65406235633E+02 -0.29431034148E+02 -0.13825961537E+03  0.17249610725E+03  0.74128431415E+02 0.  0.
         -6    2    1    2    0  502  0.39707984889E+02  0.79334681875E+01  0.78084798932E+02  0.19341727289E+03  0.17225951830E+03 0.  0.
        -24    2    5    5    0    0  0.60788160479E+01  0.58910672313E+02  0.86900595083E+01  0.10085747493E+03  0.81174465190E+02 0.  0.
          5    1    3    3  501    0  0.25698250744E+02  0.21497565961E+02  0.21554330895E+02  0.40115141952E+02  0.47000000000E+01 0. -1.
        -13    1    4    4    0    0 -0.80084380470E+02 -0.18230727168E+02 -0.12574155002E+03  0.15018923001E+03  0.00000000000E+00 0.  1.
         14    1    4    4    0    0  0.14678144837E+02 -0.11200306980E+02 -0.12518065349E+02  0.22306877244E+02  0.00000000000E+00 0. -1.
         -5    1    5    5    0  502  0.33629168841E+02 -0.50977204125E+02  0.69394739423E+02  0.92559797952E+02  0.47000000000E+01 0.  1.
         11    1    6    6    0    0 -0.17531219038E+02 -0.12006281826E+02  0.14753379560E+02  0.25868062407E+02  0.00000000000E+00 0. -1.
        -12    1    6    6    0    0  0.23610035085E+02  0.70916954139E+02 -0.60633200514E+01  0.74989412527E+02  0.00000000000E+00 0.  1.
</event>
<event>
12    1  0.8493057E-002  0.1846249E+03  0.7818608E-02  0.1163446E+00
         21   -1    0    0  503  502  0.00000000000E+00  0.00000000000E+00  0.41298884164E+03  0.41298884164E+03  0.00000000000E+00 0.  1.
         21   -1    0    0  501  503 -0.00000000000E+00 -0.00000000000E+00 -0.12236847586E+03  0.12236847586E+03  0.00000000000E+00 0.  1.
          6    2    1    2  501    0  0.60383269485E+02  0.28484204694E+02 -0.76300198155E+01  0.18458721721E+03  0.17192072127E+03 0.  0.
         24    2    3    3    0    0 -0.22106412374E+02 -0.16076878356E+02 -0.34292643663E+02  0.87000213738E+02  0.75139152879E+02 0.  0.
         -6    2    1    2    0  502 -0.60383269485E+02 -0.28484204694E+02  0.29825038560E+03  0.35077010029E+03  0.17213042031E+03 0.  0.
        -24    2    5    5    0    0 -0.89600163502E+02  0.19494772815E+02  0.16497842944E+03  0.20606656379E+03  0.82688034578E+02 0.  0.
          5    1    3    3  501    0  0.82489681859E+02  0.44561083050E+02  0.26662623847E+02  0.97587003470E+02  0.47000000000E+01 0. -1.
        -11    1    4    4    0    0  0.16771247778E+02 -0.25878552628E+01 -0.41851000359E+02  0.45160579911E+02  0.00000000000E+00 0.  1.
         12    1    4    4    0    0 -0.38877660151E+02 -0.13489023093E+02  0.75583566961E+01  0.41839633827E+02  0.00000000000E+00 0. -1.
         -5    1    5    5    0  502  0.29216894016E+02 -0.47978977509E+02  0.13327195616E+03  0.14470353651E+03  0.47000000000E+01 0.  1.
         11    1    6    6    0    0 -0.48384225788E+02  0.48912057836E+02  0.12006946438E+03  0.13838388267E+03  0.00000000000E+00 0. -1.
        -12    1    6    6    0    0 -0.41215937714E+02 -0.29417285021E+02  0.44908965059E+02  0.67682681111E+02  0.00000000000E+00 0.  1.
</event>
<event>
12    1  0.8493057E-002  0.2114553E+03  0.7818608E-02  0.1140988E+00
         21   -1    0    0  503  502  0.00000000000E+00  0.00000000000E+00  0.51927628985E+03  0.51927628985E+03  0.00000000000E+00 0. -1.
         21   -1    0    0  501  503 -0.00000000000E+00 -0.00000000000E+00 -0.96569135643E+02  0.96569135643E+02  0.00000000000E+00 0. -1.
          6    2    1    2  501    0  0.18238200791E+02  0.11813080066E+03  0.10576520114E+03  0.23643104223E+03  0.17443004880E+03 0.  0.
         24    2    3    3    0    0  0.15763874699E+02 -0.47006018189E+01  0.72559791341E+02  0.10907969766E+03  0.79767548030E+02 0.  0.
         -6    2    1    2    0  502 -0.18238200791E+02 -0.11813080066E+03  0.31694195307E+03  0.37941438327E+03  0.17092558200E+03 0.  0.
        -24    2    5    5    0    0 -0.40629363919E+02 -0.17433427913E+02  0.99525190088E+02  0.13872066941E+03  0.85927242706E+02 0.  0.
          5    1    3    3  501    0  0.24743260921E+01  0.12283140247E+03  0.33205409795E+02  0.12735134457E+03  0.47000000000E+01 0. -1.
        -13    1    4    4    0    0 -0.29491541045E+02 -0.15963523335E+02  0.40024081146E+02  0.52216014230E+02  0.00000000000E+00 0.  1.
         14    1    4    4    0    0  0.45255415743E+02  0.11262921516E+02  0.32535710195E+02  0.56863683428E+02  0.00000000000E+00 0. -1.
         -5    1    5    5    0  502  0.22391163129E+02 -0.10069737274E+03  0.21741676298E+03  0.24069371385E+03  0.47000000000E+01 0.  1.
         13    1    6    6    0    0 -0.17762039995E+02  0.24164965844E+02  0.83333424290E+02  0.88565767895E+02  0.00000000000E+00 0. -1.
        -14    1    6    6    0    0 -0.22867323924E+02 -0.41598393757E+02  0.16191765798E+02  0.50154901517E+02  0.00000000000E+00 0.  1.
</event>
<event>
12    1  0.8493057E-002  0.1929317E+03  0.7818608E-02  0.1156501E+00
         21   -1    0    0  503  502  0.00000000000E+00  0.00000000000E+00  0.14195237822E+03  0.14195237822E+03  0.00000000000E+00 0.  1.
         21   -1    0    0  501  503 -0.00000000000E+00 -0.00000000000E+00 -0.25923301636E+03  0.25923301636E+03  0.00000000000E+00 0.  1.
          6    2    1    2  501    0  0.21694655050E+02  0.76761000049E+02 -0.45673243082E+02  0.19539361658E+03  0.17242305843E+03 0.  0.
         24    2    3    3    0    0 -0.34419472742E+02  0.49656360585E+02  0.23780473381E+02  0.10196254279E+03  0.78615488089E+02 0.  0.
         -6    2    1    2    0  502 -0.21694655050E+02 -0.76761000049E+02 -0.71607395063E+02  0.20579177801E+03  0.17566937036E+03 0.  0.
        -24    2    5    5    0    0 -0.63278638787E+02 -0.75852694751E+02 -0.93613724562E+02  0.15850096220E+03  0.81247819437E+02 0.  0.
          5    1    3    3  501    0  0.56114127792E+02  0.27104639464E+02 -0.69453716463E+02  0.93431073786E+02  0.47000000000E+01 0. -1.
        -11    1    4    4    0    0 -0.44677040455E+02  0.40679902202E+02 -0.13806867667E+02  0.61980012760E+02  0.00000000000E+00 0.  1.
         12    1    4    4    0    0  0.10257567713E+02  0.89764583834E+01  0.37587341048E+02  0.39982530029E+02  0.00000000000E+00 0. -1.
         -5    1    5    5    0  502  0.41583983736E+02 -0.90830529781E+00  0.22006329499E+02  0.47290815810E+02  0.47000000000E+01 0.  1.
         11    1    6    6    0    0  0.43830047824E+01  0.13524335025E+01  0.11007899268E+02  0.11925336624E+02  0.00000000000E+00 0. -1.
        -12    1    6    6    0    0 -0.67661643569E+02 -0.77205128254E+02 -0.10462162383E+03  0.14657562557E+03  0.00000000000E+00 0.  1.
</event>
<event>
12    1  0.8493057E-002  0.2965149E+03  0.7818608E-02  0.1087239E+00
         21   -1    0    0  503  502  0.00000000000E+00  0.00000000000E+00  0.12168534858E+04  0.12168534858E+04  0.00000000000E+00 0. -1.
         21   -1    0    0  501  503 -0.00000000000E+00 -0.00000000000E+00 -0.10116967283E+03  0.10116967283E+03  0.00000000000E+00 0. -1.
          6    2    1    2  501    0 -0.21223501614E+03  0.11793794233E+03  0.20397769759E+03  0.35989998959E+03  0.17020000317E+03 0.  0.
         24    2    3    3    0    0 -0.82539442787E+02  0.11253389239E+03  0.74511191051E+02  0.17650475569E+03  0.78264772643E+02 0.  0.
         -6    2    1    2    0  502  0.21223501614E+03 -0.11793794233E+03  0.91170611540E+03  0.95812316905E+03  0.16684995025E+03 0.  0.
        -24    2    5    5    0    0  0.16732737901E+03 -0.14897901240E+03  0.69211869799E+03  0.73180267111E+03  0.79458539087E+02 0.  0.
          5    1    3    3  501    0 -0.12969557335E+03  0.54040499365E+01  0.12946650654E+03  0.18339523391E+03  0.47000000000E+01 0. -1.
        -11    1    4    4    0    0 -0.61085054758E+02  0.72283490146E+02  0.68231169373E+01  0.94883306157E+02  0.00000000000E+00 0.  1.
         12    1    4    4    0    0 -0.21454388029E+02  0.40250402243E+02  0.67688074114E+02  0.81621449532E+02  0.00000000000E+00 0. -1.
         -5    1    5    5    0  502  0.44907637126E+02  0.31041070073E+02  0.21958741741E+03  0.22632049794E+03  0.47000000000E+01 0.  1.
         13    1    6    6    0    0  0.12398625291E+03 -0.11181256463E+03  0.60521623836E+03  0.62782269447E+03  0.00000000000E+00 0. -1.
        -14    1    6    6    0    0  0.43341126105E+02 -0.37166447772E+02  0.86902459630E+02  0.10397997664E+03  0.00000000000E+00 0.  1.
</event>
<event>
12    1  0.8493057E-002  0.1915922E+03  0.7818608E-02  0.1157596E+00
         21   -1    0    0  503  502  0.00000000000E+00  0.00000000000E+00  0.53089364029E+02  0.53089364029E+02  0.00000000000E+00 0. -1.
         21   -1    0    0  501  503 -0.00000000000E+00 -0.00000000000E+00 -0.84399161781E+03  0.84399161781E+03  0.00000000000E+00 0. -1.
          6    2    1    2  501    0 -0.22463660612E+02 -0.75954869692E+02 -0.58960012179E+03  0.61917788402E+03  0.17169504992E+03 0.  0.
         24    2    3    3    0    0  0.50446598532E+02 -0.12018368948E+02 -0.32221364627E+03  0.33471101546E+03  0.74300266042E+02 0.  0.
         -6    2    1    2    0  502  0.22463660612E+02  0.75954869692E+02 -0.20130213200E+03  0.27790309782E+03  0.17445293106E+03 0.  0.
        -24    2    5    5    0    0  0.22386443556E+02  0.31834918948E+02 -0.21779939312E+03  0.23056573794E+03  0.64879649708E+02 0.  0.
          5    1    3    3  501    0 -0.72910259144E+02 -0.63936500744E+02 -0.26738647552E+03  0.28446686856E+03  0.47000000000E+01 0. -1.
        -11    1    4    4    0    0  0.30919002535E+02 -0.40549761462E+02 -0.13454305541E+03  0.14388224918E+03  0.00000000000E+00 0.  1.
         12    1    4    4    0    0  0.19527595997E+02  0.28531392513E+02 -0.18767059086E+03  0.19082876627E+03  0.00000000000E+00 0. -1.
         -5    1    5    5    0  502  0.77217055733E-01  0.44119950744E+02  0.16497261128E+02  0.47337359884E+02  0.47000000000E+01 0.  1.
         11    1    6    6    0    0  0.30737410662E+02  0.20712983751E+02 -0.50254776849E+02  0.62444845313E+02  0.00000000000E+00 0. -1.
        -12    1    6    6    0    0 -0.83509671060E+01  0.11121935197E+02 -0.16754461628E+03  0.16812089262E+03  0.00000000000E+00 0.  1.
</event>
<event>
12    1  0.8493057E-002  0.1751403E+03  0.7818608E-02  0.1172685E+00
         21   -1    0    0  501  502  0.00000000000E+00  0.00000000000E+00  0.35348308580E+03  0.35348308580E+03  0.00000000000E+00 0. -1.
         21   -1    0    0  502  503 -0.00000000000E+00 -0.00000000000E+00 -0.11005470991E+03  0.11005470991E+03  0.00000000000E+00 0. -1.
         -6    2    1    2    0  503  0.28753836937E+02  0.14169002784E+02  0.14802647690E+02  0.17576473947E+03  0.17218182681E+03 0.  0.
        -24    2    3    3    0    0  0.35826949817E+02  0.73959704737E+02  0.12577285512E+02  0.11533296635E+03  0.79936829796E+02 0.  0.
          6    2    1    2  501    0 -0.28753836937E+02 -0.14169002784E+02  0.22862572820E+03  0.28777305624E+03  0.17180239964E+03 0.  0.
         24    2    5    5    0    0  0.21457223763E+02 -0.61839030485E+02  0.11149891497E+03  0.15163209056E+03  0.79219976678E+02 0.  0.
          5    1    5    5  501    0 -0.50211060700E+02  0.47670027701E+02  0.11712681324E+03  0.13614096568E+03  0.47000000000E+01 0. -1.
        -13    1    6    6    0    0  0.32258257731E+02  0.70142673628E+01  0.33524610074E+02  0.47049916250E+02  0.00000000000E+00 0.  1.
         14    1    6    6    0    0 -0.10801033968E+02 -0.68853297847E+02  0.77974304892E+02  0.10458217431E+03  0.00000000000E+00 0. -1.
         -5    1    3    3    0  503 -0.70731128798E+01 -0.59790701953E+02  0.22253621778E+01  0.60431773122E+02  0.47000000000E+01 0.  1.
         13    1    4    4    0    0  0.58131259412E+02  0.55168243837E+02 -0.66225839876E+01  0.80415403173E+02  0.00000000000E+00 0. -1.
        -14    1    4    4    0    0 -0.22304309595E+02  0.18791460901E+02  0.19199869500E+02  0.34917563175E+02  0.00000000000E+00 0.  1.
</event>
<event>
12    1  0.8493057E-002  0.1928112E+03  0.7818608E-02  0.1157624E+00
         21   -1    0    0  503  502  0.00000000000E+00  0.00000000000E+00  0.45312972034E+03  0.45312972034E+03  0.00000000000E+00 0. -1.
         21   -1    0    0  501  503 -0.00000000000E+00 -0.00000000000E+00 -0.10119342701E+03  0.10119342701E+03  0.00000000000E+00 0. -1.
          6    2    1    2  501    0 -0.51579553430E+02 -0.47073972408E+02  0.43264249246E+02  0.19038001742E+03  0.17174500446E+03 0.  0.
         24    2    3    3    0    0 -0.44319536543E+02 -0.61167540649E+02 -0.30927256821E+02  0.11436813622E+03  0.80111709624E+02 0.  0.
         -6    2    1    2    0  502  0.51579553430E+02  0.47073972408E+02  0.30867204408E+03  0.36394312993E+03  0.17972134489E+03 0.  0.
        -24    2    5    5    0    0 -0.17715544804E+02  0.66616371553E+02  0.11004984516E+03  0.15262208529E+03  0.80193210496E+02 0.  0.
          5    1    3    3  501    0 -0.72600168869E+01  0.14093568241E+02  0.74191506068E+02  0.76011881200E+02  0.47000000000E+01 0. -1.
        -11    1    4    4    0    0  0.10919229096E+02  0.13407538451E+02 -0.42776855730E+01  0.17812642848E+02  0.00000000000E+00 0.  1.
         12    1    4    4    0    0 -0.55238765639E+02 -0.74575079099E+02 -0.26649571248E+02  0.96555493369E+02  0.00000000000E+00 0. -1.
         -5    1    5    5    0  502  0.69295098234E+02 -0.19542399145E+02  0.19862219892E+03  0.21132104464E+03  0.47000000000E+01 0.  1.
         11    1    6    6    0    0 -0.18721004469E+02  0.83164693259E+02  0.10509002133E+03  0.13531723761E+03  0.00000000000E+00 0. -1.
        -12    1    6    6    0    0  0.10054596645E+01 -0.16548321706E+02  0.49598238370E+01  0.17304847671E+02  0.00000000000E+00 0.  1.
</event>
<event>
12    1  0.8493057E-002  0.2050122E+03  0.7818608E-02  0.1145763E+00
         21   -1    0    0  503  502  0.00000000000E+00  0.00000000000E+00  0.13532472586E+03  0.13532472586E+03  0.00000000000E+00 0.  1.
         21   -1    0    0  501  503 -0.00000000000E+00 -0.00000000000E+00 -0.37853331680E+03  0.37853331680E+03  0.00000000000E+00 0. -1.
          6    2    1    2  501    0 -0.38254822403E+02 -0.10382815201E+03 -0.23132920427E+03  0.30850192627E+03  0.17151245196E+03 0.  0.
         24    2    3    3    0    0  0.38771382681E+02 -0.25953374975E+02 -0.12820817292E+03  0.15799094901E+03  0.79668102646E+02 0.  0.
         -6    2    1    2    0  502  0.38254822403E+02  0.10382815201E+03 -0.11879386665E+02  0.20535611639E+03  0.17258707403E+03 0.  0.
        -24    2    5    5    0    0  0.87039856364E+02  0.74331969318E+02 -0.34638485651E+02  0.14379256452E+03  0.79845467400E+02 0.  0.
          5    1    3    3  501    0 -0.77026205085E+02 -0.77874777033E+02 -0.10312103135E+03  0.15051097726E+03  0.47000000000E+01 0. -1.
        -13    1    4    4    0    0  0.19929847551E+02 -0.52197542040E+02 -0.10235891078E+03  0.11661530274E+03  0.00000000000E+00 0.  1.
         14    1    4    4    0    0  0.18841535130E+02  0.26244167065E+02 -0.25849262141E+02  0.41375646270E+02  0.00000000000E+00 0. -1.
         -5    1    5    5    0  502 -0.48785033961E+02  0.29496182690E+02  0.22759098986E+02  0.61563551867E+02  0.47000000000E+01 0.  1.
         13    1    6    6    0    0  0.79275267150E+02  0.79548543944E+02 -0.52239057871E+02  0.12386063940E+03  0.00000000000E+00 0. -1.
        -14    1    6    6    0    0  0.77645892147E+01 -0.52165746266E+01  0.17600572220E+02  0.19931925119E+02  0.00000000000E+00 0.  1.
</event>
<event>
12    1  0.8493057E-002  0.1788972E+03  0.7818608E-02  0.1169416E+00
         21   -1    0    0  501  502  0.00000000000E+00  0.00000000000E+00  0.91104103165E+02  0.91104103165E+02  0.00000000000E+00 0. -1.
         21   -1    0    0  502  503 -0.00000000000E+00 -0.00000000000E+00 -0.41416852296E+03  0.41416852296E+03  0.00000000000E+00 0.  1.
         -6    2    1    2    0  503 -0.46677354509E+02  0.21422211178E+02 -0.26412559001E+03  0.31900865242E+03  0.17136658503E+03 0.  0.
        -24    2    3    3    0    0 -0.89243638859E+02 -0.83481166407E+01 -0.13849066988E+03  0.18297783187E+03  0.79165037648E+02 0.  0.
          6    2    1    2  501    0  0.46677354509E+02 -0.21422211178E+02 -0.58938829789E+02  0.18626397371E+03  0.16906447199E+03 0.  0.
         24    2    5    5    0    0  0.57060175488E+02 -0.72519717111E+02 -0.26266445786E+02  0.12455228308E+03  0.79425260773E+02 0.  0.
          5    1    5    5  501    0 -0.10382820979E+02  0.51097505933E+02 -0.32672384003E+02  0.61711690630E+02  0.47000000000E+01 0. -1.
        -13    1    6    6    0    0  0.18623923963E+02 -0.58785351257E+02 -0.48152575205E+02  0.78238344596E+02  0.00000000000E+00 0.  1.
         14    1    6    6    0    0  0.38436251525E+02 -0.13734365854E+02  0.21886129419E+02  0.46313938481E+02  0.00000000000E+00 0. -1.
         -5    1    3    3    0  503  0.42566284350E+02  0.29770327819E+02 -0.12563492013E+03  0.13603082054E+03  0.47000000000E+01 0.  1.
         13    1    4    4    0    0 -0.32025797472E+02 -0.40539312097E+02 -0.78929315276E+02  0.94334110156E+02  0.00000000000E+00 0. -1.
        -14    1    4    4    0    0 -0.57217841387E+02  0.32191195457E+02 -0.59561354601E+02  0.88643721716E+02  0.00000000000E+00 0.  1.
</event>
<event>
12    1  0.8493057E-002  0.2206505E+03  0.7818608E-02  0.1133678E+00
         21   -1    0    0  503  502  0.00000000000E+00  0.00000000000E+00  0.25315347208E+03  0.25315347208E+03  0.00000000000E+00 0.  1.
         21   -1    0    0  501  503 -0.00000000000E+00 -0.00000000000E+00 -0.24413086608E+03  0.24413086608E+03  0.00000000000E+00 0. -1.
          6    2    1    2  501    0  0.24133685231E+02  0.13617486246E+03  0.12047547062E+03  0.25008325934E+03  0.17000373424E+03 0.  0.
         24    2    3    3    0    0  0.62682567094E+02  0.35924819069E+02  0.35232557671E+02  0.11288073860E+03  0.79252956938E+02 0.  0.
         -6    2    1    2    0  502 -0.24133685231E+02 -0.13617486246E+03 -0.11145286461E+03  0.24720107881E+03  0.17193197611E+03 0.  0.
        -24    2    5    5    0    0 -0.10109974084E+02 -0.14346559612E+03 -0.35611229593E+02  0.16958753055E+03  0.82505648282E+02 0.  0.
          5    1    3    3  501    0 -0.38548881862E+02  0.10025004339E+03  0.85242912947E+02  0.13720252075E+03  0.47000000000E+01 0. -1.
        -11    1    4    4    0    0  0.21594500952E+02  0.45738950953E+02  0.46981369308E+02  0.69033493086E+02  0.00000000000E+00 0.  1.
         12    1    4    4    0    0  0.41088066142E+02 -0.98141318841E+01 -0.11748811637E+02  0.43847245510E+02  0.00000000000E+00 0. -1.
         -5    1    5    5    0  502 -0.14023711147E+02  0.72907336627E+01 -0.75841635020E+02  0.77613548265E+02  0.47000000000E+01 0.  1.
         13    1    6    6    0    0 -0.31720735719E+02 -0.19498701424E+02  0.45175415131E+01  0.37507500758E+02  0.00000000000E+00 0. -1.
        -14    1    6    6    0    0  0.21610761635E+02 -0.12396689469E+03 -0.40128771106E+02  0.13208002979E+03  0.00000000000E+00 0.  1.
</event>
<event>
12    1  0.8493057E-002  0.2326473E+03  0.7818608E-02  0.1125029E+00
         21   -1    0    0  503  502  0.00000000000E+00  0.00000000000E+00  0.61259538873E+03  0.61259538873E+03  0.00000000000E+00 0. -1.
         21   -1    0    0  501  503 -0.00000000000E+00 -0.00000000000E+00 -0.10813388923E+03  0.10813388923E+03  0.00000000000E+00 0. -1.
          6    2    1    2  501    0  0.60733742296E+02  0.14215649447E+03  0.96693184836E+02  0.25194114471E+03  0.17386118610E+03 0.  0.
         24    2    3    3    0    0  0.48113167002E+02  0.51970296199E+01  0.31505396874E+02  0.99662742986E+02  0.81229221045E+02 0.  0.
         -6    2    1    2    0  502 -0.60733742296E+02 -0.14215649447E+03  0.40776831466E+03  0.46878813324E+03  0.17201819396E+03 0.  0.
        -24    2    5    5    0    0 -0.19538562843E+00 -0.11794376106E+03  0.16510154603E+03  0.21747080458E+03  0.78257660298E+02 0.  0.
          5    1    3    3  501    0  0.12620575293E+02  0.13695946485E+03  0.65187787962E+02  0.15227840172E+03  0.47000000000E+01 0. -1.
        -13    1    4    4    0    0 -0.18225613558E+02 -0.13971225075E+02 -0.17273843653E+01  0.23029372037E+02  0.00000000000E+00 0.  1.
         14    1    4    4    0    0  0.66338780560E+02  0.19168254695E+02  0.33232781239E+02  0.76633370950E+02  0.00000000000E+00 0. -1.
         -5    1    5    5    0  502 -0.60538356667E+02 -0.24212733408E+02  0.24266676863E+03  0.25131732866E+03  0.47000000000E+01 0.  1.
         11    1    6    6    0    0  0.32307810846E+02 -0.87678349906E+02  0.87255547073E+02  0.12784685440E+03  0.00000000000E+00 0. -1.
        -12    1    6    6    0    0 -0.32503196475E+02 -0.30265411155E+02  0.77845998955E+02  0.89623950185E+02  0.00000000000E+00 0.  1.
</event>
<event>
12    1  0.8493057E-002  0.1752381E+03  0.7818608E-02  0.1174386E+00
         21   -1    0    0  503  502  0.00000000000E+00  0.00000000000E+00  0.20075927918E+03  0.20075927918E+03  0.00000000000E+00 0. -1.
         21   -1    0    0  501  503 -0.00000000000E+00 -0.00000000000E+00 -0.18872124762E+03  0.18872124762E+03  0.00000000000E+00 0. -1.
          6    2    1    2  501    0 -0.60161420824E+01 -0.31470859498E+02 -0.85883220453E+02  0.19515200469E+03  0.17228397608E+03 0.  0.
         24    2    3    3    0    0 -0.59349689798E+02  0.11131278443E+02 -0.78500236565E+02  0.12633334501E+03  0.78431727514E+02 0.  0.
         -6    2    1    2    0  502  0.60161420824E+01  0.31470859498E+02  0.97921252018E+02  0.19432852211E+03  0.16476769692E+03 0.  0.
        -24    2    5    5    0    0 -0.33133791203E+02  0.64052361476E+02  0.34628485073E+02  0.11295078625E+03  0.79738290708E+02 0.  0.
          5    1    3    3  501    0  0.53333547715E+02 -0.42602137941E+02 -0.73829838874E+01  0.68818659680E+02  0.47000000000E+01 0. -1.
        -13    1    4    4    0    0 -0.50265911741E+02  0.31264171957E+02 -0.17914248708E+02  0.61846832078E+02  0.00000000000E+00 0.  1.
         14    1    4    4    0    0 -0.90837780569E+01 -0.20132893514E+02 -0.60585987857E+02  0.64486512928E+02  0.00000000000E+00 0. -1.
         -5    1    5    5    0  502  0.39149933285E+02 -0.32581501978E+02  0.63292766945E+02  0.81377735867E+02  0.47000000000E+01 0.  1.
         11    1    6    6    0    0 -0.52938609462E+02  0.45099679738E+02  0.98263589559E+00  0.69551729364E+02  0.00000000000E+00 0. -1.
        -12    1    6    6    0    0  0.19804818259E+02  0.18952681738E+02  0.33645849178E+02  0.43399056882E+02  0.00000000000E+00 0.  1.
</event>
<event>
12    1  0.8493057E-002  0.2436019E+03  0.7818608E-02  0.1117501E+00
         21   -1    0    0  501  502  0.00000000000E+00  0.00000000000E+00  0.79709290190E+02  0.79709290190E+02  0.00000000000E+00 0. -1.
         21   -1    0    0  502  503 -0.00000000000E+00 -0.00000000000E+00 -0.98974926561E+03  0.98974926561E+03  0.00000000000E+00 0.  1.
         -6    2    1    2    0  503 -0.21020007302E+02  0.17028117587E+03 -0.72170481762E+03  0.76154294130E+03  0.17219839752E+03 0.  0.
        -24    2    3    3    0    0 -0.21277312022E+02  0.38398052127E+02 -0.45352496871E+03  0.46265208180E+03  0.80217935237E+02 0.  0.
          6    2    1    2  501    0  0.21020007302E+02 -0.17028117587E+03 -0.18833515780E+03  0.30791561450E+03  0.17292881317E+03 0.  0.
         24    2    5    5    0    0  0.51718832650E+02 -0.89067506504E+02 -0.40595259216E+02  0.13648852911E+03  0.79832857541E+02 0.  0.
          5    1    5    5  501    0 -0.30698825348E+02 -0.81213669369E+02 -0.14773989859E+03  0.17142708539E+03  0.47000000000E+01 0. -1.
        -13    1    6    6    0    0  0.26954743413E+01 -0.68190931245E+02 -0.46939664957E+02  0.82828743998E+02  0.00000000000E+00 0.  1.
         14    1    6    6    0    0  0.49023358309E+02 -0.20876575259E+02  0.63444057410E+01  0.53659785115E+02  0.00000000000E+00 0. -1.
         -5    1    3    3    0  503  0.25730471982E+00  0.13188312375E+03 -0.26817984891E+03  0.29889085951E+03  0.47000000000E+01 0.  1.
         11    1    4    4    0    0  0.77648204128E+00 -0.16921837015E+02 -0.26213228947E+02  0.31210332650E+02  0.00000000000E+00 0. -1.
        -12    1    4    4    0    0 -0.22053794063E+02  0.55319889142E+02 -0.42731173977E+03  0.43144174915E+03  0.00000000000E+00 0.  1.
</event>
<event>
12    1  0.8493057E-002  0.1874133E+03  0.7818608E-02  0.1161116E+00
         21   -1    0    0  503  502  0.00000000000E+00  0.00000000000E+00  0.25920565239E+03  0.25920565239E+03  0.00000000000E+00 0. -1.
         21   -1    0    0  501  503 -0.00000000000E+00 -0.00000000000E+00 -0.14858215723E+03  0.14858215723E+03  0.00000000000E+00 0. -1.
          6    2    1    2  501    0 -0.52292510718E+02  0.53687192236E+02 -0.71428928945E+01  0.18754941831E+03  0.17177584842E+03 0.  0.
         24    2    3    3    0    0 -0.93854808535E+02  0.39580846372E+02  0.25804340161E+02  0.13246744522E+03  0.80662206677E+02 0.  0.
         -6    2    1    2    0  502  0.52292510718E+02 -0.53687192236E+02  0.11776638805E+03  0.22023839132E+03  0.17035024382E+03 0.  0.
        -24    2    5    5    0    0  0.95377396239E+02 -0.10020980594E+02  0.79276879229E+02  0.14766720083E+03  0.79520505882E+02 0.  0.
          5    1    3    3  501    0  0.41562297817E+02  0.14106345864E+02 -0.32947233055E+02  0.55081973090E+02  0.47000000000E+01 0. -1.
        -11    1    4    4    0    0 -0.10348318585E+03  0.43601041156E+02  0.89561457201E+01  0.11265004701E+03  0.00000000000E+00 0.  1.
         12    1    4    4    0    0  0.96283773180E+01 -0.40201947841E+01  0.16848194441E+02  0.19817398209E+02  0.00000000000E+00 0. -1.
         -5    1    5    5    0  502 -0.43084885521E+02 -0.43666211642E+02  0.38489508826E+02  0.72571190490E+02  0.47000000000E+01 0.  1.
         13    1    6    6    0    0  0.35421022759E+02 -0.96969743482E+01  0.79650182917E+02  0.87708789773E+02  0.00000000000E+00 0. -1.
        -14    1    6    6    0    0  0.59956373480E+02 -0.32400624593E+00 -0.37330368825E+00  0.59958411058E+02  0.00000000000E+00 0.  1.
</event>
<event>
12    1  0.8493057E-002  0.1885878E+03  0.7818608E-02  0.1160011E+00
         21   -1    0    0  501  502  0.00000000000E+00  0.00000000000E+00  0.45632359465E+03  0.45632359465E+03  0.00000000000E+00 0.  1.
         21   -1    0    0  502  503 -0.00000000000E+00 -0.00000000000E+00 -0.13287315431E+03  0.13287315431E+03  0.00000000000E+00 0. -1.
         -6    2    1    2    0  503  0.74011146345E+02  0.11116617078E+02 -0.28239194235E+02  0.19069031252E+03  0.17310145649E+03 0.  0.
        -24    2    3    3    0    0  0.10461035754E+03 -0.18897356129E+02  0.13706785093E+02  0.13053463536E+03  0.74504886391E+02 0.  0.
          6    2    1    2  501    0 -0.74011146345E+02 -0.11116617078E+02  0.35168963458E+03  0.39850643643E+03  0.17181545870E+03 0.  0.
         24    2    5    5    0    0 -0.71402693436E+02 -0.48292342427E+02  0.33917849494E+03  0.35891531120E+03  0.79672167150E+02 0.  0.
          5    1    5    5  501    0 -0.26084529095E+01  0.37175725349E+02  0.12511139635E+02  0.39591125227E+02  0.47000000000E+01 0. -1.
        -11    1    6    6    0    0  0.11995831816E+02 -0.27930789008E+02  0.68313225021E+02  0.74771155323E+02  0.00000000000E+00 0.  1.
         12    1    6    6    0    0 -0.83398525251E+02 -0.20361553419E+02  0.27086526992E+03  0.28414415588E+03  0.00000000000E+00 0. -1.
         -5    1    3    3    0  503 -0.30599211197E+02  0.30013973208E+02 -0.41945979327E+02  0.60155677166E+02  0.47000000000E+01 0.  1.
         11    1    4    4    0    0  0.22921754873E+02  0.17799409209E+02 -0.19565769678E+02  0.35000645105E+02  0.00000000000E+00 0. -1.
        -12    1    4    4    0    0  0.81688602669E+02 -0.36696765339E+02  0.33272554770E+02  0.95533990251E+02  0.00000000000E+00 0.  1.
</event>
<event>
12    1  0.8493057E-002  0.3289835E+03  0.7818608E-02  0.1071656E+00
         21   -1    0    0  503  502  0.00000000000E+00  0.00000000000E+00  0.50729317646E+03  0.50729317646E+03  0.00000000000E+00 0.  1.
         21   -1    0    0  501  503 -0.00000000000E+00 -0.00000000000E+00 -0.64584963018E+03  0.64584963018E+03  0.00000000000E+00 0. -1.
          6    2    1    2  501    0  0.57542810773E+02 -0.27340025917E+03 -0.54130090710E+03  0.63311087056E+03  0.17252195689E+03 0.  0.
         24    2    3    3    0    0 -0.28049113313E+02 -0.98536805081E+02 -0.26414476965E+03  0.29437672765E+03  0.79930868487E+02 0.  0.
         -6    2    1    2    0  502 -0.57542810773E+02  0.27340025917E+03  0.40274445338E+03  0.52003193608E+03  0.17369871338E+03 0.  0.
        -24    2    5    5    0    0 -0.45757471563E+02  0.28842863799E+03  0.35175584815E+03  0.46538146258E+03  0.86964956099E+02 0.  0.
          5    1    3    3  501    0  0.85591924086E+02 -0.17486345409E+03 -0.27715613745E+03  0.33873414291E+03  0.47000000000E+01 0. -1.
        -13    1    4    4    0    0  0.14083936244E+02 -0.32446311980E+02 -0.26661880109E+02  0.44294201338E+02  0.00000000000E+00 0.  1.
         14    1    4    4    0    0 -0.42133049558E+02 -0.66090493101E+02 -0.23748288954E+03  0.25008252632E+03  0.00000000000E+00 0. -1.
         -5    1    5    5    0  502 -0.11785339210E+02 -0.15028378823E+02  0.50988605229E+02  0.54650473498E+02  0.47000000000E+01 0.  1.
         11    1    6    6    0    0 -0.46917505006E+02  0.60118572930E+02  0.94194908982E+02  0.12119478522E+03  0.00000000000E+00 0. -1.
        -12    1    6    6    0    0  0.11600334425E+01  0.22831006506E+03  0.25756093917E+03  0.34418667736E+03  0.00000000000E+00 0.  1.
</event>
<event>
12    1  0.8493057E-002  0.2492368E+03  0.7818608E-02  0.1113918E+00
         21   -1    0    0  501  502  0.00000000000E+00  0.00000000000E+00  0.13822067265E+03  0.13822067265E+03  0.00000000000E+00 0. -1.
         21   -1    0    0  502  503 -0.00000000000E+00 -0.00000000000E+00 -0.64276692553E+03  0.64276692553E+03  0.00000000000E+00 0. -1.
         -6    2    1    2    0  503 -0.17715051721E+03 -0.33327085382E+02 -0.46696632728E+03  0.52893354229E+03  0.17093899781E+03 0.  0.
        -24    2    3    3    0    0 -0.18575158861E+03 -0.32356548979E+02 -0.47474736938E+03  0.51638145138E+03  0.75591928557E+02 0.  0.
          6    2    1    2  501    0  0.17715051721E+03  0.33327085382E+02 -0.37579925599E+02  0.25205405589E+03  0.17212203785E+03 0.  0.
         24    2    5    5    0    0  0.16990332082E+03  0.25436773040E+02  0.23180740217E+02  0.19017734465E+03  0.78204270025E+02 0.  0.
          5    1    5    5  501    0  0.72471963912E+01  0.78903123420E+01 -0.60760665816E+02  0.61876711248E+02  0.47000000000E+01 0. -1.
        -11    1    6    6    0    0  0.57494577304E+01  0.96987947092E+01  0.22615049242E+02  0.25269810748E+02  0.00000000000E+00 0.  1.
         12    1    6    6    0    0  0.16415386309E+03  0.15737978330E+02  0.56569097497E+00  0.16490753390E+03  0.00000000000E+00 0. -1.
         -5    1    3    3    0  503  0.86010714011E+01 -0.97053640301E+00  0.77810420938E+01  0.12552090910E+02  0.47000000000E+01 0.  1.
         11    1    4    4    0    0 -0.97216274102E+02 -0.55033469082E+02 -0.26562845702E+03  0.28816343253E+03  0.00000000000E+00 0. -1.
        -12    1    4    4    0    0 -0.88535314512E+02  0.22676920103E+02 -0.20911891235E+03  0.22821801885E+03  0.00000000000E+00 0.  1.
</event>
<event>
12    1  0.8493057E-002  0.1786376E+03  0.7818608E-02  0.1171039E+00
         21   -1    0    0  503  502  0.00000000000E+00  0.00000000000E+00  0.20955166426E+03  0.20955166426E+03  0.00000000000E+00 0.  1.
         21   -1    0    0  501  503 -0.00000000000E+00 -0.00000000000E+00 -0.26733941833E+03  0.26733941833E+03  0.00000000000E+00 0.  1.
          6    2    1    2  501    0 -0.84853043882E+01 -0.46594904795E+00 -0.18996302738E+03  0.26076299921E+03  0.17843534539E+03 0.  0.
         24    2    3    3    0    0 -0.10729178355E+02  0.72318347578E+02 -0.13360697129E+03  0.16856384594E+03  0.72234954941E+02 0.  0.
         -6    2    1    2    0  502  0.84853043882E+01  0.46594904795E+00  0.13217527330E+03  0.21612808338E+03  0.17078884054E+03 0.  0.
        -24    2    5    5    0    0  0.77462003077E+01 -0.88972045688E+01 -0.79389018772E+00  0.82744788471E+02  0.81895701286E+02 0.  0.
          5    1    3    3  501    0  0.22438739666E+01 -0.72784296626E+02 -0.56356056084E+02  0.92199153267E+02  0.47000000000E+01 0. -1.
        -11    1    4    4    0    0  0.28155290811E+02  0.37701478757E+02 -0.85933247895E+02  0.97972674736E+02  0.00000000000E+00 0.  1.
         12    1    4    4    0    0 -0.38884469166E+02  0.34616868821E+02 -0.47673723397E+02  0.70591171203E+02  0.00000000000E+00 0. -1.
         -5    1    5    5    0  502  0.73910408055E+00  0.93631536167E+01  0.13296916349E+03  0.13338329491E+03  0.47000000000E+01 0.  1.
         13    1    6    6    0    0 -0.25291301381E+02 -0.28061438760E+02 -0.16785943401E+02  0.41338386116E+02  0.00000000000E+00 0. -1.
        -14    1    6    6    0    0  0.33037501689E+02  0.19164234192E+02  0.15992053213E+02  0.41406402355E+02  0.00000000000E+00 0.  1.
</event>
<event>
12    1  0.8493057E-002  0.2379527E+03  0.7818608E-02  0.1121635E+00
         21   -1    0    0  503  502  0.00000000000E+00  0.00000000000E+00  0.18575344992E+03  0.18575344992E+03  0.00000000000E+00 0. -1.
         21   -1    0    0  501  503 -0.00000000000E+00 -0.00000000000E+00 -0.40926694912E+03  0.40926694912E+03  0.00000000000E+00 0. -1.
          6    2    1    2  501    0  0.15741069706E+03 -0.51566047214E+02 -0.26506570414E+03  0.35620401162E+03  0.17083408795E+03 0.  0.
         24    2    3    3    0    0  0.16152971645E+03 -0.72927580767E+02 -0.16684593964E+03  0.25549406387E+03  0.77649003644E+02 0.  0.
         -6    2    1    2    0  502 -0.15741069706E+03  0.51566047214E+02  0.41552204941E+02  0.23881638743E+03  0.16694159576E+03 0.  0.
        -24    2    5    5    0    0 -0.29678462351E+02  0.61536366148E+02  0.15689478488E+02  0.10802685550E+03  0.82195536910E+02 0.  0.
          5    1    3    3  501    0 -0.41190193892E+01  0.21361533553E+02 -0.98219764500E+02  0.10070994775E+03  0.47000000000E+01 0. -1.
        -13    1    4    4    0    0  0.10080288230E+03 -0.66372017998E+02 -0.14922525592E+03  0.19192353388E+03  0.00000000000E+00 0.  1.
         14    1    4    4    0    0  0.60726834145E+02 -0.65555627685E+01 -0.17620683723E+02  0.63570529991E+02  0.00000000000E+00 0. -1.
         -5    1    5    5    0  502 -0.12773223471E+03 -0.99703189345E+01  0.25862726453E+02  0.13078953193E+03  0.47000000000E+01 0.  1.
         13    1    6    6    0    0 -0.52067355061E+02  0.20340207325E+02  0.23236303009E+02  0.60536429318E+02  0.00000000000E+00 0. -1.
        -14    1    6    6    0    0  0.22388892710E+02  0.41196158824E+02 -0.75468245217E+01  0.47490426182E+02  0.00000000000E+00 0.  1.
</event>
<event>
12    1  0.8493057E-002  0.4253795E+03  0.7818608E-02  0.1035340E+00
         21   -1    0    0  503  502  0.00000000000E+00  0.00000000000E+00  0.50272179728E+03  0.50272179728E+03  0.00000000000E+00 0.  1.
         21   -1    0    0  501  503 -0.00000000000E+00 -0.00000000000E+00 -0.36499248704E+03  0.36499248704E+03  0.00000000000E+00 0. -1.
          6    2    1    2  501    0 -0.34610810176E+02 -0.38773466394E+03  0.17245662641E+02  0.42572898590E+03  0.17149833456E+03 0.  0.
         24    2    3    3    0    0 -0.77497792825E+02 -0.30396297619E+03 -0.19846761204E+02  0.32446237317E+03  0.80514215402E+02 0.  0.
         -6    2    1    2    0  502  0.34610810176E+02  0.38773466394E+03  0.12048364760E+03  0.44198529841E+03  0.17116838748E+03 0.  0.
        -24    2    5    5    0    0  0.70521364355E+02  0.32869897899E+03  0.61555808035E+02  0.35104927544E+03  0.80188494575E+02 0.  0.
          5    1    3    3  501    0  0.42886982649E+02 -0.83771687743E+02  0.37092423845E+02  0.10126661274E+03  0.47000000000E+01 0. -1.
        -13    1    4    4    0    0 -0.10862118883E+02 -0.53357577115E+02 -0.34960553191E+02  0.64709017467E+02  0.00000000000E+00 0.  1.
         14    1    4    4    0    0 -0.66635673943E+02 -0.25060539908E+03  0.15113791987E+02  0.25975335570E+03  0.00000000000E+00 0. -1.
         -5    1    5    5    0  502 -0.35910554179E+02  0.59035684941E+02  0.58927839563E+02  0.90936022969E+02  0.47000000000E+01 0.  1.
         13    1    6    6    0    0  0.30829506565E+02  0.28174411662E+02  0.14915611117E+02  0.44347845523E+02  0.00000000000E+00 0. -1.
        -14    1    6    6    0    0  0.39691857790E+02  0.30052456733E+03  0.46640196919E+02  0.30670142992E+03  0.00000000000E+00 0.  1.
</event>
<event>
12    1  0.8493057E-002  0.1865109E+03  0.7818608E-02  0.1162315E+00
         21   -1    0    0  501  502  0.00000000000E+00  0.00000000000E+00  0.73981300468E+02  0.73981300468E+02  0.00000000000E+00 0. -1.
         21   -1    0    0  502  503 -0.00000000000E+00 -0.00000000000E+00 -0.48473239663E+03  0.48473239663E+03  0.00000000000E+00 0. -1.
         -6    2    1    2    0  503  0.98685723378E+01  0.70999162805E+02 -0.26605073783E+03  0.32491432852E+03  0.17218610844E+03 0.  0.
        -24    2    3    3    0    0 -0.34506438027E+02  0.91280541625E+02 -0.23429484788E+03  0.26651054082E+03  0.81307816840E+02 0.  0.
          6    2    1    2  501    0 -0.98685723378E+01 -0.70999162805E+02 -0.14470035833E+03  0.23379936858E+03  0.16907300555E+03 0.  0.
         24    2    5    5    0    0 -0.33728712348E+02 -0.12966699979E+02 -0.14676570351E+02  0.89350940189E+02  0.80389224715E+02 0.  0.
          5    1    5    5  501    0  0.23860140010E+02 -0.58032462825E+02 -0.13002378798E+03  0.14444842839E+03  0.47000000000E+01 0. -1.
        -11    1    6    6    0    0 -0.67549583544E+00  0.30617076636E+02  0.53733945799E+01  0.31092363141E+02  0.00000000000E+00 0.  1.
         12    1    6    6    0    0 -0.33053216512E+02 -0.43583776616E+02 -0.20049964931E+02  0.58258577048E+02  0.00000000000E+00 0. -1.
         -5    1    3    3    0  503  0.44375010364E+02 -0.20281378820E+02 -0.31755889951E+02  0.58403787705E+02  0.47000000000E+01 0.  1.
         13    1    4    4    0    0  0.20777312568E+01  0.49455355389E+02 -0.18731489757E+03  0.19374472895E+03  0.00000000000E+00 0. -1.
        -14    1    4    4    0    0 -0.36584169283E+02  0.41825186235E+02 -0.46979950309E+02  0.72765811868E+02  0.00000000000E+00 0.  1.
</event>
<event>
12    1  0.8493057E-002  0.2010499E+03  0.7818608E-02  0.1148862E+00
         21   -1    0    0  503  502  0.00000000000E+00  0.00000000000E+00  0.10067466716E+03  0.10067466716E+03  0.00000000000E+00 0. -1.
         21   -1    0    0  501  503 -0.00000000000E+00 -0.00000000000E+00 -0.43601566048E+03  0.43601566048E+03  0.00000000000E+00 0.  1.
          6    2    1    2  501    0  0.10490260953E+03 -0.37930047628E+01 -0.24321729024E+03  0.31553916654E+03  0.17143911742E+03 0.  0.
         24    2    3    3    0    0  0.90930540887E+02 -0.63966164990E+02 -0.14600450499E+03  0.20026365514E+03  0.80175947540E+02 0.  0.
         -6    2    1    2    0  502 -0.10490260953E+03  0.37930047628E+01 -0.92123703085E+02  0.22115116110E+03  0.17147044939E+03 0.  0.
        -24    2    5    5    0    0 -0.12227015402E+03  0.22123197808E+02 -0.26345775537E+02  0.15053633736E+03  0.80793951075E+02 0.  0.
          5    1    3    3  501    0  0.13972068642E+02  0.60173160227E+02 -0.97212785246E+02  0.11527551140E+03  0.47000000000E+01 0. -1.
        -13    1    4    4    0    0 -0.12010018853E+01 -0.31573922116E+02 -0.69021211988E+02  0.75909700748E+02  0.00000000000E+00 0.  1.
         14    1    4    4    0    0  0.92131542773E+02 -0.32392242874E+02 -0.76983293001E+02  0.12435395439E+03  0.00000000000E+00 0. -1.
         -5    1    5    5    0  502  0.17367544495E+02 -0.18330193045E+02 -0.65777927549E+02  0.70614823737E+02  0.47000000000E+01 0.  1.
         13    1    6    6    0    0 -0.45090678836E+02  0.32200079313E+02 -0.43966269743E+02  0.70732222507E+02  0.00000000000E+00 0. -1.
        -14    1    6    6    0    0 -0.77179475188E+02 -0.10076881505E+02  0.17620494206E+02  0.79804114852E+02  0.00000000000E+00 0.  1.
</event>
<event>
12    1  0.8493057E-002  0.1823885E+03  0.7818608E-02  0.1165538E+00
         21   -1    0    0  501  502  0.00000000000E+00  0.00000000000E+00  0.94835545166E+03  0.94835545166E+03  0.00000000000E+00 0. -1.
         21   -1    0    0  502  503 -0.00000000000E+00 -0.00000000000E+00 -0.38654926883E+02  0.38654926883E+02  0.00000000000E+00 0. -1.
         -6    2    1    2    0  503  0.53555539722E+02  0.24157222622E+02  0.60532171151E+03  0.63216951138E+03  0.17254607919E+03 0.  0.
        -24    2    3    3    0    0 -0.21503634390E+02  0.41487136782E+02  0.44193437134E+03  0.45147164622E+03  0.79605715613E+02 0.  0.
          6    2    1    2  501    0 -0.53555539722E+02 -0.24157222622E+02  0.30437881327E+03  0.35484086717E+03  0.17266676521E+03 0.  0.
         24    2    5    5    0    0 -0.94586758462E+02 -0.36540512536E+02  0.16321524405E+03  0.20723954585E+03  0.77634718663E+02 0.  0.
          5    1    5    5  501    0  0.41031218740E+02  0.12383289914E+02  0.14116356922E+03  0.14760132132E+03  0.47000000000E+01 0. -1.
        -11    1    6    6    0    0 -0.61085317896E+02 -0.28424182011E+02  0.15878206837E+03  0.17248505855E+03  0.00000000000E+00 0.  1.
         12    1    6    6    0    0 -0.33501440566E+02 -0.81163305246E+01  0.44331756766E+01  0.34754487304E+02  0.00000000000E+00 0. -1.
         -5    1    3    3    0  503  0.75059174112E+02 -0.17329914159E+02  0.16338734017E+03  0.18069786515E+03  0.47000000000E+01 0.  1.
         13    1    4    4    0    0  0.24634306538E+02  0.38965817734E+02  0.22171600104E+03  0.22645787495E+03  0.00000000000E+00 0. -1.
        -14    1    4    4    0    0 -0.46137940928E+02  0.25213190477E+01  0.22021837030E+03  0.22501377127E+03  0.00000000000E+00 0.  1.
</event>
<event>
12    1  0.8493057E-002  0.2620393E+03  0.7818608E-02  0.1105938E+00
         21   -1    0    0  501  502  0.00000000000E+00  0.00000000000E+00  0.34142134396E+02  0.34142134396E+02  0.00000000000E+00 0.  1.
         21   -1    0    0  502  503 -0.00000000000E+00 -0.00000000000E+00 -0.28255184018E+04  0.28255184018E+04  0.00000000000E+00 0. -1.
         -6    2    1    2    0  503  0.19527801732E+03  0.19221951296E+02 -0.21638287995E+04  0.21796375059E+04  0.17367094195E+03 0.  0.
        -24    2    3    3    0    0  0.18235234796E+03 -0.14043315158E+02 -0.20649003935E+04  0.20743637181E+04  0.75641300937E+02 0.  0.
          6    2    1    2  501    0 -0.19527801732E+03 -0.19221951296E+02 -0.62754746792E+03  0.68002303032E+03  0.17352956467E+03 0.  0.
         24    2    5    5    0    0 -0.10336369396E+03  0.43862639681E+02 -0.44812485838E+03  0.46873537978E+03  0.79303109457E+02 0.  0.
          5    1    5    5  501    0 -0.91914323360E+02 -0.63084590977E+02 -0.17942260954E+03  0.21128765054E+03  0.47000000000E+01 0. -1.
        -11    1    6    6    0    0 -0.82819121645E+02  0.10995810409E+02 -0.18785476471E+03  0.20559505680E+03  0.00000000000E+00 0.  1.
         12    1    6    6    0    0 -0.20544572316E+02  0.32866829273E+02 -0.26027009368E+03  0.26314032298E+03  0.00000000000E+00 0. -1.
         -5    1    3    3    0  503  0.12925669357E+02  0.33265266454E+02 -0.98928405978E+02  0.10527378776E+03  0.47000000000E+01 0.  1.
         11    1    4    4    0    0  0.10556986109E+03 -0.17204566416E+02 -0.79826628533E+03  0.80540055561E+03  0.00000000000E+00 0. -1.
        -12    1    4    4    0    0  0.76782486870E+02  0.31612512581E+01 -0.12666341082E+04  0.12689631625E+04  0.00000000000E+00 0.  1.
</event>
<event>
12    1  0.8493057E-002  0.3021212E+03  0.7818608E-02  0.1084251E+00
         21   -1    0    0  501  502  0.00000000000E+00  0.00000000000E+00  0.10778566497E+03  0.10778566497E+03  0.00000000000E+00 0. -1.
         21   -1    0    0  502  503 -0.00000000000E+00 -0.00000000000E+00 -0.21555367244E+04  0.21555367244E+04  0.00000000000E+00 0.  1.
         -6    2    1    2    0  503  0.15081940324E+03  0.19579310853E+03 -0.14195051716E+03  0.33380709092E+03  0.17376936118E+03 0.  0.
        -24    2    3    3    0    0  0.75383669054E+02  0.18908560665E+03 -0.72079885726E+02  0.23065896582E+03  0.81067776496E+02 0.  0.
          6    2    1    2  501    0 -0.15081940324E+03 -0.19579310853E+03 -0.19058005423E+04  0.19295152985E+04  0.17283560484E+03 0.  0.
         24    2    5    5    0    0 -0.18139277725E+03 -0.15653047315E+03 -0.16851770764E+04  0.17033006008E+04  0.63293200573E+02 0.  0.
          5    1    5    5  501    0  0.30573374012E+02 -0.39262635382E+02 -0.22062346589E+03  0.22621469766E+03  0.47000000000E+01 0. -1.
        -13    1    6    6    0    0 -0.27812191985E+02 -0.50704359339E+02 -0.28980242811E+03  0.29551632344E+03  0.00000000000E+00 0.  1.
         14    1    6    6    0    0 -0.15358058527E+03 -0.10582611381E+03 -0.13953746483E+04  0.14077842774E+04  0.00000000000E+00 0. -1.
         -5    1    3    3    0  503  0.75435734186E+02  0.67075018821E+01 -0.69870631435E+02  0.10314812510E+03  0.47000000000E+01 0.  1.
         13    1    4    4    0    0  0.39576453209E+02  0.39710902789E+02  0.92935418231E+01  0.56829757773E+02  0.00000000000E+00 0. -1.
        -14    1    4    4    0    0  0.35807215845E+02  0.14937470386E+03 -0.81373427549E+02  0.17382920805E+03  0.00000000000E+00 0.  1.
</event>
<event>
12    1  0.8493057E-002  0.2370595E+03  0.7818608E-02  0.1121784E+00
         21   -1    0    0  503  502  0.00000000000E+00  0.00000000000E+00  0.64584985766E+03  0.64584985766E+03  0.00000000000E+00 0. -1.
         21   -1    0    0  501  503 -0.00000000000E+00 -0.00000000000E+00 -0.11230403011E+03  0.11230403011E+03  0.00000000000E+00 0.  1.
          6    2    1    2  501    0  0.10957163688E+03  0.11902530345E+03  0.86791824281E+02  0.25244808776E+03  0.17327506970E+03 0.  0.
         24    2    3    3    0    0  0.14642030996E+03  0.97792611856E+02  0.65049349359E+02  0.20445353477E+03  0.81040285822E+02 0.  0.
         -6    2    1    2    0  502 -0.10957163688E+03 -0.11902530345E+03  0.44675400327E+03  0.50570580001E+03  0.17313650757E+03 0.  0.
        -24    2    5    5    0    0 -0.12530209042E+03 -0.13746673607E+03  0.33381999284E+03  0.39010426751E+03  0.78408127881E+02 0.  0.
          5    1    3    3  501    0 -0.36848673082E+02  0.21232691596E+02  0.21742474922E+02  0.47994552983E+02  0.47000000000E+01 0. -1.
        -11    1    4    4    0    0  0.51996033852E+02  0.82669848707E+02  0.25242692647E+02  0.10087162611E+03  0.00000000000E+00 0.  1.
         12    1    4    4    0    0  0.94424276110E+02  0.15122763149E+02  0.39806656712E+02  0.10358190867E+03  0.00000000000E+00 0. -1.
         -5    1    5    5    0  502  0.15730453539E+02  0.18441432615E+02  0.11293401043E+03  0.11560153250E+03  0.47000000000E+01 0.  1.
         11    1    6    6    0    0 -0.15306573099E+02 -0.67740337330E+02  0.14441077776E+03  0.16024205820E+03  0.00000000000E+00 0. -1.
        -12    1    6    6    0    0 -0.10999551732E+03 -0.69726398738E+02  0.18940921508E+03  0.22986220931E+03  0.00000000000E+00 0.  1.
</event>
<event>
12    1  0.8493057E-002  0.1739727E+03  0.7818608E-02  0.1174111E+00
         21   -1    0    0  501  502  0.00000000000E+00  0.00000000000E+00  0.11115373824E+03  0.11115373824E+03  0.00000000000E+00 0. -1.
         21   -1    0    0  502  503 -0.00000000000E+00 -0.00000000000E+00 -0.30043294615E+03  0.30043294615E+03  0.00000000000E+00 0. -1.
         -6    2    1    2    0  503 -0.28453181426E+02  0.13507170208E+02 -0.15961128686E+03  0.23510246666E+03  0.16972147701E+03 0.  0.
        -24    2    3    3    0    0  0.99486165514E+01 -0.38713432365E+02 -0.14245769626E+03  0.16788621051E+03  0.79333975310E+02 0.  0.
          6    2    1    2  501    0  0.28453181426E+02 -0.13507170208E+02 -0.29667921056E+02  0.17648421772E+03  0.17109782694E+03 0.  0.
         24    2    5    5    0    0 -0.38032181807E+01 -0.16713926775E+02 -0.80611667835E+02  0.11591926136E+03  0.81518184145E+02 0.  0.
          5    1    5    5  501    0  0.32256399607E+02  0.32067565665E+01  0.50943746779E+02  0.60564956362E+02  0.47000000000E+01 0. -1.
        -13    1    6    6    0    0  0.27138887744E+02 -0.24858153566E+02 -0.74850292394E+02  0.83408712364E+02  0.00000000000E+00 0.  1.
         14    1    6    6    0    0 -0.30942105924E+02  0.81442267912E+01 -0.57613754405E+01  0.32510548996E+02  0.00000000000E+00 0. -1.
         -5    1    3    3    0  503 -0.38401797977E+02  0.52220602573E+02 -0.17153590591E+02  0.67216256152E+02  0.47000000000E+01 0.  1.
         11    1    4    4    0    0 -0.20623774750E+02 -0.21826394554E+02 -0.12553416726E+03  0.12907578679E+03  0.00000000000E+00 0. -1.
        -12    1    4    4    0    0  0.30572391301E+02 -0.16887037811E+02 -0.16923529000E+02  0.38810423725E+02  0.00000000000E+00 0.  1.
</event>
<event>
12    1  0.8493057E-002  0.2509536E+03  0.7818608E-02  0.1113114E+00
         21   -1    0    0  501  502  0.00000000000E+00  0.00000000000E+00  0.62745062418E+03  0.62745062418E+03  0.00000000000E+00 0. -1.
         21   -1    0    0  502  503 -0.00000000000E+00 -0.00000000000E+00 -0.17708745075E+03  0.17708745075E+03  0.00000000000E+00 0.  1.
         -6    2    1    2    0  503  0.15644414820E+03 -0.92792155806E+02 -0.42023110637E+02  0.25188810891E+03  0.16910506172E+03 0.  0.
        -24    2    3    3    0    0  0.10142658691E+03 -0.20465133004E+02  0.32210287846E+02  0.13445379652E+03  0.79587351719E+02 0.  0.
          6    2    1    2  501    0 -0.15644414820E+03  0.92792155806E+02  0.49238628407E+03  0.55264996602E+03  0.17289469779E+03 0.  0.
         24    2    5    5    0    0 -0.12779095215E+03  0.81844025982E+02  0.22208459908E+03  0.28057284810E+03  0.79815925112E+02 0.  0.
          5    1    5    5  501    0 -0.28653196049E+02  0.10948129824E+02  0.27030168499E+03  0.27207711792E+03  0.47000000000E+01 0. -1.
        -13    1    6    6    0    0  0.17127346335E+01  0.26330111992E+02  0.15782060227E+02  0.30745433522E+02  0.00000000000E+00 0.  1.
         14    1    6    6    0    0 -0.12950368679E+03  0.55513913990E+02  0.20630253885E+03  0.24982741458E+03  0.00000000000E+00 0. -1.
         -5    1    3    3    0  503  0.55017561291E+02 -0.72327022803E+02 -0.74233398483E+02  0.11743431240E+03  0.47000000000E+01 0.  1.
         11    1    4    4    0    0  0.23237832859E+01  0.65477063402E+01 -0.18600233387E+02  0.19855505764E+02  0.00000000000E+00 0. -1.
        -12    1    4    4    0    0  0.99102803624E+02 -0.27012839344E+02  0.50810521233E+02  0.11459829075E+03  0.00000000000E+00 0.  1.
</event>
<event>
12    1  0.8493057E-002  0.1806901E+03  0.7818608E-02  0.1168587E+00
         21   -1    0    0  503  502  0.00000000000E+00  0.00000000000E+00  0.65122770588E+03  0.65122770588E+03  0.00000000000E+00 0. -1.
         21   -1    0    0  501  503 -0.00000000000E+00 -0.00000000000E+00 -0.49070630969E+02  0.49070630969E+02  0.00000000000E+00 0. -1.
          6    2    1    2  501    0 -0.47033958712E+02 -0.69643725370E+01  0.33367823077E+03  0.37667846958E+03  0.16818089070E+03 0.  0.
         24    2    3    3    0    0 -0.24814954733E+02 -0.34857619342E+01  0.34221150598E+03  0.35216945786E+03  0.79288584961E+02 0.  0.
         -6    2    1    2    0  502  0.47033958712E+02  0.69643725370E+01  0.26847884415E+03  0.32361986728E+03  0.17432221024E+03 0.  0.
        -24    2    5    5    0    0  0.91748819538E+01 -0.47981093121E+02  0.78257170088E+02  0.12197986834E+03  0.79803131855E+02 0.  0.
          5    1    3    3  501    0 -0.22219003980E+02 -0.34786106028E+01 -0.85332752158E+01  0.24509011720E+02  0.47000000000E+01 0. -1.
        -11    1    4    4    0    0 -0.39908828928E+02 -0.20027934001E+02  0.10767695508E+03  0.11656826078E+03  0.00000000000E+00 0.  1.
         12    1    4    4    0    0  0.15093874196E+02  0.16542172066E+02  0.23453455091E+03  0.23560119708E+03  0.00000000000E+00 0. -1.
         -5    1    5    5    0  502  0.37859076759E+02  0.54945465658E+02  0.19022167406E+03  0.20163999894E+03  0.47000000000E+01 0.  1.
         13    1    6    6    0    0  0.19119450670E+02 -0.42275533994E+02  0.92626270391E+02  0.10359729791E+03  0.00000000000E+00 0. -1.
        -14    1    6    6    0    0 -0.99445687161E+01 -0.57055591264E+01 -0.14369100303E+02  0.18382570425E+02  0.00000000000E+00 0.  1.
</event>
<event>
12    1  0.8493057E-002  0.1941661E+03  0.7818608E-02  0.1154971E+00
         21   -1    0    0  501  502  0.00000000000E+00  0.00000000000E+00  0.10019653766E+03  0.10019653766E+03  0.00000000000E+00 0. -1.
         21   -1    0    0  502  503 -0.00000000000E+00 -0.00000000000E+00 -0.40357606103E+03  0.40357606103E+03  0.00000000000E+00 0. -1.
         -6    2    1    2    0  503 -0.64141815293E+02  0.60932022141E+02 -0.21979136024E+03  0.29327242601E+03  0.17283978140E+03 0.  0.
        -24    2    3    3    0    0 -0.10100142547E+03  0.88230412406E+02 -0.14486852790E+03  0.20529882896E+03  0.56345587021E+02 0.  0.
          6    2    1    2  501    0  0.64141815293E+02 -0.60932022141E+02 -0.83588163135E+02  0.21050017268E+03  0.17174532858E+03 0.  0.
         24    2    5    5    0    0  0.71243301154E+02 -0.44483793022E+02 -0.12336887809E+03  0.16661884834E+03  0.74077963932E+02 0.  0.
          5    1    5    5  501    0 -0.71014858608E+01 -0.16448229119E+02  0.39780714958E+02  0.43881324333E+02  0.47000000000E+01 0. -1.
        -11    1    6    6    0    0  0.25224526702E+02  0.62581800767E+01 -0.83297402319E+02  0.87257657534E+02  0.00000000000E+00 0.  1.
         12    1    6    6    0    0  0.46018774452E+02 -0.50741973098E+02 -0.40071475774E+02  0.79361190809E+02  0.00000000000E+00 0. -1.
         -5    1    3    3    0  503  0.36859610175E+02 -0.27298390265E+02 -0.74922832334E+02  0.87973597052E+02  0.47000000000E+01 0.  1.
         11    1    4    4    0    0 -0.91871870715E+02  0.49102743128E+02 -0.11546052677E+03  0.15550772731E+03  0.00000000000E+00 0. -1.
        -12    1    4    4    0    0 -0.91295547523E+01  0.39127669277E+02 -0.29408001135E+02  0.49791101653E+02  0.00000000000E+00 0.  1.
</event>
<event>
12    1  0.8493057E-002  0.2772201E+03  0.7818608E-02  0.1097498E+00
         21   -1    0    0  503  502  0.00000000000E+00  0.00000000000E+00  0.43120791967E+03  0.43120791967E+03  0.00000000000E+00 0.  1.
         21   -1    0    0  501  503 -0.00000000000E+00 -0.00000000000E+00 -0.18685543061E+03  0.18685543061E+03  0.00000000000E+00 0. -1.
          6    2    1    2  501    0  0.74491495951E+01  0.21505559031E+03  0.51355244963E+02  0.28193675621E+03  0.17477578941E+03 0.  0.
         24    2    3    3    0    0  0.27821146658E+02  0.22295747620E+03  0.13936232143E+02  0.23835085728E+03  0.78312580129E+02 0.  0.
         -6    2    1    2    0  502 -0.74491495951E+01 -0.21505559031E+03  0.19299724409E+03  0.33612659407E+03  0.17154811062E+03 0.  0.
        -24    2    5    5    0    0 -0.19703160575E+02 -0.11185503606E+03  0.28973298519E+02  0.14189358991E+03  0.79966087825E+02 0.  0.
          5    1    3    3  501    0 -0.20371997063E+02 -0.79018858864E+01  0.37419012820E+02  0.43585898927E+02  0.47000000000E+01 0. -1.
        -13    1    4    4    0    0  0.27061839204E+02  0.29421449390E+02  0.20041257239E+02  0.44717075229E+02  0.00000000000E+00 0.  1.
         14    1    4    4    0    0  0.75930745406E+00  0.19353602681E+03 -0.61050250956E+01  0.19363378205E+03  0.00000000000E+00 0. -1.
         -5    1    5    5    0  502  0.12254010980E+02 -0.10320055425E+03  0.16402394557E+03  0.19423300416E+03  0.47000000000E+01 0.  1.
         13    1    6    6    0    0  0.18031892248E+02 -0.59806224298E+02 -0.14702457228E+02  0.64172391660E+02  0.00000000000E+00 0. -1.
        -14    1    6    6    0    0 -0.37735052823E+02 -0.52048811761E+02  0.43675755747E+02  0.77721198250E+02  0.00000000000E+00 0.  1.
</event>
<event>
12    1  0.8493057E-002  0.2517636E+03  0.7818608E-02  0.1112491E+00
         21   -1    0    0  503  502  0.00000000000E+00  0.00000000000E+00  0.11897084229E+04  0.11897084229E+04  0.00000000000E+00 0.  1.
         21   -1    0    0  501  503 -0.00000000000E+00 -0.00000000000E+00 -0.11447509137E+03  0.11447509137E+03  0.00000000000E+00 0.  1.
          6    2    1    2  501    0 -0.16630899317E+03  0.78225061124E+02  0.58363510824E+02  0.25661052792E+03  0.16930688778E+03 0.  0.
         24    2    3    3    0    0 -0.15031461072E+03  0.31914120076E+02 -0.30267350558E+01  0.17792523184E+03  0.89639465330E+02 0.  0.
         -6    2    1    2    0  502  0.16630899317E+03 -0.78225061124E+02  0.10168698208E+04  0.10475729864E+04  0.17206710343E+03 0.  0.
        -24    2    5    5    0    0  0.93471279531E+02 -0.81360055850E+02  0.39320406844E+03  0.41964287776E+03  0.78322197608E+02 0.  0.
          5    1    3    3  501    0 -0.15994382452E+02  0.46310941048E+02  0.61390245880E+02  0.78685296085E+02  0.47000000000E+01 0. -1.
        -11    1    4    4    0    0 -0.74752290565E+02  0.48673604092E+02  0.29522964258E+02  0.93960790219E+02  0.00000000000E+00 0.  1.
         12    1    4    4    0    0 -0.75562320152E+02 -0.16759484016E+02 -0.32549699313E+02  0.83964441621E+02  0.00000000000E+00 0. -1.
         -5    1    5    5    0  502  0.72837713637E+02  0.31349947262E+01  0.62366575232E+03  0.62793010864E+03  0.47000000000E+01 0.  1.
         13    1    6    6    0    0  0.15585119990E+02 -0.30728456627E+02  0.22382506350E+03  0.22646146043E+03  0.00000000000E+00 0. -1.
        -14    1    6    6    0    0  0.77886159542E+02 -0.50631599223E+02  0.16937900494E+03  0.19318141733E+03  0.00000000000E+00 0.  1.
</event>
<event>
12    1  0.8493057E-002  0.1733306E+03  0.7818608E-02  0.1174513E+00
         21   -1    0    0  501  502  0.00000000000E+00  0.00000000000E+00  0.74797563432E+02  0.74797563432E+02  0.00000000000E+00 0. -1.
         21   -1    0    0  502  503 -0.00000000000E+00 -0.00000000000E+00 -0.42075096823E+03  0.42075096823E+03  0.00000000000E+00 0. -1.
         -6    2    1    2    0  503  0.83167116858E+01  0.11167855543E+02 -0.22674487511E+03  0.28518176773E+03  0.17239928528E+03 0.  0.
        -24    2    3    3    0    0  0.67900252267E+02  0.87006019921E+00 -0.18592021105E+03  0.21207235594E+03  0.76139070216E+02 0.  0.
          6    2    1    2  501    0 -0.83167116858E+01 -0.11167855543E+02 -0.11920852969E+03  0.21036676393E+03  0.17277040582E+03 0.  0.
         24    2    5    5    0    0 -0.28368764898E+02 -0.67457559912E+02 -0.48209544701E+02  0.11744980356E+03  0.78198381979E+02 0.  0.
          5    1    5    5  501    0  0.20052053212E+02  0.56289704370E+02 -0.70998984986E+02  0.92916960374E+02  0.47000000000E+01 0. -1.
        -13    1    6    6    0    0  0.11534099216E+02 -0.61489510204E+02 -0.12996028427E+02  0.63897512195E+02  0.00000000000E+00 0.  1.
         14    1    6    6    0    0 -0.39902864114E+02 -0.59680497088E+01 -0.35213516273E+02  0.53552291362E+02  0.00000000000E+00 0. -1.
         -5    1    3    3    0  503 -0.59583540581E+02  0.10297795344E+02 -0.40824664062E+02  0.73109411794E+02  0.47000000000E+01 0.  1.
         11    1    4    4    0    0  0.67793376593E+02 -0.24614219476E+02 -0.10618047389E+03  0.12835924098E+03  0.00000000000E+00 0. -1.
        -12    1    4    4    0    0  0.10687567411E+00  0.25484279675E+02 -0.79739737162E+02  0.83713114956E+02  0.00000000000E+00 0.  1.
</event>
<event>
12    1  0.8493057E-002  0.1871633E+03  0.7818608E-02  0.1163287E+00
         21   -1    0    0  501  502  0.00000000000E+00  0.00000000000E+00  0.40584902004E+03  0.40584902004E+03  0.00000000000E+00 0. -1.
         21   -1    0    0  502  503 -0.00000000000E+00 -0.00000000000E+00 -0.18315917046E+03  0.18315917046E+03  0.00000000000E+00 0.  1.
         -6    2    1    2    0  503 -0.24285263229E+02 -0.26538086602E+02 -0.10619758006E+03  0.21519297484E+03  0.18367374979E+03 0.  0.
        -24    2    3    3    0    0 -0.87455574640E+02 -0.17721571642E+02 -0.72625233400E+02  0.14296132222E+03  0.84858608803E+02 0.  0.
          6    2    1    2  501    0  0.24285263229E+02  0.26538086602E+02  0.32888742964E+03  0.37381521566E+03  0.17400238514E+03 0.  0.
         24    2    5    5    0    0 -0.33358898445E+02  0.92367948268E+01  0.77075965611E+02  0.11486872024E+03  0.77820202592E+02 0.  0.
          5    1    5    5  501    0  0.57644161674E+02  0.17301291776E+02  0.25181146403E+03  0.25894649542E+03  0.47000000000E+01 0. -1.
        -11    1    6    6    0    0 -0.31072531293E+01 -0.28054250605E+02  0.55417610478E+02  0.62191700010E+02  0.00000000000E+00 0.  1.
         12    1    6    6    0    0 -0.30251645316E+02  0.37291045431E+02  0.21658355133E+02  0.52677020234E+02  0.00000000000E+00 0. -1.
         -5    1    3    3    0  503  0.63170311412E+02 -0.88165149603E+01 -0.33572346656E+02  0.72231652618E+02  0.47000000000E+01 0.  1.
         13    1    4    4    0    0 -0.80185642345E+01 -0.34571762613E+02 -0.23443132413E+01  0.35566837744E+02  0.00000000000E+00 0. -1.
        -14    1    4    4    0    0 -0.79437010406E+02  0.16850190971E+02 -0.70280920159E+02  0.10739448448E+03  0.00000000000E+00 0.  1.
</event>
<event>
12    1  0.8493057E-002  0.2296555E+03  0.7818608E-02  0.1127103E+00
         21   -1    0    0  503  502  0.00000000000E+00  0.00000000000E+00  0.22861121437E+03  0.22861121437E+03  0.00000000000E+00 0.  1.
         21   -1    0    0  501  503 -0.00000000000E+00 -0.00000000000E+00 -0.22954097412E+03  0.22954097412E+03  0.00000000000E+00 0. -1.
          6    2    1    2  501    0 -0.11088631726E+02  0.15201325339E+03  0.40257921744E+01  0.22844326184E+03  0.17011504906E+03 0.  0.
         24    2    3    3    0    0 -0.80110368540E+01 -0.23094617901E+01 -0.93257810401E+01  0.73442208560E+02  0.72369036756E+02 0.  0.
         -6    2    1    2    0  502  0.11088631726E+02 -0.15201325339E+03 -0.49555519306E+01  0.22970892665E+03  0.17178663081E+03 0.  0.
        -24    2    5    5    0    0  0.23008054087E+02 -0.39433617271E+02  0.49572907689E+02  0.10396438399E+03  0.79162738951E+02 0.  0.
          5    1    3    3  501    0 -0.30775948719E+01  0.15432271518E+03  0.13351573214E+02  0.15500105328E+03  0.47000000000E+01 0. -1.
        -11    1    4    4    0    0  0.31907334195E+02  0.12418734136E+01 -0.96737137903E+01  0.33364666393E+02  0.00000000000E+00 0.  1.
         12    1    4    4    0    0 -0.39918371049E+02 -0.35513352037E+01  0.34793275025E+00  0.40077542167E+02  0.00000000000E+00 0. -1.
         -5    1    5    5    0  502 -0.11919422362E+02 -0.11257963612E+03 -0.54528459620E+02  0.12574454265E+03  0.47000000000E+01 0.  1.
         13    1    6    6    0    0 -0.14505660703E+02  0.16292213096E+02  0.25433019904E+01  0.21961757330E+02  0.00000000000E+00 0. -1.
        -14    1    6    6    0    0  0.37513714791E+02 -0.55725830367E+02  0.47029605699E+02  0.82002626663E+02  0.00000000000E+00 0.  1.
</event>
<event>
12    1  0.8493057E-002  0.2002704E+03  0.7818608E-02  0.1149662E+00
         21   -1    0    0  501  502  0.00000000000E+00  0.00000000000E+00  0.16292497018E+04  0.16292497018E+04  0.00000000000E+00 0. -1.
         21   -1    0    0  502  503 -0.00000000000E+00 -0.00000000000E+00 -0.44186414806E+02  0.44186414806E+02  0.00000000000E+00 0. -1.
         -6    2    1    2    0  503 -0.75423043700E+02 -0.68108792194E+02  0.23367480035E+03  0.30728857965E+03  0.17174083898E+03 0.  0.
        -24    2    3    3    0    0 -0.11426214324E+03 -0.66978705234E+02  0.21377728393E+03  0.26338238522E+03  0.78278792711E+02 0.  0.
          6    2    1    2  501    0  0.75423043700E+02  0.68108792194E+02  0.13513884866E+04  0.13661475369E+04  0.17257116731E+03 0.  0.
         24    2    5    5    0    0  0.77471148651E+02 -0.24602692906E+02  0.75149411389E+03  0.75910967762E+03  0.69978768687E+02 0.  0.
          5    1    5    5  501    0 -0.20481049515E+01  0.92711485100E+02  0.59989437272E+03  0.60703785931E+03  0.47000000000E+01 0. -1.
        -11    1    6    6    0    0  0.42413403312E+02 -0.72751935260E+01  0.14236767653E+03  0.14872921885E+03  0.00000000000E+00 0.  1.
         12    1    6    6    0    0  0.35057745339E+02 -0.17327499380E+02  0.60912643737E+03  0.61038045877E+03  0.00000000000E+00 0. -1.
         -5    1    3    3    0  503  0.38839099542E+02 -0.11300869601E+01  0.19897516418E+02  0.43906194431E+02  0.47000000000E+01 0.  1.
         11    1    4    4    0    0 -0.75644322106E+02 -0.82595648593E+02  0.14984120655E+03  0.18707349308E+03  0.00000000000E+00 0. -1.
        -12    1    4    4    0    0 -0.38617821136E+02  0.15616943359E+02  0.63936077382E+02  0.76308892143E+02  0.00000000000E+00 0.  1.
</event>
<event>
12    1  0.8493057E-002  0.1862203E+03  0.7818608E-02  0.1162147E+00
         21   -1    0    0  503  502  0.00000000000E+00  0.00000000000E+00  0.21869286390E+03  0.21869286390E+03  0.00000000000E+00 0. -1.
         21   -1    0    0  501  503 -0.00000000000E+00 -0.00000000000E+00 -0.15905238083E+03  0.15905238083E+03  0.00000000000E+00 0. -1.
          6    2    1    2  501    0  0.52867280456E+02  0.45259421194E+02  0.47188658859E+02  0.19210609773E+03  0.17272700632E+03 0.  0.
         24    2    3    3    0    0  0.83216166398E+02  0.70114556661E+02  0.63064086253E+02  0.14952732565E+03  0.80872496778E+02 0.  0.
         -6    2    1    2    0  502 -0.52867280456E+02 -0.45259421194E+02  0.12451824205E+02  0.18563914700E+03  0.17164929485E+03 0.  0.
        -24    2    5    5    0    0  0.15822366562E+02 -0.52134003846E+02  0.46880783921E+02  0.10835415000E+03  0.81083366235E+02 0.  0.
          5    1    3    3  501    0 -0.30348885943E+02 -0.24855135467E+02 -0.15875427394E+02  0.42578772081E+02  0.47000000000E+01 0. -1.
        -11    1    4    4    0    0  0.41711512170E+02 -0.10187572297E+02  0.33373313710E+02  0.54382119716E+02  0.00000000000E+00 0.  1.
         12    1    4    4    0    0  0.41504654228E+02  0.80302128958E+02  0.29690772543E+02  0.95145205933E+02  0.00000000000E+00 0. -1.
         -5    1    5    5    0  502 -0.68689647018E+02  0.68745826516E+01 -0.34428959716E+02  0.77284996999E+02  0.47000000000E+01 0.  1.
         13    1    6    6    0    0 -0.26665847982E+02 -0.44439174710E+02  0.38016939019E+02  0.64274375531E+02  0.00000000000E+00 0. -1.
        -14    1    6    6    0    0  0.42488214544E+02 -0.76948291353E+01  0.88638449021E+01  0.44079774466E+02  0.00000000000E+00 0.  1.
</event>
<event>
12    1  0.8493057E-002  0.1880037E+03  0.7818608E-02  0.1160324E+00
         21   -1    0    0  503  502  0.00000000000E+00  0.00000000000E+00  0.69317995638E+02  0.69317995638E+02  0.00000000000E+00 0. -1.
         21   -1    0    0  501  503 -0.00000000000E+00 -0.00000000000E+00 -0.65455239349E+03  0.65455239349E+03  0.00000000000E+00 0. -1.
          6    2    1    2  501    0 -0.34011919215E+01 -0.75184453355E+02 -0.46324341324E+03  0.49993983391E+03  0.17228205794E+03 0.  0.
         24    2    3    3    0    0 -0.11846553032E+02 -0.11795630868E+03 -0.33354911246E+03  0.36303308686E+03  0.80523165349E+02 0.  0.
         -6    2    1    2    0  502  0.34011919215E+01  0.75184453355E+02 -0.12199098462E+03  0.22393055522E+03  0.17204308502E+03 0.  0.
        -24    2    5    5    0    0  0.53033410135E+02  0.78525600554E+02 -0.45871659329E+02  0.13287693348E+03  0.81075630059E+02 0.  0.
          5    1    3    3  501    0  0.84453611107E+01  0.42771855326E+02 -0.12969430078E+03  0.13690674705E+03  0.47000000000E+01 0. -1.
        -11    1    4    4    0    0 -0.44953393355E+02 -0.71914529109E+02 -0.17099598514E+03  0.19087203568E+03  0.00000000000E+00 0.  1.
         12    1    4    4    0    0  0.33106840323E+02 -0.46041779572E+02 -0.16255312732E+03  0.17216105118E+03  0.00000000000E+00 0. -1.
         -5    1    5    5    0  502 -0.49632218214E+02 -0.33411471986E+01 -0.76119325288E+02  0.91053621738E+02  0.47000000000E+01 0.  1.
         13    1    6    6    0    0 -0.47114159238E+01  0.65284860762E+02 -0.24913398285E+02  0.70035618787E+02  0.00000000000E+00 0. -1.
        -14    1    6    6    0    0  0.57744826059E+02  0.13240739791E+02 -0.20958261044E+02  0.62841314697E+02  0.00000000000E+00 0.  1.
</event>
<event>
12    1  0.8493057E-002  0.2146842E+03  0.7818608E-02  0.1138085E+00
         21   -1    0    0  503  502  0.00000000000E+00  0.00000000000E+00  0.39308245356E+03  0.39308245356E+03  0.00000000000E+00 0. -1.
         21   -1    0    0  501  503 -0.00000000000E+00 -0.00000000000E+00 -0.11707948420E+03  0.11707948420E+03  0.00000000000E+00 0. -1.
          6    2    1    2  501    0 -0.12436831961E+03 -0.34614727616E+02  0.12482604791E+03  0.24833614516E+03  0.17153320514E+03 0.  0.
         24    2    3    3    0    0 -0.10935055578E+03  0.47944391705E+01  0.14695024979E+03  0.20048025768E+03  0.81347569782E+02 0.  0.
         -6    2    1    2    0  502  0.12436831961E+03  0.34614727616E+02  0.15117692145E+03  0.26182579259E+03  0.17038962938E+03 0.  0.
        -24    2    5    5    0    0  0.13093738318E+03 -0.16564570960E+02  0.75268844128E+02  0.16992040972E+03  0.76082609166E+02 0.  0.
          5    1    3    3  501    0 -0.15017763823E+02 -0.39409166787E+02 -0.22124201881E+02  0.47855887474E+02  0.47000000000E+01 0. -1.
        -11    1    4    4    0    0 -0.40478997525E+01  0.93797931601E+01 -0.80715118379E+01  0.13019804741E+02  0.00000000000E+00 0.  1.
         12    1    4    4    0    0 -0.10530265603E+03 -0.45853539896E+01  0.15502176163E+03  0.18746045294E+03  0.00000000000E+00 0. -1.
         -5    1    5    5    0  502 -0.65690635740E+01  0.51179298576E+02  0.75908077320E+02  0.91905382875E+02  0.47000000000E+01 0.  1.
         11    1    6    6    0    0  0.69223322965E+02  0.26849080018E+02  0.21599639936E+02  0.77325842935E+02  0.00000000000E+00 0. -1.
        -12    1    6    6    0    0  0.61714060215E+02 -0.43413650978E+02  0.53669204191E+02  0.92594566784E+02  0.00000000000E+00 0.  1.
</event>
<event>
12    1  0.8493057E-002  0.2429021E+03  0.7818608E-02  0.1118186E+00
         21   -1    0    0  501  502  0.00000000000E+00  0.00000000000E+00  0.87368462243E+02  0.87368462243E+02  0.00000000000E+00 0. -1.
         21   -1    0    0  502  503 -0.00000000000E+00 -0.00000000000E+00 -0.67007616428E+03  0.67007616428E+03  0.00000000000E+00 0. -1.
         -6    2    1    2    0  503  0.11715807444E+01 -0.17167102602E+03 -0.29281750909E+03  0.38045173689E+03  0.17184038144E+03 0.  0.
        -24    2    3    3    0    0  0.37684889286E+02 -0.17338918722E+03 -0.28234758826E+03  0.34213877537E+03  0.76516794800E+02 0.  0.
          6    2    1    2  501    0 -0.11715807444E+01  0.17167102602E+03 -0.28989019294E+03  0.37699288963E+03  0.16915969109E+03 0.  0.
         24    2    5    5    0    0  0.43105351005E+02  0.15309164580E+03 -0.27265130993E+03  0.32575902249E+03  0.80529998321E+02 0.  0.
          5    1    5    5  501    0 -0.44276931750E+02  0.18579380221E+02 -0.17238883016E+02  0.51233867141E+02  0.47000000000E+01 0. -1.
        -11    1    6    6    0    0  0.40609954942E+02  0.33627338849E+02 -0.47978931956E+02  0.71287756804E+02  0.00000000000E+00 0.  1.
         12    1    6    6    0    0  0.24953960631E+01  0.11946430695E+03 -0.22467237797E+03  0.25447126569E+03  0.00000000000E+00 0. -1.
         -5    1    3    3    0  503 -0.36513308541E+02  0.17181611930E+01 -0.10469920827E+02  0.38312961523E+02  0.47000000000E+01 0.  1.
         11    1    4    4    0    0  0.49742332578E+02 -0.87558244495E+02 -0.19280216736E+03  0.21751648574E+03  0.00000000000E+00 0. -1.
        -12    1    4    4    0    0 -0.12057443292E+02 -0.85830942721E+02 -0.89545420903E+02  0.12462228963E+03  0.00000000000E+00 0.  1.
</event>
<event>
12    1  0.8493057E-002  0.1720339E+03  0.7818608E-02  0.1176191E+00
         21   -1    0    0  501  502  0.00000000000E+00  0.00000000000E+00  0.20001640503E+02  0.20001640503E+02  0.00000000000E+00 0.  1.
         21   -1    0    0  502  503 -0.00000000000E+00 -0.00000000000E+00 -0.16728664341E+04  0.16728664341E+04  0.00000000000E+00 0.  1.
         -6    2    1    2    0  503 -0.74103823123E+01  0.11383589530E+02 -0.11212964261E+04  0.11341547395E+04  0.16975511189E+03 0.  0.
        -24    2    3    3    0    0 -0.16908182698E+02  0.48632589024E+02 -0.10372681935E+04  0.10416316070E+04  0.80125426892E+02 0.  0.
          6    2    1    2  501    0  0.74103823123E+01 -0.11383589530E+02 -0.53156836745E+03  0.55871333508E+03  0.17149682693E+03 0.  0.
         24    2    5    5    0    0 -0.15484566500E+01 -0.80751563319E+02 -0.29505091516E+03  0.31202573543E+03  0.61496376629E+02 0.  0.
          5    1    5    5  501    0  0.89588389624E+01  0.69367973789E+02 -0.23651745229E+03  0.24668759965E+03  0.47000000000E+01 0. -1.
        -13    1    6    6    0    0  0.23100853195E+02 -0.84936797638E+01 -0.58745452955E+02  0.63693172767E+02  0.00000000000E+00 0.  1.
         14    1    6    6    0    0 -0.24649309845E+02 -0.72257883555E+02 -0.23630546220E+03  0.24833256266E+03  0.00000000000E+00 0. -1.
         -5    1    3    3    0  503  0.94978003861E+01 -0.37248999494E+02 -0.84028232649E+02  0.92523132554E+02  0.47000000000E+01 0.  1.
         13    1    4    4    0    0 -0.19951296867E+02 -0.17553903674E+02 -0.41388855270E+03  0.41474079596E+03  0.00000000000E+00 0. -1.
        -14    1    4    4    0    0  0.30431141690E+01  0.66186492698E+02 -0.62337964080E+03  0.62689081101E+03  0.00000000000E+00 0.  1.
</event>
<event>
12    1  0.8493057E-002  0.2300680E+03  0.7818608E-02  0.1126701E+00
         21   -1    0    0  501  502  0.00000000000E+00  0.00000000000E+00  0.50501600899E+03  0.50501600899E+03  0.00000000000E+00 0. -1.
         21   -1    0    0  502  503 -0.00000000000E+00 -0.00000000000E+00 -0.13565367467E+03  0.13565367467E+03  0.00000000000E+00 0.  1.
         -6    2    1    2    0  503 -0.21944206327E+02  0.15148612670E+03  0.31052870363E+02  0.23154310461E+03  0.17093371160E+03 0.  0.
        -24    2    3    3    0    0 -0.49145791422E+02  0.64429650616E+02 -0.36599474728E+02  0.11788710584E+03  0.77403872516E+02 0.  0.
          6    2    1    2  501    0  0.21944206327E+02 -0.15148612670E+03  0.33830946396E+03  0.40912657904E+03  0.17176050042E+03 0.  0.
         24    2    5    5    0    0  0.54127979427E+01 -0.36130550333E+02  0.20819329040E+03  0.23439105008E+03  0.10129167360E+03 0.  0.
          5    1    5    5  501    0  0.16531408384E+02 -0.11535557637E+03  0.13011617356E+03  0.17473552896E+03  0.47000000000E+01 0. -1.
        -11    1    6    6    0    0 -0.39682537734E+02  0.11312231870E+02  0.65702985994E+02  0.77585776786E+02  0.00000000000E+00 0.  1.
         12    1    6    6    0    0  0.45095335677E+02 -0.47442782203E+02  0.14249030441E+03  0.15680527329E+03  0.00000000000E+00 0. -1.
         -5    1    3    3    0  503  0.27201585095E+02  0.87056476082E+02  0.67652345090E+02  0.11365599877E+03  0.47000000000E+01 0.  1.
         13    1    4    4    0    0 -0.49860618488E+02  0.91307967269E+01  0.15306096535E+01  0.50712873028E+02  0.00000000000E+00 0. -1.
        -14    1    4    4    0    0  0.71482706619E+00  0.55298853889E+02 -0.38130084381E+02  0.67174232814E+02  0.00000000000E+00 0.  1.
</event>
<event>
12    1  0.8493057E-002  0.1732667E+03  0.7818608E-02  0.1174548E+00
         21   -1    0    0  501  502  0.00000000000E+00  0.00000000000E+00  0.21122440058E+04  0.21122440058E+04  0.00000000000E+00 0.  1.
         21   -1    0    0  502  503 -0.00000000000E+00 -0.00000000000E+00 -0.14660683433E+02  0.14660683433E+02  0.00000000000E+00 0.  1.
         -6    2    1    2    0  503  0.64432755909E+01 -0.18276362700E+02  0.12381472465E+04  0.12501768433E+04  0.17192438572E+03 0.  0.
        -24    2    3    3    0    0 -0.35606354014E+02 -0.23937468862E+02  0.11335991042E+04  0.11372493289E+04  0.80301258150E+02 0.  0.
          6    2    1    2  501    0 -0.64432755909E+01  0.18276362700E+02  0.85943607592E+03  0.87672784593E+03  0.17217957488E+03 0.  0.
         24    2    5    5    0    0 -0.26985179369E+02 -0.44161408490E+02  0.34216400223E+03  0.35527513159E+03  0.80410103807E+02 0.  0.
          5    1    5    5  501    0  0.20541903778E+02  0.62437771190E+02  0.51727207369E+03  0.52145271435E+03  0.47000000000E+01 0. -1.
        -11    1    6    6    0    0 -0.77255058318E+01 -0.24180394444E+02  0.31637094520E+03  0.31738769649E+03  0.00000000000E+00 0.  1.
         12    1    6    6    0    0 -0.19259673537E+02 -0.19981014046E+02  0.25793057029E+02  0.37887435093E+02  0.00000000000E+00 0. -1.
         -5    1    3    3    0  503  0.42049629605E+02  0.56611061623E+01  0.10454814224E+03  0.11292751444E+03  0.47000000000E+01 0.  1.
         11    1    4    4    0    0  0.19243037365E+01  0.24542077863E+02  0.52323699912E+03  0.52381578230E+03  0.00000000000E+00 0. -1.
        -12    1    4    4    0    0 -0.37530657751E+02 -0.48479546725E+02  0.61036210511E+03  0.61343354658E+03  0.00000000000E+00 0.  1.
</event>
<event>
12    1  0.8493057E-002  0.2783895E+03  0.7818608E-02  0.1096586E+00
         21   -1    0    0  501  502  0.00000000000E+00  0.00000000000E+00  0.71176272463E+03  0.71176272463E+03  0.00000000000E+00 0.  1.
         21   -1    0    0  502  503 -0.00000000000E+00 -0.00000000000E+00 -0.24799893730E+03  0.24799893730E+03  0.00000000000E+00 0. -1.
         -6    2    1    2    0  503  0.74282782140E+02  0.20644755209E+03 -0.12756432578E+03  0.30622436338E+03  0.17135396123E+03 0.  0.
        -24    2    3    3    0    0 -0.18396473235E+02  0.14094051794E+03 -0.59999428617E+02  0.17405885642E+03  0.80584702280E+02 0.  0.
          6    2    1    2  501    0 -0.74282782140E+02 -0.20644755209E+03  0.59132811311E+03  0.65353729854E+03  0.17118276707E+03 0.  0.
         24    2    5    5    0    0 -0.10075845524E+03 -0.92232408364E+02  0.38818453072E+03  0.41894091027E+03  0.78518615329E+02 0.  0.
          5    1    5    5  501    0  0.26475673099E+02 -0.11421514372E+03  0.20314358239E+03  0.23459638827E+03  0.47000000000E+01 0. -1.
        -11    1    6    6    0    0 -0.52318239266E+02 -0.91818497567E+02  0.30360444923E+03  0.32147083265E+03  0.00000000000E+00 0.  1.
         12    1    6    6    0    0 -0.48440215973E+02 -0.41391079695E+00  0.84580081492E+02  0.97470077618E+02  0.00000000000E+00 0. -1.
         -5    1    3    3    0  503  0.92679255374E+02  0.65507034152E+02 -0.67564897167E+02  0.13216550696E+03  0.47000000000E+01 0.  1.
         13    1    4    4    0    0  0.63014143511E+01  0.10562645954E+03 -0.73572530532E+02  0.12887813634E+03  0.00000000000E+00 0. -1.
        -14    1    4    4    0    0 -0.24697887586E+02  0.35314058394E+02  0.13573101915E+02  0.45180720081E+02  0.00000000000E+00 0.  1.
</event>
<event>
12    1  0.8493057E-002  0.2608369E+03  0.7818608E-02  0.1106767E+00
         21   -1    0    0  501  502  0.00000000000E+00  0.00000000000E+00  0.13480142351E+03  0.13480142351E+03  0.00000000000E+00 0. -1.
         21   -1    0    0  502  503 -0.00000000000E+00 -0.00000000000E+00 -0.50574091958E+03  0.50574091958E+03  0.00000000000E+00 0.  1.
         -6    2    1    2    0  503 -0.18151222550E+03  0.72709214112E+02 -0.20832866372E+03  0.33316933328E+03  0.17136993519E+03 0.  0.
        -24    2    3    3    0    0 -0.10274133320E+03  0.27572130320E+02 -0.20164225288E+03  0.24201557364E+03  0.81215366906E+02 0.  0.
          6    2    1    2  501    0  0.18151222550E+03 -0.72709214112E+02 -0.16261083235E+03  0.30737300981E+03  0.17263419864E+03 0.  0.
         24    2    5    5    0    0  0.15017100990E+03  0.12332673658E+02 -0.10912373419E+03  0.20202902973E+03  0.78767457973E+02 0.  0.
          5    1    5    5  501    0  0.31341215605E+02 -0.85041887769E+02 -0.53487098161E+02  0.10534398009E+03  0.47000000000E+01 0. -1.
        -11    1    6    6    0    0  0.48453929205E+02  0.74851754249E+01 -0.83809809451E+02  0.97097349432E+02  0.00000000000E+00 0.  1.
         12    1    6    6    0    0  0.10171708069E+03  0.48474982327E+01 -0.25313924738E+02  0.10493168029E+03  0.00000000000E+00 0. -1.
         -5    1    3    3    0  503 -0.78770892298E+02  0.45137083792E+02 -0.66864108462E+01  0.91153759641E+02  0.47000000000E+01 0.  1.
         13    1    4    4    0    0  0.11455309439E+02 -0.78876776305E+01 -0.26810658319E+02  0.30203492716E+02  0.00000000000E+00 0. -1.
        -14    1    4    4    0    0 -0.11419664264E+03  0.35459807950E+02 -0.17483159456E+03  0.21181208093E+03  0.00000000000E+00 0.  1.
</event>
<event>
12    1  0.8493057E-002  0.2051848E+03  0.7818608E-02  0.1145907E+00
         21   -1    0    0  503  502  0.00000000000E+00  0.00000000000E+00  0.21311403307E+03  0.21311403307E+03  0.00000000000E+00 0.  1.
         21   -1    0    0  501  503 -0.00000000000E+00 -0.00000000000E+00 -0.35308998894E+03  0.35308998894E+03  0.00000000000E+00 0. -1.
          6    2    1    2  501    0  0.66904649958E+01 -0.11075211997E+03 -0.25899014569E+03  0.32900120505E+03  0.16986789856E+03 0.  0.
         24    2    3    3    0    0 -0.84734079412E-01 -0.10239955517E+03 -0.85602981985E+02  0.15521723802E+03  0.79239159357E+02 0.  0.
         -6    2    1    2    0  502 -0.66904649958E+01  0.11075211997E+03  0.11901418982E+03  0.23720281696E+03  0.17259781168E+03 0.  0.
        -24    2    5    5    0    0 -0.26880148270E+02  0.74586997678E+02  0.13952176488E+01  0.11241559007E+03  0.79684099194E+02 0.  0.
          5    1    3    3  501    0  0.67751990752E+01 -0.83525648079E+01 -0.17338716370E+03  0.17378396703E+03  0.47000000000E+01 0. -1.
        -13    1    4    4    0    0  0.23130349164E+01  0.56315679984E+01 -0.35660377403E+02  0.36176334878E+02  0.00000000000E+00 0.  1.
         14    1    4    4    0    0 -0.23977689959E+01 -0.10803112316E+03 -0.49942604582E+02  0.11904090314E+03  0.00000000000E+00 0. -1.
         -5    1    5    5    0  502  0.20189683274E+02  0.36165122296E+02  0.11761897217E+03  0.12478722689E+03  0.47000000000E+01 0.  1.
         13    1    6    6    0    0 -0.48469831056E+02  0.27815675956E+02  0.17302942504E+02  0.58501522807E+02  0.00000000000E+00 0. -1.
        -14    1    6    6    0    0  0.21589682786E+02  0.46771321722E+02 -0.15907724856E+02  0.53914067260E+02  0.00000000000E+00 0.  1.
</event>
<event>
12    1  0.8493057E-002  0.1790655E+03  0.7818608E-02  0.1169219E+00
         21   -1    0    0  501  502  0.00000000000E+00  0.00000000000E+00  0.29359247658E+03  0.29359247658E+03  0.00000000000E+00 0.  1.
         21   -1    0    0  502  503 -0.00000000000E+00 -0.00000000000E+00 -0.12358628679E+03  0.12358628679E+03  0.00000000000E+00 0.  1.
         -6    2    1    2    0  503  0.68406588739E+01  0.44262808105E+02  0.11250291927E+02  0.17941860172E+03  0.17337380073E+03 0.  0.
        -24    2    3    3    0    0 -0.35536122109E+02  0.23192926606E+02  0.61848193573E+02  0.10997820193E+03  0.80431822257E+02 0.  0.
          6    2    1    2  501    0 -0.68406588739E+01 -0.44262808105E+02  0.15875589786E+03  0.23776016165E+03  0.17123220657E+03 0.  0.
         24    2    5    5    0    0 -0.35614940165E+02 -0.62846418981E+02  0.17090015924E+03  0.20111479439E+03  0.77602833406E+02 0.  0.
          5    1    5    5  501    0  0.28774281292E+02  0.18583610876E+02 -0.12144261380E+02  0.36645367258E+02  0.47000000000E+01 0. -1.
        -13    1    6    6    0    0 -0.54853119668E+02 -0.41104822756E+02  0.78268847343E+02  0.10404077881E+03  0.00000000000E+00 0.  1.
         14    1    6    6    0    0  0.19238179503E+02 -0.21741596225E+02  0.92631311896E+02  0.97074015578E+02  0.00000000000E+00 0. -1.
         -5    1    3    3    0  503  0.42376780982E+02  0.21069881500E+02 -0.50597901646E+02  0.69440399796E+02  0.47000000000E+01 0.  1.
         13    1    4    4    0    0 -0.25759300435E+02 -0.11716498502E-01  0.76586098177E+02  0.80802055235E+02  0.00000000000E+00 0. -1.
        -14    1    4    4    0    0 -0.97768216731E+01  0.23204643104E+02 -0.14737904604E+02  0.29176146691E+02  0.00000000000E+00 0.  1.
</event>
<event>
12    1  0.8493057E-002  0.1770492E+03  0.7818608E-02  0.1170980E+00
         21   -1    0    0  501  502  0.00000000000E+00  0.00000000000E+00  0.16426498614E+02  0.16426498614E+02  0.00000000000E+00 0. -1.
         21   -1    0    0  502  503 -0.00000000000E+00 -0.00000000000E+00 -0.20913327608E+04  0.20913327608E+04  0.00000000000E+00 0. -1.
         -6    2    1    2    0  503  0.19273380305E+02 -0.37911929946E+02 -0.13566618159E+04  0.13680150522E+04  0.17066084043E+03 0.  0.
        -24    2    3    3    0    0  0.61996940405E+02 -0.64065263902E+02 -0.10960002148E+04  0.11025421538E+04  0.80216901841E+02 0.  0.
          6    2    1    2  501    0 -0.19273380305E+02  0.37911929946E+02 -0.71824444628E+03  0.73974420730E+03  0.17186515062E+03 0.  0.
         24    2    5    5    0    0 -0.55437323513E+02  0.58096546077E+02 -0.64958144084E+03  0.65942018951E+03  0.80189977884E+02 0.  0.
          5    1    5    5  501    0  0.36163943208E+02 -0.20184616131E+02 -0.68663005440E+02  0.80324017783E+02  0.47000000000E+01 0. -1.
        -11    1    6    6    0    0 -0.55331930343E+02  0.75004771685E+02 -0.59571114549E+03  0.60295862806E+03  0.00000000000E+00 0.  1.
         12    1    6    6    0    0 -0.10539316954E+00 -0.16908225608E+02 -0.53870295350E+02  0.56461561456E+02  0.00000000000E+00 0. -1.
         -5    1    3    3    0  503 -0.42723560100E+02  0.26153333956E+02 -0.26066160116E+03  0.26547289839E+03  0.47000000000E+01 0.  1.
         11    1    4    4    0    0  0.48911943477E+02  0.48721149011E+01 -0.50694585469E+03  0.50932329154E+03  0.00000000000E+00 0. -1.
        -12    1    4    4    0    0  0.13084996928E+02 -0.68937378803E+02 -0.58905436010E+03  0.59321886222E+03  0.00000000000E+00 0.  1.
</event>
<event>
12    1  0.8493057E-002  0.3472185E+03  0.7818608E-02  0.1063789E+00
         21   -1    0    0  501  502  0.00000000000E+00  0.00000000000E+00  0.19198582831E+03  0.19198582831E+03  0.00000000000E+00 0.  1.
         21   -1    0    0  502  503 -0.00000000000E+00 -0.00000000000E+00 -0.80113159303E+03  0.80113159303E+03  0.00000000000E+00 0. -1.
         -6    2    1    2    0  503  0.21403186814E+03  0.21505517155E+03 -0.53565662136E+03  0.63820705902E+03  0.16829101815E+03 0.  0.
        -24    2    3    3    0    0  0.22540473852E+03  0.22543404861E+03 -0.49354951164E+03  0.59312755194E+03  0.81125618685E+02 0.  0.
          6    2    1    2  501    0 -0.21403186814E+03 -0.21505517155E+03 -0.73489143365E+02  0.35491036232E+03  0.16882637146E+03 0.  0.
         24    2    5    5    0    0 -0.88586388947E+02 -0.14020061883E+03  0.14302699137E+02  0.18441323647E+03  0.79371989743E+02 0.  0.
          5    1    5    5  501    0 -0.12544547919E+03 -0.74854552714E+02 -0.87791842502E+02  0.17049712585E+03  0.47000000000E+01 0. -1.
        -11    1    6    6    0    0 -0.32479543754E+02 -0.73932088475E+02 -0.30972602841E+02  0.86488014172E+02  0.00000000000E+00 0.  1.
         12    1    6    6    0    0 -0.56106845194E+02 -0.66268530357E+02  0.45275301978E+02  0.97925222300E+02  0.00000000000E+00 0. -1.
         -5    1    3    3    0  503 -0.11372870382E+02 -0.10378877066E+02 -0.42107109718E+02  0.45079507081E+02  0.47000000000E+01 0.  1.
         11    1    4    4    0    0  0.73530662395E+02  0.10123727144E+03 -0.13266114146E+03  0.18235877246E+03  0.00000000000E+00 0. -1.
        -12    1    4    4    0    0  0.15187407613E+03  0.12419677717E+03 -0.36088837018E+03  0.41076877948E+03  0.00000000000E+00 0.  1.
</event>
<event>
12    1  0.8493057E-002  0.2194240E+03  0.7818608E-02  0.1134324E+00
         21   -1    0    0  501  502  0.00000000000E+00  0.00000000000E+00  0.32363108712E+03  0.32363108712E+03  0.00000000000E+00 0.  1.
         21   -1    0    0  502  503 -0.00000000000E+00 -0.00000000000E+00 -0.16728724212E+03  0.16728724212E+03  0.00000000000E+00 0. -1.
         -6    2    1    2    0  503 -0.48157215279E+02 -0.12712391306E+03 -0.35825539916E+01  0.21939787635E+03  0.17217138786E+03 0.  0.
        -24    2    3    3    0    0  0.87558749050E+01 -0.13102846374E+03  0.24498724851E+02  0.15564057424E+03  0.79866621171E+02 0.  0.
          6    2    1    2  501    0  0.48157215279E+02  0.12712391306E+03  0.15992639899E+03  0.27152045289E+03  0.17224197105E+03 0.  0.
         24    2    5    5    0    0  0.23470887609E+01  0.69305604056E+02  0.16675660694E+03  0.19728928499E+03  0.79413603591E+02 0.  0.
          5    1    5    5  501    0  0.45810126518E+02  0.57818309005E+02 -0.68302079487E+01  0.74231167904E+02  0.47000000000E+01 0. -1.
        -11    1    6    6    0    0 -0.30671074610E+02  0.34908833610E+01  0.37923895536E+02  0.48899109777E+02  0.00000000000E+00 0.  1.
         12    1    6    6    0    0  0.33018163371E+02  0.65814720695E+02  0.12883271140E+03  0.14839017521E+03  0.00000000000E+00 0. -1.
         -5    1    3    3    0  503 -0.56913090184E+02  0.39045506756E+01 -0.28081278842E+02  0.63757302105E+02  0.47000000000E+01 0.  1.
         11    1    4    4    0    0  0.35266949057E+02 -0.10746646248E+03  0.10285137718E+01  0.11310992924E+03  0.00000000000E+00 0. -1.
        -12    1    4    4    0    0 -0.26511074152E+02 -0.23562001260E+02  0.23470211079E+02  0.42530645001E+02  0.00000000000E+00 0.  1.
</event>
<event>
12    1  0.8493057E-002  0.1842839E+03  0.7818608E-02  0.1166081E+00
         21   -1    0    0  503  502  0.00000000000E+00  0.00000000000E+00  0.67995344923E+03  0.67995344923E+03  0.00000000000E+00 0.  1.
         21   -1    0    0  501  503 -0.00000000000E+00 -0.00000000000E+00 -0.74127060477E+02  0.74127060477E+02  0.00000000000E+00 0.  1.
          6    2    1    2  501    0 -0.32951503761E+02 -0.11267487503E+02  0.81547147293E+02  0.20152043422E+03  0.18096350544E+03 0.  0.
         24    2    3    3    0    0 -0.73113582554E+02  0.29759789366E+02  0.88620602395E+02  0.14348291371E+03  0.80638045237E+02 0.  0.
         -6    2    1    2    0  502  0.32951503761E+02  0.11267487503E+02  0.52427924146E+03  0.55256007549E+03  0.17100045650E+03 0.  0.
        -24    2    5    5    0    0  0.29007656038E+02 -0.36422745717E+02  0.16774868623E+03  0.19280176899E+03  0.82854329280E+02 0.  0.
          5    1    3    3  501    0  0.40162078793E+02 -0.41027276869E+02 -0.70734551023E+01  0.58037520513E+02  0.47000000000E+01 0. -1.
        -11    1    4    4    0    0 -0.10002887975E+02  0.46242262634E+02  0.32094027110E+02  0.57170195010E+02  0.00000000000E+00 0.  1.
         12    1    4    4    0    0 -0.63110694579E+02 -0.16482473267E+02  0.56526575286E+02  0.86312718696E+02  0.00000000000E+00 0. -1.
         -5    1    5    5    0  502  0.39438477225E+01  0.47690233220E+02  0.35653055523E+03  0.35975830649E+03  0.47000000000E+01 0.  1.
         11    1    6    6    0    0 -0.11251404410E+02 -0.59680258995E+00 -0.46403819141E+01  0.12185377254E+02  0.00000000000E+00 0. -1.
        -12    1    6    6    0    0  0.40259060448E+02 -0.35825943127E+02  0.17238906814E+03  0.18061639174E+03  0.00000000000E+00 0.  1.
</event>
<event>
12    1  0.8493057E-002  0.2045190E+03  0.7818608E-02  0.1146061E+00
         21   -1    0    0  503  502  0.00000000000E+00  0.00000000000E+00  0.28440698038E+03  0.28440698038E+03  0.00000000000E+00 0.  1.
         21   -1    0    0  501  503 -0.00000000000E+00 -0.00000000000E+00 -0.15708667141E+03  0.15708667141E+03  0.00000000000E+00 0. -1.
          6    2    1    2  501    0  0.28594917106E+02  0.10578516654E+03  0.70969137691E+01  0.20425600575E+03  0.17222653383E+03 0.  0.
         24    2    3    3    0    0 -0.38605651498E+02  0.86617908378E+02  0.34398355844E+02  0.12908447560E+03  0.80538789262E+02 0.  0.
         -6    2    1    2    0  502 -0.28594917106E+02 -0.10578516654E+03  0.12022339520E+03  0.23723764604E+03  0.17268429344E+03 0.  0.
        -24    2    5    5    0    0 -0.20318378476E+02 -0.92014105916E+02  0.83329164884E+01  0.12410183195E+03  0.80326801289E+02 0.  0.
          5    1    3    3  501    0  0.67200568605E+02  0.19167258166E+02 -0.27301442075E+02  0.75171530154E+02  0.47000000000E+01 0. -1.
        -11    1    4    4    0    0  0.19049446968E+02  0.49386591303E+02  0.14479372797E+01  0.52952935260E+02  0.00000000000E+00 0.  1.
         12    1    4    4    0    0 -0.57655098467E+02  0.37231317075E+02  0.32950418564E+02  0.76131540336E+02  0.00000000000E+00 0. -1.
         -5    1    5    5    0  502 -0.82765386305E+01 -0.13771060628E+02  0.11189047871E+03  0.11313581408E+03  0.47000000000E+01 0.  1.
         13    1    6    6    0    0 -0.11501247406E+02 -0.41305953706E+02 -0.36143191180E+02  0.56078434109E+02  0.00000000000E+00 0. -1.
        -14    1    6    6    0    0 -0.88171310693E+01 -0.50708152210E+02  0.44476107668E+02  0.68023397844E+02  0.00000000000E+00 0.  1.
</event>
<event>
12    1  0.8493057E-002  0.1785382E+03  0.7818608E-02  0.1169753E+00
         21   -1    0    0  501  502  0.00000000000E+00  0.00000000000E+00  0.33727267111E+03  0.33727267111E+03  0.00000000000E+00 0. -1.
         21   -1    0    0  502  503 -0.00000000000E+00 -0.00000000000E+00 -0.44919082428E+03  0.44919082428E+03  0.00000000000E+00 0. -1.
         -6    2    1    2    0  503 -0.21310882030E+02  0.34331037799E+02 -0.40586770977E+03  0.44254164286E+03  0.17170245770E+03 0.  0.
        -24    2    3    3    0    0 -0.90564523105E+01  0.77237064790E+02 -0.36543081491E+03  0.38214023008E+03  0.80273852863E+02 0.  0.
          6    2    1    2  501    0  0.21310882030E+02 -0.34331037799E+02  0.29394955660E+03  0.34392185253E+03  0.17390550586E+03 0.  0.
         24    2    5    5    0    0  0.37008446632E+01  0.31798495222E+01  0.29163816632E+03  0.30215329248E+03  0.78866877745E+02 0.  0.
          5    1    5    5  501    0  0.17610037367E+02 -0.37510887321E+02  0.23113902817E+01  0.41768560051E+02  0.47000000000E+01 0. -1.
        -11    1    6    6    0    0  0.65294179465E+01  0.37931392072E+02  0.95926804521E+02  0.10336041616E+03  0.00000000000E+00 0.  1.
         12    1    6    6    0    0 -0.28285732833E+01 -0.34751542550E+02  0.19571136180E+03  0.19879287631E+03  0.00000000000E+00 0. -1.
         -5    1    3    3    0  503 -0.12254429720E+02 -0.42906026991E+02 -0.40436894864E+02  0.60401412783E+02  0.47000000000E+01 0.  1.
         11    1    4    4    0    0 -0.32690914083E+02  0.42633958334E+02 -0.10090680499E+03  0.11431768700E+03  0.00000000000E+00 0. -1.
        -12    1    4    4    0    0  0.23634461772E+02  0.34603106456E+02 -0.26452400992E+03  0.26782254308E+03  0.00000000000E+00 0.  1.
</event>
<event>
12    1  0.8493057E-002  0.1869473E+03  0.7818608E-02  0.1162274E+00
         21   -1    0    0  501  502  0.00000000000E+00  0.00000000000E+00  0.34253969095E+02  0.34253969095E+02  0.00000000000E+00 0. -1.
         21   -1    0    0  502  503 -0.00000000000E+00 -0.00000000000E+00 -0.13363148408E+04  0.13363148408E+04  0.00000000000E+00 0. -1.
         -6    2    1    2    0  503  0.74203178283E+02  0.94500676163E+01 -0.99086142079E+03  0.10075338523E+04  0.16650133010E+03 0.  0.
        -24    2    3    3    0    0  0.10824395889E+02  0.57067724769E+02 -0.44670482587E+03  0.45761312974E+03  0.80564770839E+02 0.  0.
          6    2    1    2  501    0 -0.74203178283E+02 -0.94500676163E+01 -0.31119945088E+03  0.36303495753E+03  0.17132970180E+03 0.  0.
         24    2    5    5    0    0  0.48417363095E+01 -0.51452983239E+02 -0.13273896207E+03  0.16332872451E+03  0.79911127533E+02 0.  0.
          5    1    5    5  501    0 -0.79044914592E+02  0.42002915623E+02 -0.17846048880E+03  0.19970623302E+03  0.47000000000E+01 0. -1.
        -11    1    6    6    0    0 -0.28978289599E+01 -0.71012865561E+02 -0.82672779909E+02  0.10902299311E+03  0.00000000000E+00 0.  1.
         12    1    6    6    0    0  0.77395652694E+01  0.19559882322E+02 -0.50066182165E+02  0.54305731406E+02  0.00000000000E+00 0. -1.
         -5    1    3    3    0  503  0.63378782394E+02 -0.47617657152E+02 -0.54415659493E+03  0.54992072259E+03  0.47000000000E+01 0.  1.
         11    1    4    4    0    0  0.25334943240E+02  0.23967909046E+01 -0.28813847834E+03  0.28926006751E+03  0.00000000000E+00 0. -1.
        -12    1    4    4    0    0 -0.14510547351E+02  0.54670933864E+02 -0.15856634752E+03  0.16835306223E+03  0.00000000000E+00 0.  1.
</event>
<event>
12    1  0.8493057E-002  0.2209064E+03  0.7818608E-02  0.1133363E+00
         21   -1    0    0  503  502  0.00000000000E+00  0.00000000000E+00  0.27336993079E+03  0.27336993079E+03  0.00000000000E+00 0. -1.
         21   -1    0    0  501  503 -0.00000000000E+00 -0.00000000000E+00 -0.18478702235E+03  0.18478702235E+03  0.00000000000E+00 0. -1.
          6    2    1    2  501    0  0.41484527859E+02  0.13333130695E+03 -0.19998345810E+00  0.22007702868E+03  0.17010483561E+03 0.  0.
         24    2    3    3    0    0  0.76436379933E+02  0.81895289817E+02 -0.43928407665E+02  0.14390905047E+03  0.78935107117E+02 0.  0.
         -6    2    1    2    0  502 -0.41484527859E+02 -0.13333130695E+03  0.88782891907E+02  0.23807992446E+03  0.17117664872E+03 0.  0.
        -24    2    5    5    0    0 -0.36175732524E+02 -0.12155260522E+03  0.18986232601E+01  0.15011466279E+03  0.80293759121E+02 0.  0.
          5    1    3    3  501    0 -0.34951852073E+02  0.51436017134E+02  0.43728424207E+02  0.76167978216E+02  0.47000000000E+01 0. -1.
        -11    1    4    4    0    0  0.17310755480E+02  0.73988274363E+02 -0.34749079863E+02  0.83554925347E+02  0.00000000000E+00 0.  1.
         12    1    4    4    0    0  0.59125624453E+02  0.79070154541E+01 -0.91793278020E+01  0.60354125122E+02  0.00000000000E+00 0. -1.
         -5    1    5    5    0  502 -0.53087953356E+01 -0.11778701731E+02  0.86884268647E+02  0.87965261670E+02  0.47000000000E+01 0.  1.
         11    1    6    6    0    0  0.15851643693E+02 -0.32886515086E+02 -0.24511893890E+02  0.43973064760E+02  0.00000000000E+00 0. -1.
        -12    1    6    6    0    0 -0.52027376217E+02 -0.88666090133E+02  0.26410517150E+02  0.10614159803E+03  0.00000000000E+00 0.  1.
</event>
<event>
12    1  0.8493057E-002  0.2468283E+03  0.7818608E-02  0.1115392E+00
         21   -1    0    0  503  502  0.00000000000E+00  0.00000000000E+00  0.60987688630E+03  0.60987688630E+03  0.00000000000E+00 0.  1.
         21   -1    0    0  501  503 -0.00000000000E+00 -0.00000000000E+00 -0.10155597552E+03  0.10155597552E+03  0.00000000000E+00 0.  1.
          6    2    1    2  501    0  0.33117673138E+02 -0.17395247498E+03  0.20666821608E+03  0.32192540704E+03  0.17195340164E+03 0.  0.
         24    2    3    3    0    0  0.78131505745E+02 -0.15971993132E+03  0.18647646465E+03  0.27036372310E+03  0.81902883033E+02 0.  0.
         -6    2    1    2    0  502 -0.33117673138E+02  0.17395247498E+03  0.30165269470E+03  0.38950745478E+03  0.17136354713E+03 0.  0.
        -24    2    5    5    0    0  0.67453008888E+01  0.74479422942E+02  0.59825207175E+02  0.12495770804E+03  0.80266368167E+02 0.  0.
          5    1    3    3  501    0 -0.45013832606E+02 -0.14232543663E+02  0.20191751425E+02  0.51561683939E+02  0.47000000000E+01 0. -1.
        -13    1    4    4    0    0  0.47562615522E+02 -0.12851778958E+03  0.17996512801E+03  0.22620007058E+03  0.00000000000E+00 0.  1.
         14    1    4    4    0    0  0.30568890222E+02 -0.31202141740E+02  0.65113366435E+01  0.44163652515E+02  0.00000000000E+00 0. -1.
         -5    1    5    5    0  502 -0.39862974027E+02  0.99473052037E+02  0.24182748752E+03  0.26454974674E+03  0.47000000000E+01 0.  1.
         11    1    6    6    0    0 -0.39941718568E+01  0.85776112061E+02  0.29382986241E+02  0.90757119223E+02  0.00000000000E+00 0. -1.
        -12    1    6    6    0    0  0.10739472746E+02 -0.11296689119E+02  0.30442220934E+02  0.34200588815E+02  0.00000000000E+00 0.  1.
</event>
<event>
12    1  0.8493057E-002  0.1785110E+03  0.7818608E-02  0.1169386E+00
         21   -1    0    0  503  502  0.00000000000E+00  0.00000000000E+00  0.85153327676E+03  0.85153327676E+03  0.00000000000E+00 0.  1.
         21   -1    0    0  501  503 -0.00000000000E+00 -0.00000000000E+00 -0.84100907502E+02  0.84100907502E+02  0.00000000000E+00 0.  1.
          6    2    1    2  501    0 -0.20471244710E+02  0.38563377811E+02  0.34499311866E+02  0.18127548133E+03  0.17252359735E+03 0.  0.
         24    2    3    3    0    0  0.11969281501E+02 -0.17844304233E+00 -0.41814768509E+02  0.89628084816E+02  0.78367232826E+02 0.  0.
         -6    2    1    2    0  502  0.20471244710E+02 -0.38563377811E+02  0.73293305739E+03  0.75435870293E+03  0.17308951472E+03 0.  0.
        -24    2    5    5    0    0  0.56117334594E+02 -0.75205058984E+02  0.36475212537E+03  0.38261612369E+03  0.67424246395E+02 0.  0.
          5    1    3    3  501    0 -0.32440526211E+02  0.38741820853E+02  0.76314080375E+02  0.91647396512E+02  0.47000000000E+01 0. -1.
        -13    1    4    4    0    0  0.45349997489E+02 -0.49070424877E-01 -0.18855552173E+02  0.49113710183E+02  0.00000000000E+00 0.  1.
         14    1    4    4    0    0 -0.33380715988E+02 -0.12937261745E+00 -0.22959216336E+02  0.40514374633E+02  0.00000000000E+00 0. -1.
         -5    1    5    5    0  502 -0.35646089883E+02  0.36641681173E+02  0.36818093201E+03  0.37174257924E+03  0.47000000000E+01 0.  1.
         11    1    6    6    0    0 -0.11055303937E+02 -0.35904990753E+02  0.10968155164E+03  0.11593718504E+03  0.00000000000E+00 0. -1.
        -12    1    6    6    0    0  0.67172638530E+02 -0.39300068231E+02  0.25507057374E+03  0.26667893864E+03  0.00000000000E+00 0.  1.
</event>
<event>
12    1  0.8493057E-002  0.2039938E+03  0.7818608E-02  0.1146460E+00
         21   -1    0    0  503  502  0.00000000000E+00  0.00000000000E+00  0.36542540275E+03  0.36542540275E+03  0.00000000000E+00 0.  1.
         21   -1    0    0  501  503 -0.00000000000E+00 -0.00000000000E+00 -0.16055800106E+03  0.16055800106E+03  0.00000000000E+00 0. -1.
          6    2    1    2  501    0 -0.10410574286E+03 -0.34568866942E+02 -0.39528191169E+02  0.20778825001E+03  0.17198972843E+03 0.  0.
         24    2    3    3    0    0 -0.57450127098E+02  0.51935578185E+02 -0.88942360766E+00  0.10207727675E+03  0.66491788735E+02 0.  0.
         -6    2    1    2    0  502  0.10410574286E+03  0.34568866942E+02  0.24439559286E+03  0.31819515380E+03  0.17171469894E+03 0.  0.
        -24    2    5    5    0    0  0.36418804972E+02 -0.34154232830E+02  0.62888068957E+02  0.11259491733E+03  0.78929495215E+02 0.  0.
          5    1    3    3  501    0 -0.46655615760E+02 -0.86504445127E+02 -0.38638767562E+02  0.10571097326E+03  0.47000000000E+01 0. -1.
        -13    1    4    4    0    0 -0.18844252385E+01 -0.60901635783E+01  0.18383748367E+02  0.19457732522E+02  0.00000000000E+00 0.  1.
         14    1    4    4    0    0 -0.55565701860E+02  0.58025741763E+02 -0.19273171974E+02  0.82619544227E+02  0.00000000000E+00 0. -1.
         -5    1    5    5    0  502  0.67686937887E+02  0.68723099772E+02  0.18150752391E+03  0.20560023647E+03  0.47000000000E+01 0.  1.
         13    1    6    6    0    0 -0.31608073407E+01  0.23317061852E+02  0.17951850367E+02  0.29596368157E+02  0.00000000000E+00 0. -1.
        -14    1    6    6    0    0  0.39579612312E+02 -0.57471294682E+02  0.44936218591E+02  0.82998549171E+02  0.00000000000E+00 0.  1.
</event>
<event>
12    1  0.8493057E-002  0.1815769E+03  0.7818608E-02  0.1166378E+00
         21   -1    0    0  501  502  0.00000000000E+00  0.00000000000E+00  0.27326267601E+03  0.27326267601E+03  0.00000000000E+00 0. -1.
         21   -1    0    0  502  503 -0.00000000000E+00 -0.00000000000E+00 -0.42781944580E+03  0.42781944580E+03  0.00000000000E+00 0. -1.
         -6    2    1    2    0  503  0.42588567078E+02 -0.35540426058E+02 -0.37445105854E+03  0.41615354825E+03  0.17289671064E+03 0.  0.
        -24    2    3    3    0    0 -0.34509416984E+02 -0.44878869302E+02 -0.25920072366E+03  0.27709947475E+03  0.79963060150E+02 0.  0.
          6    2    1    2  501    0 -0.42588567078E+02  0.35540426058E+02  0.21989428875E+03  0.28492857357E+03  0.17249314734E+03 0.  0.
         24    2    5    5    0    0  0.23829008403E+02  0.29593675970E+02  0.69839952896E+02  0.12065729830E+03  0.90757684597E+02 0.  0.
          5    1    5    5  501    0 -0.66417575481E+02  0.59467500881E+01  0.15005433585E+03  0.16427127527E+03  0.47000000000E+01 0. -1.
        -11    1    6    6    0    0  0.44738827054E+02 -0.84967569371E+01  0.98632334132E+01  0.46594429903E+02  0.00000000000E+00 0.  1.
         12    1    6    6    0    0 -0.20909818652E+02  0.38090432907E+02  0.59976719483E+02  0.74062868396E+02  0.00000000000E+00 0. -1.
         -5    1    3    3    0  503  0.77097984062E+02  0.93384432439E+01 -0.11525033488E+03  0.13905407350E+03  0.47000000000E+01 0.  1.
         13    1    4    4    0    0 -0.43250718582E+02 -0.12252759698E+02 -0.22340815372E+03  0.22788584407E+03  0.00000000000E+00 0. -1.
        -14    1    4    4    0    0  0.87413015981E+01 -0.32626109604E+02 -0.35792569935E+02  0.49213630674E+02  0.00000000000E+00 0.  1.
</event>
<event>
12    1  0.8493057E-002  0.2521077E+03  0.7818608E-02  0.1112096E+00
         21   -1    0    0  501  502  0.00000000000E+00  0.00000000000E+00  0.25736555249E+03  0.25736555249E+03  0.00000000000E+00 0. -1.
         21   -1    0    0  502  503 -0.00000000000E+00 -0.00000000000E+00 -0.26654763333E+03  0.26654763333E+03  0.00000000000E+00 0. -1.
         -6    2    1    2    0  503  0.10120164915E+03 -0.15429762593E+03 -0.76914332193E+02  0.26357936757E+03  0.17178107391E+03 0.  0.
        -24    2    3    3    0    0  0.11514773929E+03 -0.15751690461E+03 -0.10199988392E+03  0.23431792381E+03  0.80189375834E+02 0.  0.
          6    2    1    2  501    0 -0.10120164915E+03  0.15429762593E+03  0.67732251352E+02  0.26033381826E+03  0.17069419409E+03 0.  0.
         24    2    5    5    0    0  0.15672783994E+02  0.62071943279E+02  0.26411624841E+02  0.10575473222E+03  0.79924509134E+02 0.  0.
          5    1    5    5  501    0 -0.11687443314E+03  0.92225682653E+02  0.41320626511E+02  0.15457908603E+03  0.47000000000E+01 0. -1.
        -11    1    6    6    0    0 -0.22972955265E+01 -0.19009226941E+02  0.23537356466E+01  0.19291665225E+02  0.00000000000E+00 0.  1.
         12    1    6    6    0    0  0.17970079520E+02  0.81081170221E+02  0.24057889194E+02  0.86463066999E+02  0.00000000000E+00 0. -1.
         -5    1    3    3    0  503 -0.13946090137E+02  0.32192786798E+01  0.25085551729E+02  0.29261443759E+02  0.47000000000E+01 0.  1.
         13    1    4    4    0    0  0.84210994433E+02 -0.10928332025E+03 -0.28088147615E+02  0.14079516932E+03  0.00000000000E+00 0. -1.
        -14    1    4    4    0    0  0.30936744855E+02 -0.48233584359E+02 -0.73911736308E+02  0.93522754485E+02  0.00000000000E+00 0.  1.
</event>
<event>
12    1  0.8493057E-002  0.1773486E+03  0.7818608E-02  0.1170645E+00
         21   -1    0    0  501  502  0.00000000000E+00  0.00000000000E+00  0.45951642596E+02  0.45951642596E+02  0.00000000000E+00 0.  1.
         21   -1    0    0  502  503 -0.00000000000E+00 -0.00000000000E+00 -0.11118552943E+04  0.11118552943E+04  0.00000000000E+00 0.  1.
         -6    2    1    2    0  503  0.36312477505E+02 -0.13924973262E+02 -0.89256870029E+03  0.90981997609E+03  0.17199128834E+03 0.  0.
        -24    2    3    3    0    0 -0.11462577135E+02  0.23243275234E+02 -0.75120524532E+03  0.75597053364E+03  0.80687586549E+02 0.  0.
          6    2    1    2  501    0 -0.36312477505E+02  0.13924973262E+02 -0.17333495139E+03  0.24798696078E+03  0.17303186538E+03 0.  0.
         24    2    5    5    0    0 -0.31594906184E+02  0.20629339586E+02 -0.14259315872E+02  0.88630907164E+02  0.78919591148E+02 0.  0.
          5    1    5    5  501    0 -0.47175713203E+01 -0.67043663241E+01 -0.15907563552E+03  0.15935605361E+03  0.47000000000E+01 0. -1.
        -13    1    6    6    0    0 -0.56541934791E+01  0.18554246643E+02  0.30915503872E+02  0.36496552605E+02  0.00000000000E+00 0.  1.
         14    1    6    6    0    0 -0.25940712705E+02  0.20750929436E+01 -0.45174819744E+02  0.52134354559E+02  0.00000000000E+00 0. -1.
         -5    1    3    3    0  503  0.47775054639E+02 -0.37168248496E+02 -0.14136345497E+03  0.15384944245E+03  0.47000000000E+01 0.  1.
         13    1    4    4    0    0 -0.18485930666E+02 -0.24599476095E+02 -0.17041981050E+03  0.17317556313E+03  0.00000000000E+00 0. -1.
        -14    1    4    4    0    0  0.70233535316E+01  0.47842751329E+02 -0.58078543482E+03  0.58279497051E+03  0.00000000000E+00 0.  1.
</event>
<event>
12    1  0.8493057E-002  0.2160616E+03  0.7818608E-02  0.1137037E+00
         21   -1    0    0  501  502  0.00000000000E+00  0.00000000000E+00  0.14022069826E+04  0.14022069826E+04  0.00000000000E+00 0.  1.
         21   -1    0    0  502  503 -0.00000000000E+00 -0.00000000000E+00 -0.55374026915E+02  0.55374026915E+02  0.00000000000E+00 0.  1.
         -6    2    1    2    0  503 -0.12995104407E+03  0.88298791708E+01  0.21255849718E+03  0.30309030917E+03  0.17238729699E+03 0.  0.
        -24    2    3    3    0    0 -0.99530705811E+01 -0.32982077897E+02  0.10657407712E+03  0.13755318133E+03  0.79849625575E+02 0.  0.
          6    2    1    2  501    0  0.12995104407E+03 -0.88298791708E+01  0.11342744585E+04  0.11544907003E+04  0.17118700113E+03 0.  0.
         24    2    5    5    0    0  0.10070683682E+03 -0.65665935213E+02  0.63420380103E+03  0.65032970087E+03  0.79122541475E+02 0.  0.
          5    1    5    5  501    0  0.29244207247E+02  0.56836056042E+02  0.50007065747E+03  0.50416099947E+03  0.47000000000E+01 0. -1.
        -11    1    6    6    0    0  0.11230796914E+03 -0.51716853631E+02  0.58407594624E+03  0.59701961764E+03  0.00000000000E+00 0.  1.
         12    1    6    6    0    0 -0.11601132311E+02 -0.13949081581E+02  0.50127854793E+02  0.53310083230E+02  0.00000000000E+00 0. -1.
         -5    1    3    3    0  503 -0.11999797349E+03  0.41811957067E+02  0.10598442006E+03  0.16553712783E+03  0.47000000000E+01 0.  1.
         11    1    4    4    0    0 -0.32529796774E+02 -0.48950856677E+02  0.79366023319E+02  0.98758998097E+02  0.00000000000E+00 0. -1.
        -12    1    4    4    0    0  0.22576726193E+02  0.15968778780E+02  0.27208053800E+02  0.38794183236E+02  0.00000000000E+00 0.  1.
</event>
<event>
12    1  0.8493057E-002  0.2538854E+03  0.7818608E-02  0.1111102E+00
         21   -1    0    0  501  502  0.00000000000E+00  0.00000000000E+00  0.38634500033E+03  0.38634500033E+03  0.00000000000E+00 0. -1.
         21   -1    0    0  502  503 -0.00000000000E+00 -0.00000000000E+00 -0.18154845185E+03  0.18154845185E+03  0.00000000000E+00 0.  1.
         -6    2    1    2    0  503  0.12673629676E+03 -0.13671392962E+03  0.19240533574E+02  0.25461345101E+03  0.17235145440E+03 0.  0.
        -24    2    3    3    0    0  0.15364539401E+03 -0.12270955961E+03  0.41599595065E+02  0.21663662222E+03  0.80847737485E+02 0.  0.
          6    2    1    2  501    0 -0.12673629676E+03  0.13671392962E+03  0.18555601490E+03  0.31328000118E+03  0.17017795687E+03 0.  0.
         24    2    5    5    0    0 -0.10133647217E+03  0.22781823749E+02  0.10524081885E+03  0.17151154011E+03  0.86905042163E+02 0.  0.
          5    1    5    5  501    0 -0.25399824595E+02  0.11393210587E+03  0.80315196047E+02  0.14176846107E+03  0.47000000000E+01 0. -1.
        -11    1    6    6    0    0 -0.40430586949E+02 -0.12850932501E+01 -0.74904549781E+01  0.41138676954E+02  0.00000000000E+00 0.  1.
         12    1    6    6    0    0 -0.60905885219E+02  0.24066916999E+02  0.11273127383E+03  0.13037286316E+03  0.00000000000E+00 0. -1.
         -5    1    3    3    0  503 -0.26909097247E+02 -0.14004370002E+02 -0.22359061491E+02  0.37976828785E+02  0.47000000000E+01 0.  1.
         13    1    4    4    0    0  0.96413497875E+02 -0.99346535443E+02  0.61795044529E+02  0.15160449929E+03  0.00000000000E+00 0. -1.
        -14    1    4    4    0    0  0.57231896136E+02 -0.23363024172E+02 -0.20195449464E+02  0.65032122930E+02  0.00000000000E+00 0.  1.
</event>
<event>
12    1  0.8493057E-002  0.1839196E+03  0.7818608E-02  0.1164266E+00
         21   -1    0    0  501  502  0.00000000000E+00  0.00000000000E+00  0.21290799398E+03  0.21290799398E+03  0.00000000000E+00 0.  1.
         21   -1    0    0  502  503 -0.00000000000E+00 -0.00000000000E+00 -0.16970698454E+03  0.16970698454E+03  0.00000000000E+00 0.  1.
         -6    2    1    2    0  503  0.51903694011E+02  0.37204399238E+02  0.71513939860E+02  0.19652888756E+03  0.17155523681E+03 0.  0.
        -24    2    3    3    0    0  0.40489002868E+02  0.21506131160E+02  0.11548414735E+03  0.14823603156E+03  0.80842190298E+02 0.  0.
          6    2    1    2  501    0 -0.51903694011E+02 -0.37204399238E+02 -0.28312930421E+02  0.18608609096E+03  0.17247681132E+03 0.  0.
         24    2    5    5    0    0  0.34351817168E+02 -0.39962546947E+02 -0.20082620226E+02  0.99267610246E+02  0.81692682093E+02 0.  0.
          5    1    5    5  501    0 -0.86255511178E+02  0.27581477093E+01 -0.82303101946E+01  0.86818480713E+02  0.47000000000E+01 0. -1.
        -13    1    6    6    0    0 -0.11086412842E+02  0.78541891113E+00 -0.34760813003E+02  0.36494377008E+02  0.00000000000E+00 0.  1.
         14    1    6    6    0    0  0.45438230009E+02 -0.40747965858E+02  0.14678192777E+02  0.62773233238E+02  0.00000000000E+00 0. -1.
         -5    1    3    3    0  503  0.11414691142E+02  0.15698268078E+02 -0.43970207488E+02  0.48292856005E+02  0.47000000000E+01 0.  1.
         13    1    4    4    0    0 -0.21617935364E+02  0.12045813819E+02  0.12808807379E+02  0.27865790971E+02  0.00000000000E+00 0. -1.
        -14    1    4    4    0    0  0.62106938232E+02  0.94603173405E+01  0.10267533997E+03  0.12037024059E+03  0.00000000000E+00 0.  1.
</event>
<event>
12    1  0.8493057E-002  0.2613532E+03  0.7818608E-02  0.1106592E+00
         21   -1    0    0  503  502  0.00000000000E+00  0.00000000000E+00  0.31004809569E+03  0.31004809569E+03  0.00000000000E+00 0.  1.
         21   -1    0    0  501  503 -0.00000000000E+00 -0.00000000000E+00 -0.22876507289E+03  0.22876507289E+03  0.00000000000E+00 0.  1.
          6    2    1    2  501    0  0.17989111571E+03  0.78779372117E+02  0.96593782087E+02  0.27701188127E+03  0.16981819880E+03 0.  0.
         24    2    3    3    0    0  0.65491873707E+02 -0.19746682187E+02  0.16874222794E+02  0.10621414100E+03  0.79483252163E+02 0.  0.
         -6    2    1    2    0  502 -0.17989111571E+03 -0.78779372117E+02 -0.15310759287E+02  0.26180128731E+03  0.17244851900E+03 0.  0.
        -24    2    5    5    0    0 -0.45456834974E+02 -0.46303611235E+02  0.45720824592E+02  0.11055911359E+03  0.76958271400E+02 0.  0.
          5    1    3    3  501    0  0.11439924200E+03  0.98526054304E+02  0.79719559293E+02  0.17079774027E+03  0.47000000000E+01 0. -1.
        -13    1    4    4    0    0  0.73065530527E+02  0.10340922032E+02  0.10451251955E+02  0.74530095177E+02  0.00000000000E+00 0.  1.
         14    1    4    4    0    0 -0.75736568205E+01 -0.30087604219E+02  0.64229708386E+01  0.31684045822E+02  0.00000000000E+00 0. -1.
         -5    1    5    5    0  502 -0.13443428074E+03 -0.32475760883E+02 -0.61031583879E+02  0.15124217372E+03  0.47000000000E+01 0.  1.
         11    1    6    6    0    0 -0.33006183261E+02 -0.55679267646E+02  0.26792130309E+01  0.64782460293E+02  0.00000000000E+00 0. -1.
        -12    1    6    6    0    0 -0.12450651713E+02  0.93756564115E+01  0.43041611561E+02  0.45776653296E+02  0.00000000000E+00 0.  1.
</event>
<event>
12    1  0.8493057E-002  0.1873472E+03  0.7818608E-02  0.1163083E+00
         21   -1    0    0  501  502  0.00000000000E+00  0.00000000000E+00  0.29921191004E+03  0.29921191004E+03  0.00000000000E+00 0.  1.
         21   -1    0    0  502  503 -0.00000000000E+00 -0.00000000000E+00 -0.93219532156E+03  0.93219532156E+03  0.00000000000E+00 0.  1.
         -6    2    1    2    0  503  0.45110591837E+02 -0.16247765390E+02 -0.89320094108E+03  0.91076392747E+03  0.17141777931E+03 0.  0.
        -24    2    3    3    0    0  0.65419231216E+02 -0.67057049142E+02 -0.62398344843E+03  0.63600189862E+03  0.79791901131E+02 0.  0.
          6    2    1    2  501    0 -0.45110591837E+02  0.16247765390E+02  0.26021752955E+03  0.32064330413E+03  0.18110773152E+03 0.  0.
         24    2    5    5    0    0 -0.75937419677E+02  0.64120958460E+02  0.14861778784E+03  0.19526895156E+03  0.78515779060E+02 0.  0.
          5    1    5    5  501    0  0.30826827840E+02 -0.47873193070E+02  0.11159974172E+03  0.12537435256E+03  0.47000000000E+01 0. -1.
        -13    1    6    6    0    0 -0.26030508237E+02  0.38283615337E+02  0.12679485801E+03  0.13498206762E+03  0.00000000000E+00 0.  1.
         14    1    6    6    0    0 -0.49906911440E+02  0.25837343123E+02  0.21822929834E+02  0.60286883944E+02  0.00000000000E+00 0. -1.
         -5    1    3    3    0  503 -0.20308639379E+02  0.50809283752E+02 -0.26921749265E+03  0.27476202885E+03  0.47000000000E+01 0.  1.
         11    1    4    4    0    0  0.22224715127E+01 -0.57395378919E+02 -0.34817008198E+03  0.35287614667E+03  0.00000000000E+00 0. -1.
        -12    1    4    4    0    0  0.63196759703E+02 -0.96616702238E+01 -0.27581336645E+03  0.28312575196E+03  0.00000000000E+00 0.  1.
</event>
<event>
12    1  0.8493057E-002  0.2793928E+03  0.7818608E-02  0.1096301E+00
         21   -1    0    0  503  502  0.00000000000E+00  0.00000000000E+00  0.68534577058E+03  0.68534577058E+03  0.00000000000E+00 0. -1.
         21   -1    0    0  501  503 -0.00000000000E+00 -0.00000000000E+00 -0.18364607263E+03  0.18364607263E+03  0.00000000000E+00 0. -1.
          6    2    1    2  501    0  0.21624274491E+03 -0.22157240738E+02 -0.19067052877E+02  0.27801103045E+03  0.17226349729E+03 0.  0.
         24    2    3    3    0    0  0.18890579605E+03  0.39300546642E+02 -0.22723525587E+02  0.21048453050E+03  0.80978060092E+02 0.  0.
         -6    2    1    2    0  502 -0.21624274491E+03  0.22157240738E+02  0.52076675083E+03  0.59098081276E+03  0.17552334385E+03 0.  0.
        -24    2    5    5    0    0 -0.22181223883E+03 -0.13212767236E+02  0.39354174529E+03  0.45872973049E+03  0.78629598990E+02 0.  0.
          5    1    3    3  501    0  0.27336948864E+02 -0.61457787379E+02  0.36564727099E+01  0.67526499950E+02  0.47000000000E+01 0. -1.
        -11    1    4    4    0    0  0.42465644470E+02 -0.15997126078E+02  0.17874984887E+02  0.48772472643E+02  0.00000000000E+00 0.  1.
         12    1    4    4    0    0  0.14644015158E+03  0.55297672720E+02 -0.40598510473E+02  0.16171205785E+03  0.00000000000E+00 0. -1.
         -5    1    5    5    0  502  0.55694939183E+01  0.35370007974E+02  0.12722500554E+03  0.13225108227E+03  0.47000000000E+01 0.  1.
         13    1    6    6    0    0 -0.10969021974E+03 -0.43910945817E+02  0.22245954000E+03  0.25188958375E+03  0.00000000000E+00 0. -1.
        -14    1    6    6    0    0 -0.11212201910E+03  0.30698178581E+02  0.17108220529E+03  0.20684014674E+03  0.00000000000E+00 0.  1.
</event>
<event>
12    1  0.8493057E-002  0.2184042E+03  0.7818608E-02  0.1135305E+00
         21   -1    0    0  503  502  0.00000000000E+00  0.00000000000E+00  0.75596344534E+02  0.75596344534E+02  0.00000000000E+00 0. -1.
         21   -1    0    0  501  503 -0.00000000000E+00 -0.00000000000E+00 -0.81423851566E+03  0.81423851566E+03  0.00000000000E+00 0.  1.
          6    2    1    2  501    0 -0.86766895382E+02  0.99634705370E+02 -0.58159022702E+03  0.62082610130E+03  0.17240152912E+03 0.  0.
         24    2    3    3    0    0 -0.12079351007E+03  0.10405822591E+03 -0.43312770434E+03  0.46837745853E+03  0.79741137073E+02 0.  0.
         -6    2    1    2    0  502  0.86766895382E+02 -0.99634705370E+02 -0.15705194410E+03  0.26900875889E+03  0.17391040960E+03 0.  0.
        -24    2    5    5    0    0  0.11671673516E+03 -0.35518067469E+02 -0.12896011599E+03  0.19272522879E+03  0.75019816811E+02 0.  0.
          5    1    3    3  501    0  0.34026614684E+02 -0.44235205402E+01 -0.14846252268E+03  0.15244864277E+03  0.47000000000E+01 0. -1.
        -13    1    4    4    0    0 -0.12684900470E+03  0.86312159464E+02 -0.41433481811E+03  0.44183005824E+03  0.00000000000E+00 0.  1.
         14    1    4    4    0    0  0.60554946314E+01  0.17746066446E+02 -0.18792886224E+02  0.26547400290E+02  0.00000000000E+00 0. -1.
         -5    1    5    5    0  502 -0.29949839773E+02 -0.64116637900E+02 -0.28091828113E+02  0.76283530102E+02  0.47000000000E+01 0.  1.
         13    1    6    6    0    0  0.45410209273E+02  0.22617177897E+02 -0.38348031542E+02  0.63593988437E+02  0.00000000000E+00 0. -1.
        -14    1    6    6    0    0  0.71306525882E+02 -0.58135245366E+02 -0.90612084450E+02  0.12913124035E+03  0.00000000000E+00 0.  1.
</event>
<event>
12    1  0.8493057E-002  0.1770936E+03  0.7818608E-02  0.1171193E+00
         21   -1    0    0  503  502  0.00000000000E+00  0.00000000000E+00  0.45997883047E+03  0.45997883047E+03  0.00000000000E+00 0. -1.
         21   -1    0    0  501  503 -0.00000000000E+00 -0.00000000000E+00 -0.10909314887E+03  0.10909314887E+03  0.00000000000E+00 0. -1.
          6    2    1    2  501    0  0.21877674209E+02  0.23593158509E+02  0.87595824784E-01  0.17709366783E+03  0.17414617353E+03 0.  0.
         24    2    3    3    0    0  0.55849734923E+02 -0.36474886237E+02  0.17729726795E+02  0.10571015647E+03  0.80066745605E+02 0.  0.
         -6    2    1    2    0  502 -0.21877674209E+02 -0.23593158509E+02  0.35079808578E+03  0.39197831150E+03  0.17190820209E+03 0.  0.
        -24    2    5    5    0    0 -0.81118168357E+02 -0.23471915592E+02  0.22496757318E+03  0.25282063565E+03  0.78592472743E+02 0.  0.
          5    1    3    3  501    0 -0.33972060715E+02  0.60068044746E+02 -0.17642130970E+02  0.71383511359E+02  0.47000000000E+01 0. -1.
        -13    1    4    4    0    0  0.27172117230E+02  0.11189323725E+02  0.36630212993E+02  0.46960594376E+02  0.00000000000E+00 0.  1.
         14    1    4    4    0    0  0.28677617693E+02 -0.47664209962E+02 -0.18900486198E+02  0.58749562095E+02  0.00000000000E+00 0. -1.
         -5    1    5    5    0  502  0.59240494148E+02 -0.12124291745E+00  0.12583051260E+03  0.13915767585E+03  0.47000000000E+01 0.  1.
         11    1    6    6    0    0 -0.74536975910E+02  0.11034579254E+02  0.11594051657E+03  0.13827409772E+03  0.00000000000E+00 0. -1.
        -12    1    6    6    0    0 -0.65811924468E+01 -0.34506494846E+02  0.10902705661E+03  0.11454653794E+03  0.00000000000E+00 0.  1.
</event>
<event>
12    1  0.8493057E-002  0.1799802E+03  0.7818608E-02  0.1168009E+00
         21   -1    0    0  503  502  0.00000000000E+00  0.00000000000E+00  0.13339524641E+03  0.13339524641E+03  0.00000000000E+00 0.  1.
         21   -1    0    0  501  503 -0.00000000000E+00 -0.00000000000E+00 -0.31018315948E+03  0.31018315948E+03  0.00000000000E+00 0.  1.
          6    2    1    2  501    0  0.57135526560E+01  0.53937978771E+02  0.15891344941E+02  0.17991545493E+03  0.17080715980E+03 0.  0.
         24    2    3    3    0    0 -0.80297850245E+00 -0.35678021391E+02  0.23551905151E+02  0.89614475721E+02  0.78755927000E+02 0.  0.
         -6    2    1    2    0  502 -0.57135526560E+01 -0.53937978771E+02 -0.19267925801E+03  0.26366295096E+03  0.17161265981E+03 0.  0.
        -24    2    5    5    0    0  0.66512724253E+01  0.36832878389E+02 -0.10305148824E+03  0.13541528228E+03  0.79478230299E+02 0.  0.
          5    1    3    3  501    0  0.65165311584E+01  0.89616000162E+02 -0.76605602108E+01  0.90300979209E+02  0.47000000000E+01 0. -1.
        -11    1    4    4    0    0 -0.17417357397E+02  0.19799424131E+02  0.16902460423E+02  0.31322112045E+02  0.00000000000E+00 0.  1.
         12    1    4    4    0    0  0.16614378894E+02 -0.55477445522E+02  0.66494447289E+01  0.58292363676E+02  0.00000000000E+00 0. -1.
         -5    1    5    5    0  502 -0.12364825081E+02 -0.90770857160E+02 -0.89627769768E+02  0.12824766868E+03  0.47000000000E+01 0.  1.
         11    1    6    6    0    0 -0.35584000930E+02  0.26498142527E+02 -0.52577192278E+02  0.68794867740E+02  0.00000000000E+00 0. -1.
        -12    1    6    6    0    0  0.42235273355E+02  0.10334735862E+02 -0.50474295960E+02  0.66620414540E+02  0.00000000000E+00 0.  1.
</event>
<event>
12    1  0.8493057E-002  0.1744902E+03  0.7818608E-02  0.1174196E+00
         21   -1    0    0  501  502  0.00000000000E+00  0.00000000000E+00  0.60250911544E+03  0.60250911544E+03  0.00000000000E+00 0. -1.
         21   -1    0    0  502  503 -0.00000000000E+00 -0.00000000000E+00 -0.10975546575E+03  0.10975546575E+03  0.00000000000E+00 0. -1.
         -6    2    1    2    0  503 -0.13704583837E+01 -0.28548681820E+02 -0.18780102838E+02  0.17178922273E+03  0.16835064417E+03 0.  0.
        -24    2    3    3    0    0  0.45939777669E+02  0.18859931938E+01 -0.52003381010E+02  0.10628804647E+03  0.80490850686E+02 0.  0.
          6    2    1    2  501    0  0.13704583837E+01  0.28548681820E+02  0.51153375253E+03  0.54047535845E+03  0.17213345906E+03 0.  0.
         24    2    5    5    0    0 -0.25249305887E+02  0.18828272690E+02  0.50317956859E+03  0.51055913221E+03  0.80553820115E+02 0.  0.
          5    1    5    5  501    0  0.26619764271E+02  0.97204091299E+01  0.83541839396E+01  0.29916226246E+02  0.47000000000E+01 0. -1.
        -13    1    6    6    0    0 -0.45810876361E+02 -0.13421653813E+02  0.25154584963E+03  0.25603533282E+03  0.00000000000E+00 0.  1.
         14    1    6    6    0    0  0.20561570474E+02  0.32249926503E+02  0.25163371895E+03  0.25452379939E+03  0.00000000000E+00 0. -1.
         -5    1    3    3    0  503 -0.47310236052E+02 -0.30434675014E+02  0.33223278172E+02  0.65501176257E+02  0.47000000000E+01 0.  1.
         13    1    4    4    0    0  0.42476179317E+02 -0.17191192308E+02 -0.67419121405E+02  0.81517487899E+02  0.00000000000E+00 0. -1.
        -14    1    4    4    0    0  0.34635983515E+01  0.19077185502E+02  0.15415740395E+02  0.24770558575E+02  0.00000000000E+00 0.  1.
</event>
<event>
12    1  0.8493057E-002  0.2742597E+03  0.7818608E-02  0.1099072E+00
         21   -1    0    0  503  502  0.00000000000E+00  0.00000000000E+00  0.68279210419E+02  0.68279210419E+02  0.00000000000E+00 0. -1.
         21   -1    0    0  501  503 -0.00000000000E+00 -0.00000000000E+00 -0.17131085840E+04  0.17131085840E+04  0.00000000000E+00 0.  1.
          6    2    1    2  501    0 -0.19932331636E+03 -0.69584214577E+02 -0.13556973263E+04  0.13828709074E+04  0.17275693527E+03 0.  0.
         24    2    3    3    0    0 -0.16218598739E+03 -0.92946172309E+02 -0.12718030363E+04  0.12880800631E+04  0.82000002126E+02 0.  0.
         -6    2    1    2    0  502  0.19932331636E+03  0.69584214577E+02 -0.28913204728E+03  0.39851688700E+03  0.17506176367E+03 0.  0.
        -24    2    5    5    0    0  0.40510608952E+02  0.35184467454E+02 -0.17628423468E+03  0.20062414473E+03  0.79340152915E+02 0.  0.
          5    1    3    3  501    0 -0.37137328968E+02  0.23361957732E+02 -0.83894289951E+02  0.94790844275E+02  0.47000000000E+01 0. -1.
        -11    1    4    4    0    0 -0.10147152940E+03 -0.16795377612E+02 -0.77754341310E+03  0.78431646371E+03  0.00000000000E+00 0.  1.
         12    1    4    4    0    0 -0.60714457987E+02 -0.76150794697E+02 -0.49425962323E+03  0.50376359942E+03  0.00000000000E+00 0. -1.
         -5    1    5    5    0  502  0.15881270741E+03  0.34399747123E+02 -0.11284781261E+03  0.19789274228E+03  0.47000000000E+01 0.  1.
         13    1    6    6    0    0  0.15709169973E+02  0.79461137235E+01  0.27687817324E+01  0.17820911784E+02  0.00000000000E+00 0. -1.
        -14    1    6    6    0    0  0.24801438979E+02  0.27238353731E+02 -0.17905301641E+03  0.18280323294E+03  0.00000000000E+00 0.  1.
</event>
<event>
12    1  0.8493057E-002  0.2797630E+03  0.7818608E-02  0.1095915E+00
         21   -1    0    0  503  502  0.00000000000E+00  0.00000000000E+00  0.24772380779E+03  0.24772380779E+03  0.00000000000E+00 0.  1.
         21   -1    0    0  501  503 -0.00000000000E+00 -0.00000000000E+00 -0.39463787175E+03  0.39463787175E+03  0.00000000000E+00 0.  1.
          6    2    1    2  501    0  0.66265417114E+02 -0.21088463924E+03 -0.21752597241E+03  0.35382510049E+03  0.17032679323E+03 0.  0.
         24    2    3    3    0    0  0.92400628297E+02 -0.19700335275E+03 -0.13935854774E+03  0.27011144774E+03  0.78684129697E+02 0.  0.
         -6    2    1    2    0  502 -0.66265417114E+02  0.21088463924E+03  0.70611908452E+02  0.28853657906E+03  0.17147559379E+03 0.  0.
        -24    2    5    5    0    0 -0.75015498023E+02  0.19976461366E+03  0.12376644277E+02  0.22842289610E+03  0.80564336562E+02 0.  0.
          5    1    3    3  501    0 -0.26135211184E+02 -0.13881286491E+02 -0.78167424666E+02  0.83713652752E+02  0.47000000000E+01 0. -1.
        -13    1    4    4    0    0  0.47649861673E+02 -0.13057358338E+03 -0.12847733548E+03  0.18927861931E+03  0.00000000000E+00 0.  1.
         14    1    4    4    0    0  0.44750766624E+02 -0.66429769365E+02 -0.10881212259E+02  0.80832828427E+02  0.00000000000E+00 0. -1.
         -5    1    5    5    0  502  0.87500809095E+01  0.11120025581E+02  0.58235264175E+02  0.60113682955E+02  0.47000000000E+01 0.  1.
         11    1    6    6    0    0 -0.17878488026E+02  0.97974729953E+01 -0.18658156767E+02  0.27636165167E+02  0.00000000000E+00 0. -1.
        -12    1    6    6    0    0 -0.57137009997E+02  0.18996714066E+03  0.31034801044E+02  0.20078673093E+03  0.00000000000E+00 0.  1.
</event>
<event>
12    1  0.8493057E-002  0.2031882E+03  0.7818608E-02  0.1147723E+00
         21   -1    0    0  503  502  0.00000000000E+00  0.00000000000E+00  0.16220052037E+03  0.16220052037E+03  0.00000000000E+00 0.  1.
         21   -1    0    0  501  503 -0.00000000000E+00 -0.00000000000E+00 -0.34479174153E+03  0.34479174153E+03  0.00000000000E+00 0.  1.
          6    2    1    2  501    0  0.71542462127E+02 -0.72197018237E+02 -0.22323479255E+03  0.29977894167E+03  0.17234531597E+03 0.  0.
         24    2    3    3    0    0  0.17722289551E+02  0.23079858721E+02 -0.83081965959E+02  0.12190483153E+03  0.84329208799E+02 0.  0.
         -6    2    1    2    0  502 -0.71542462127E+02  0.72197018237E+02  0.40643571391E+02  0.20721332022E+03  0.17593955454E+03 0.  0.
        -24    2    5    5    0    0 -0.10221400037E+03  0.79807195106E+01  0.37308000036E+02  0.13581519478E+03  0.80885638472E+02 0.  0.
          5    1    3    3  501    0  0.53820172576E+02 -0.95276876959E+02 -0.14015282659E+03  0.17787411015E+03  0.47000000000E+01 0. -1.
        -11    1    4    4    0    0  0.14048117924E+02 -0.31398753665E+02 -0.36207396967E+02  0.49942035842E+02  0.00000000000E+00 0.  1.
         12    1    4    4    0    0  0.36741716273E+01  0.54478612387E+02 -0.46874568992E+02  0.71962795686E+02  0.00000000000E+00 0. -1.
         -5    1    5    5    0  502  0.30671538243E+02  0.64216298727E+02  0.33355713546E+01  0.71398125442E+02  0.47000000000E+01 0.  1.
         11    1    6    6    0    0 -0.13712902568E+02 -0.14385862771E+02  0.39812093423E+02  0.44497185610E+02  0.00000000000E+00 0. -1.
        -12    1    6    6    0    0 -0.88501097802E+02  0.22366582282E+02 -0.25040933867E+01  0.91318009170E+02  0.00000000000E+00 0.  1.
</event>
<event>
12    1  0.8493057E-002  0.2414429E+03  0.7818608E-02  0.1119323E+00
         21   -1    0    0  503  502  0.00000000000E+00  0.00000000000E+00  0.40959574630E+03  0.40959574630E+03  0.00000000000E+00 0.  1.
         21   -1    0    0  501  503 -0.00000000000E+00 -0.00000000000E+00 -0.15185386830E+03  0.15185386830E+03  0.00000000000E+00 0.  1.
          6    2    1    2  501    0 -0.10525238600E+03 -0.13197273583E+03  0.20456156929E+03  0.31421930341E+03  0.16850361196E+03 0.  0.
         24    2    3    3    0    0 -0.53345209252E+02 -0.10352019683E+03  0.53393168379E+02  0.15180662716E+03  0.81438805963E+02 0.  0.
         -6    2    1    2    0  502  0.10525238600E+03  0.13197273583E+03  0.53180308716E+02  0.24723031119E+03  0.17262622562E+03 0.  0.
        -24    2    5    5    0    0  0.96433907509E+02  0.11096210550E+03  0.99995507431E+02  0.19495254363E+03  0.79970653287E+02 0.  0.
          5    1    3    3  501    0 -0.51907176752E+02 -0.28452539001E+02  0.15116840091E+03  0.16241267625E+03  0.47000000000E+01 0. -1.
        -11    1    4    4    0    0 -0.11297550249E+02 -0.80124593907E+02  0.63231712152E+02  0.10269291413E+03  0.00000000000E+00 0.  1.
         12    1    4    4    0    0 -0.42047659003E+02 -0.23395602924E+02 -0.98385437725E+01  0.49113713028E+02  0.00000000000E+00 0. -1.
         -5    1    5    5    0  502  0.88184784947E+01  0.21010630336E+02 -0.46815198715E+02  0.52277767558E+02  0.47000000000E+01 0.  1.
         13    1    6    6    0    0  0.36489165969E+02  0.29289702188E+02  0.78499983352E+02  0.91387052002E+02  0.00000000000E+00 0. -1.
        -14    1    6    6    0    0  0.59944741540E+02  0.81672403308E+02  0.21495524080E+02  0.10356549163E+03  0.00000000000E+00 0.  1.
</event>
<event>
12    1  0.8493057E-002  0.2041197E+03  0.7818608E-02  0.1146368E+00
         21   -1    0    0  501  502  0.00000000000E+00  0.00000000000E+00  0.85416640556E+02  0.85416640556E+02  0.00000000000E+00 0.  1.
         21   -1    0    0  502  503 -0.00000000000E+00 -0.00000000000E+00 -0.49236218305E+03  0.49236218305E+03  0.00000000000E+00 0.  1.
         -6    2    1    2    0  503  0.98613478287E+02  0.48339991810E+02 -0.17373312390E+03  0.26804487436E+03  0.17205662854E+03 0.  0.
        -24    2    3    3    0    0 -0.60548801971E+01  0.33988218627E+02 -0.12383552615E+03  0.15111199223E+03  0.79421257111E+02 0.  0.
          6    2    1    2  501    0 -0.98613478287E+02 -0.48339991810E+02 -0.23321241860E+03  0.30973394924E+03  0.17171404782E+03 0.  0.
         24    2    5    5    0    0 -0.16275055438E+02 -0.48692984488E+02 -0.19725764244E+03  0.21976408535E+03  0.82157114965E+02 0.  0.
          5    1    5    5  501    0 -0.82338422849E+02  0.35299267810E+00 -0.35954776151E+02  0.89969863894E+02  0.47000000000E+01 0. -1.
        -13    1    6    6    0    0 -0.74350726310E+01  0.16601807855E+02 -0.89735277553E+01  0.20283602477E+02  0.00000000000E+00 0.  1.
         14    1    6    6    0    0 -0.88399828072E+01 -0.65294792343E+02 -0.18828411469E+03  0.19948048287E+03  0.00000000000E+00 0. -1.
         -5    1    3    3    0  503  0.10466835848E+03  0.14351773183E+02 -0.49897597753E+02  0.11693288213E+03  0.47000000000E+01 0.  1.
         11    1    4    4    0    0  0.20167072420E+02 -0.12118489105E+00 -0.99825049124E+02  0.10184186727E+03  0.00000000000E+00 0. -1.
        -12    1    4    4    0    0 -0.26221952617E+02  0.34109403518E+02 -0.24010477022E+02  0.49270124967E+02  0.00000000000E+00 0.  1.
</event>
<event>
12    1  0.8493057E-002  0.2102000E+03  0.7818608E-02  0.1141740E+00
         21   -1    0    0  501  502  0.00000000000E+00  0.00000000000E+00  0.42459421418E+02  0.42459421418E+02  0.00000000000E+00 0. -1.
         21   -1    0    0  502  503 -0.00000000000E+00 -0.00000000000E+00 -0.10415273522E+04  0.10415273522E+04  0.00000000000E+00 0. -1.
         -6    2    1    2    0  503 -0.24478753317E+02  0.11446583800E+03 -0.54840917571E+03  0.58671685357E+03  0.17257579446E+03 0.  0.
        -24    2    3    3    0    0 -0.65279085032E+02  0.12193015929E+03 -0.48752345876E+03  0.51289582886E+03  0.79086571187E+02 0.  0.
          6    2    1    2  501    0  0.24478753317E+02 -0.11446583800E+03 -0.45065875503E+03  0.49726992000E+03  0.17459216025E+03 0.  0.
         24    2    5    5    0    0  0.10648392142E+02 -0.91053740973E+02 -0.13968799628E+03  0.18507717829E+03  0.79603100566E+02 0.  0.
          5    1    5    5  501    0  0.13830361175E+02 -0.23412097030E+02 -0.31097075875E+03  0.31219274171E+03  0.47000000000E+01 0. -1.
        -11    1    6    6    0    0 -0.19237894001E+02 -0.30526315064E+02 -0.77973849052E+01  0.36915466790E+02  0.00000000000E+00 0.  1.
         12    1    6    6    0    0  0.29886286144E+02 -0.60527425909E+02 -0.13189061137E+03  0.14816171150E+03  0.00000000000E+00 0. -1.
         -5    1    3    3    0  503  0.40800331715E+02 -0.74643212867E+01 -0.60885716953E+02  0.73821024710E+02  0.47000000000E+01 0.  1.
         11    1    4    4    0    0  0.30669390439E+01  0.24929501981E+02 -0.20403382358E+03  0.20557404347E+03  0.00000000000E+00 0. -1.
        -12    1    4    4    0    0 -0.68346024076E+02  0.97000657309E+02 -0.28348963517E+03  0.30732178539E+03  0.00000000000E+00 0.  1.
</event>
<event>
12    1  0.8493057E-002  0.2404044E+03  0.7818608E-02  0.1119819E+00
         21   -1    0    0  503  502  0.00000000000E+00  0.00000000000E+00  0.13531106349E+03  0.13531106349E+03  0.00000000000E+00 0.  1.
         21   -1    0    0  501  503 -0.00000000000E+00 -0.00000000000E+00 -0.42910027728E+03  0.42910027728E+03  0.00000000000E+00 0. -1.
          6    2    1    2  501    0  0.82430186083E+02  0.14340240027E+03 -0.11662661523E+03  0.26720040639E+03  0.17445717473E+03 0.  0.
         24    2    3    3    0    0  0.10252333320E+03  0.44726850898E+02 -0.85001368071E+02  0.16154604130E+03  0.79751901819E+02 0.  0.
         -6    2    1    2    0  502 -0.82430186083E+02 -0.14340240027E+03 -0.17716259857E+03  0.29721093438E+03  0.17201386339E+03 0.  0.
        -24    2    5    5    0    0 -0.69881354226E+02 -0.13378836498E+02 -0.74871660756E+02  0.13123163965E+03  0.80954189066E+02 0.  0.
          5    1    3    3  501    0 -0.20093147118E+02  0.98675549376E+02 -0.31625247155E+02  0.10565436509E+03  0.47000000000E+01 0. -1.
        -11    1    4    4    0    0  0.41001888728E+02 -0.10745864566E+02 -0.62832970007E+02  0.75793209488E+02  0.00000000000E+00 0.  1.
         12    1    4    4    0    0  0.61521444472E+02  0.55472715464E+02 -0.22168398064E+02  0.85752831812E+02  0.00000000000E+00 0. -1.
         -5    1    5    5    0  502 -0.12548831857E+02 -0.13002356378E+03 -0.10229093781E+03  0.16597929472E+03  0.47000000000E+01 0.  1.
         11    1    6    6    0    0 -0.58516714673E+02 -0.34777702445E+02 -0.81425862192E+02  0.10613135973E+03  0.00000000000E+00 0. -1.
        -12    1    6    6    0    0 -0.11364639553E+02  0.21398865947E+02  0.65542014362E+01  0.25100279928E+02  0.00000000000E+00 0.  1.
</event>
<event>
12    1  0.8493057E-002  0.2342217E+03  0.7818608E-02  0.1123997E+00
         21   -1    0    0  501  502  0.00000000000E+00  0.00000000000E+00  0.53938813052E+03  0.53938813052E+03  0.00000000000E+00 0. -1.
         21   -1    0    0  502  503 -0.00000000000E+00 -0.00000000000E+00 -0.12343857252E+03  0.12343857252E+03  0.00000000000E+00 0. -1.
         -6    2    1    2    0  503 -0.55029085569E+02  0.14607552370E+03  0.67200389674E+02  0.24367125541E+03  0.17462396588E+03 0.  0.
        -24    2    3    3    0    0 -0.81761008900E+02  0.33225322424E+02  0.30890179189E+02  0.12205593961E+03  0.78451670448E+02 0.  0.
          6    2    1    2  501    0  0.55029085569E+02 -0.14607552370E+03  0.34874916832E+03  0.41915544763E+03  0.17233411731E+03 0.  0.
         24    2    5    5    0    0  0.23898832581E+02 -0.56319657309E+02  0.29077530625E+03  0.30776304714E+03  0.80154578547E+02 0.  0.
          5    1    5    5  501    0  0.31130252988E+02 -0.89755866394E+02  0.57973862074E+02  0.11139240049E+03  0.47000000000E+01 0. -1.
        -11    1    6    6    0    0 -0.13777703886E+02  0.29342136187E+01  0.14785977722E+03  0.14852928483E+03  0.00000000000E+00 0.  1.
         12    1    6    6    0    0  0.37676536466E+02 -0.59253870928E+02  0.14291552903E+03  0.15923376230E+03  0.00000000000E+00 0. -1.
         -5    1    3    3    0  503  0.26731923331E+02  0.11285020128E+03  0.36310210485E+02  0.12161531581E+03  0.47000000000E+01 0.  1.
         11    1    4    4    0    0 -0.13259219577E+02  0.41857362833E+02 -0.50873997520E+01  0.44200988262E+02  0.00000000000E+00 0. -1.
        -12    1    4    4    0    0 -0.68501789323E+02 -0.86320404094E+01  0.35977578941E+02  0.77854951343E+02  0.00000000000E+00 0.  1.
</event>
<event>
12    1  0.8493057E-002  0.1853546E+03  0.7818608E-02  0.1162854E+00
         21   -1    0    0  501  502  0.00000000000E+00  0.00000000000E+00  0.34375105979E+02  0.34375105979E+02  0.00000000000E+00 0.  1.
         21   -1    0    0  502  503 -0.00000000000E+00 -0.00000000000E+00 -0.11165489528E+04  0.11165489528E+04  0.00000000000E+00 0.  1.
         -6    2    1    2    0  503 -0.52610392727E+02  0.44834656727E+02 -0.73066664662E+03  0.75381037453E+03  0.17198352361E+03 0.  0.
        -24    2    3    3    0    0 -0.35632852998E+02  0.43057053210E+00 -0.67249732433E+03  0.67853939883E+03  0.83025170496E+02 0.  0.
          6    2    1    2  501    0  0.52610392727E+02 -0.44834656727E+02 -0.35150720023E+03  0.39711368428E+03  0.17135917415E+03 0.  0.
         24    2    5    5    0    0 -0.36672709193E+02 -0.18348523525E+02 -0.16201318642E+03  0.18591932164E+03  0.81462664279E+02 0.  0.
          5    1    5    5  501    0  0.89283101920E+02 -0.26486133202E+02 -0.18949401381E+03  0.21119436264E+03  0.47000000000E+01 0. -1.
        -11    1    6    6    0    0 -0.31924719148E+02 -0.45294116514E+01 -0.10804819428E+02  0.34006578561E+02  0.00000000000E+00 0.  1.
         12    1    6    6    0    0 -0.47479900454E+01 -0.13819111874E+02 -0.15120836699E+03  0.15191274308E+03  0.00000000000E+00 0. -1.
         -5    1    3    3    0  503 -0.16977539728E+02  0.44404086195E+02 -0.58169322295E+02  0.75270975697E+02  0.47000000000E+01 0.  1.
         11    1    4    4    0    0 -0.12037657258E+02 -0.86479195602E+00 -0.10146574130E+02  0.15767245288E+02  0.00000000000E+00 0. -1.
        -12    1    4    4    0    0 -0.23595195740E+02  0.12953624881E+01 -0.66235075020E+03  0.66277215355E+03  0.00000000000E+00 0.  1.
</event>
<event>
12    1  0.8493057E-002  0.1873611E+03  0.7818608E-02  0.1162111E+00
         21   -1    0    0  503  502  0.00000000000E+00  0.00000000000E+00  0.13173730236E+03  0.13173730236E+03  0.00000000000E+00 0.  1.
         21   -1    0    0  501  503 -0.00000000000E+00 -0.00000000000E+00 -0.26330771635E+03  0.26330771635E+03  0.00000000000E+00 0.  1.
          6    2    1    2  501    0 -0.66072636901E+02 -0.10867310985E+02 -0.39343237139E+02  0.18621488957E+03  0.16924657454E+03 0.  0.
         24    2    3    3    0    0 -0.68968805014E+02  0.20962948067E+02  0.25192404208E+02  0.11404500537E+03  0.84708115097E+02 0.  0.
         -6    2    1    2    0  502  0.66072636901E+02  0.10867310985E+02 -0.92227176854E+02  0.20883012914E+03  0.17498708207E+03 0.  0.
        -24    2    5    5    0    0  0.10102625076E+03  0.21186633198E+02 -0.10770528168E+03  0.16895651303E+03  0.79313925795E+02 0.  0.
          5    1    3    3  501    0  0.28961681122E+01 -0.31830259051E+02 -0.64535641347E+02  0.72169884198E+02  0.47000000000E+01 0. -1.
        -13    1    4    4    0    0 -0.32826573585E+02 -0.32822130029E+02  0.11129807430E+02  0.47736241645E+02  0.00000000000E+00 0.  1.
         14    1    4    4    0    0 -0.36142231428E+02  0.53785078096E+02  0.14062596778E+02  0.66308763724E+02  0.00000000000E+00 0. -1.
         -5    1    5    5    0  502 -0.34953613857E+02 -0.10319322213E+02  0.15478104830E+02  0.39873616111E+02  0.47000000000E+01 0.  1.
         11    1    6    6    0    0  0.13718428574E+02  0.33652634884E+02 -0.10767132087E+02  0.37902852802E+02  0.00000000000E+00 0. -1.
        -12    1    6    6    0    0  0.87307822185E+02 -0.12466001686E+02 -0.96938149596E+02  0.13105366023E+03  0.00000000000E+00 0.  1.
</event>
<event>
12    1  0.8493057E-002  0.1764363E+03  0.7818608E-02  0.1172959E+00
         21   -1    0    0  501  502  0.00000000000E+00  0.00000000000E+00  0.99453604144E+02  0.99453604144E+02  0.00000000000E+00 0. -1.
         21   -1    0    0  502  503 -0.00000000000E+00 -0.00000000000E+00 -0.59676123408E+03  0.59676123408E+03  0.00000000000E+00 0. -1.
         -6    2    1    2    0  503 -0.18847551187E+01  0.42005726657E+01 -0.49587470443E+03  0.52632832625E+03  0.17637626655E+03 0.  0.
        -24    2    3    3    0    0 -0.53518272849E+02 -0.43696669888E+02 -0.31758152533E+03  0.33457141317E+03  0.79412850307E+02 0.  0.
          6    2    1    2  501    0  0.18847551187E+01 -0.42005726657E+01 -0.14329254996E+01  0.16988651197E+03  0.16981806901E+03 0.  0.
         24    2    5    5    0    0 -0.51983746498E+02  0.36821618819E+02 -0.19283212978E+01  0.10201184013E+03  0.79652718667E+02 0.  0.
          5    1    5    5  501    0  0.53868501617E+02 -0.41022191485E+02  0.49539579820E+00  0.67874671842E+02  0.47000000000E+01 0. -1.
        -11    1    6    6    0    0  0.89735214402E+01  0.83963477821E+01 -0.27448472287E+02  0.30073931802E+02  0.00000000000E+00 0.  1.
         12    1    6    6    0    0 -0.60957267939E+02  0.28425271037E+02  0.25520150989E+02  0.71937908328E+02  0.00000000000E+00 0. -1.
         -5    1    3    3    0  503  0.51633517730E+02  0.47897242553E+02 -0.17829317910E+03  0.19175691308E+03  0.47000000000E+01 0.  1.
         13    1    4    4    0    0 -0.20161067777E+02 -0.33371558397E+01 -0.24062586289E+03  0.24149205195E+03  0.00000000000E+00 0. -1.
        -14    1    4    4    0    0 -0.33357205072E+02 -0.40359514048E+02 -0.76955662442E+02  0.93079361226E+02  0.00000000000E+00 0.  1.
</event>
<event>
12    1  0.8493057E-002  0.1979319E+03  0.7818608E-02  0.1151807E+00
         21   -1    0    0  503  502  0.00000000000E+00  0.00000000000E+00  0.34715419447E+03  0.34715419447E+03  0.00000000000E+00 0. -1.
         21   -1    0    0  501  503 -0.00000000000E+00 -0.00000000000E+00 -0.11218913092E+03  0.11218913092E+03  0.00000000000E+00 0.  1.
          6    2    1    2  501    0 -0.88442454650E+02 -0.34589265541E+02  0.10915297234E+03  0.22603404999E+03  0.17366212975E+03 0.  0.
         24    2    3    3    0    0 -0.65904791962E+02 -0.35647842629E+02  0.14406604311E+03  0.18420010043E+03  0.86950801799E+02 0.  0.
         -6    2    1    2    0  502  0.88442454650E+02  0.34589265541E+02  0.12581209122E+03  0.23330927540E+03  0.17200596099E+03 0.  0.
        -24    2    5    5    0    0  0.12322933891E+03 -0.85429196480E+00  0.92960603119E+02  0.17357918788E+03  0.79384261342E+02 0.  0.
          5    1    3    3  501    0 -0.22537662687E+02  0.10585770883E+01 -0.34913070775E+02  0.41833949560E+02  0.47000000000E+01 0. -1.
        -13    1    4    4    0    0 -0.62047529367E+02 -0.21218391306E+02  0.35415377702E+02  0.74527612386E+02  0.00000000000E+00 0.  1.
         14    1    4    4    0    0 -0.38572625954E+01 -0.14429451323E+02  0.10865066541E+03  0.10967248804E+03  0.00000000000E+00 0. -1.
         -5    1    5    5    0  502 -0.34786884260E+02  0.35443557506E+02  0.32851488099E+02  0.59730087523E+02  0.47000000000E+01 0.  1.
         13    1    6    6    0    0 -0.73220144305E+01  0.12543823782E+02  0.15250178801E+02  0.21060089361E+02  0.00000000000E+00 0. -1.
        -14    1    6    6    0    0  0.13055135334E+03 -0.13398115747E+02  0.77710424318E+02  0.15251909852E+03  0.00000000000E+00 0.  1.
</event>
<event>
12    1  0.8493057E-002  0.2191960E+03  0.7818608E-02  0.1134629E+00
         21   -1    0    0  501  502  0.00000000000E+00  0.00000000000E+00  0.12435989822E+03  0.12435989822E+03  0.00000000000E+00 0. -1.
         21   -1    0    0  502  503 -0.00000000000E+00 -0.00000000000E+00 -0.46465372936E+03  0.46465372936E+03  0.00000000000E+00 0.  1.
         -6    2    1    2    0  503 -0.13105326200E+03  0.28510061086E+02 -0.29184310085E+03  0.36452670185E+03  0.17239356073E+03 0.  0.
        -24    2    3    3    0    0 -0.21193295791E+02  0.59503653889E+02 -0.16184183119E+03  0.19145956146E+03  0.80462070177E+02 0.  0.
          6    2    1    2  501    0  0.13105326200E+03 -0.28510061086E+02 -0.48450730286E+02  0.22448692573E+03  0.17337567733E+03 0.  0.
         24    2    5    5    0    0  0.22767042217E+02 -0.38771432224E+02  0.20807253473E+02  0.95452203856E+02  0.81588107319E+02 0.  0.
          5    1    5    5  501    0  0.10828621979E+03  0.10261371138E+02 -0.69257983759E+02  0.12903472187E+03  0.47000000000E+01 0. -1.
        -11    1    6    6    0    0  0.46052110133E+02 -0.40244853653E+02 -0.41345115691E+01  0.61298770617E+02  0.00000000000E+00 0.  1.
         12    1    6    6    0    0 -0.23285067916E+02  0.14734214287E+01  0.24941765043E+02  0.34153433239E+02  0.00000000000E+00 0. -1.
         -5    1    3    3    0  503 -0.10985996621E+03 -0.30993592802E+02 -0.13000126966E+03  0.17306714039E+03  0.47000000000E+01 0.  1.
         13    1    4    4    0    0  0.28008888121E+02  0.21720298883E+02 -0.88898634565E+02  0.95703899737E+02  0.00000000000E+00 0. -1.
        -14    1    4    4    0    0 -0.49202183913E+02  0.37783355005E+02 -0.72943196627E+02  0.95755661720E+02  0.00000000000E+00 0.  1.
</event>
<event>
12    1  0.8493057E-002  0.2055550E+03  0.7818608E-02  0.1145383E+00
         21   -1    0    0  503  502  0.00000000000E+00  0.00000000000E+00  0.41222575090E+03  0.41222575090E+03  0.00000000000E+00 0.  1.
         21   -1    0    0  501  503 -0.00000000000E+00 -0.00000000000E+00 -0.12376009394E+03  0.12376009394E+03  0.00000000000E+00 0. -1.
          6    2    1    2  501    0 -0.41533709332E+01 -0.11062887205E+03  0.25722513980E+03  0.32926832260E+03  0.17319601007E+03 0.  0.
         24    2    3    3    0    0  0.32658392332E+02 -0.12234732878E+03  0.13913002254E+03  0.20492615411E+03  0.81253467732E+02 0.  0.
         -6    2    1    2    0  502  0.41533709332E+01  0.11062887205E+03  0.31240517161E+02  0.20671752224E+03  0.17175612440E+03 0.  0.
        -24    2    5    5    0    0  0.37646923961E+02  0.68417148180E+02 -0.39204265063E+02  0.11790195453E+03  0.79156171161E+02 0.  0.
          5    1    3    3  501    0 -0.36811763265E+02  0.11718456731E+02  0.11809511727E+03  0.12434216849E+03  0.47000000000E+01 0. -1.
        -11    1    4    4    0    0  0.58002083770E+02 -0.61607182889E+02  0.80199504816E+02  0.11658322040E+03  0.00000000000E+00 0.  1.
         12    1    4    4    0    0 -0.25343691438E+02 -0.60740145896E+02  0.58930517720E+02  0.88342933718E+02  0.00000000000E+00 0. -1.
         -5    1    5    5    0  502 -0.33493553028E+02  0.42211723873E+02  0.70444782223E+02  0.88815567719E+02  0.47000000000E+01 0.  1.
         13    1    6    6    0    0  0.27980591252E+02  0.85161759571E+02 -0.22672470376E+02  0.92463396504E+02  0.00000000000E+00 0. -1.
        -14    1    6    6    0    0  0.96663327085E+01 -0.16744611390E+02 -0.16531794687E+02  0.25438558022E+02  0.00000000000E+00 0.  1.
</event>
<event>
12    1  0.8493057E-002  0.2343927E+03  0.7818608E-02  0.1123752E+00
         21   -1    0    0  501  502  0.00000000000E+00  0.00000000000E+00  0.75307511743E+03  0.75307511743E+03  0.00000000000E+00 0. -1.
         21   -1    0    0  502  503 -0.00000000000E+00 -0.00000000000E+00 -0.80103440915E+02  0.80103440915E+02  0.00000000000E+00 0. -1.
         -6    2    1    2    0  503  0.12501130643E+03 -0.91496141980E+02  0.46290178479E+03  0.51842581194E+03  0.17460781596E+03 0.  0.
        -24    2    3    3    0    0  0.10560121608E+03 -0.10092407630E+03  0.46749159002E+03  0.49586935245E+03  0.77464455988E+02 0.  0.
          6    2    1    2  501    0 -0.12501130643E+03  0.91496141980E+02  0.21006989172E+03  0.31475274640E+03  0.17589929286E+03 0.  0.
         24    2    5    5    0    0 -0.24425403291E+02  0.22446044273E+02  0.17635872688E+02  0.86852808744E+02  0.78306839751E+02 0.  0.
          5    1    5    5  501    0 -0.10058590314E+03  0.69050097707E+02  0.19243401903E+03  0.22789993766E+03  0.47000000000E+01 0. -1.
        -11    1    6    6    0    0  0.98392947839E+01 -0.81198746680E+01  0.35393158665E+02  0.37622064892E+02  0.00000000000E+00 0.  1.
         12    1    6    6    0    0 -0.34264698075E+02  0.30565918941E+02 -0.17757285977E+02  0.49230743851E+02  0.00000000000E+00 0. -1.
         -5    1    3    3    0  503  0.19410090346E+02  0.94279343235E+01 -0.45898052300E+01  0.22556459494E+02  0.47000000000E+01 0.  1.
         13    1    4    4    0    0  0.40647132777E+02 -0.50913731997E+01  0.63090073788E+02  0.75222795047E+02  0.00000000000E+00 0. -1.
        -14    1    4    4    0    0  0.64954083304E+02 -0.95832703104E+02  0.40440151624E+03  0.42064655740E+03  0.00000000000E+00 0.  1.
</event>
<event>
12    1  0.8493057E-002  0.2053554E+03  0.7818608E-02  0.1145312E+00
         21   -1    0    0  503  502  0.00000000000E+00  0.00000000000E+00  0.28333928843E+03  0.28333928843E+03  0.00000000000E+00 0. -1.
         21   -1    0    0  501  503 -0.00000000000E+00 -0.00000000000E+00 -0.15825317812E+03  0.15825317812E+03  0.00000000000E+00 0. -1.
          6    2    1    2  501    0 -0.92630819690E+02  0.63984334433E+02  0.85471919953E+01  0.20553315268E+03  0.17174503938E+03 0.  0.
         24    2    3    3    0    0 -0.31373655340E+02  0.85673744814E+02  0.47048422357E+02  0.12985418965E+03  0.79525214380E+02 0.  0.
         -6    2    1    2    0  502  0.92630819690E+02 -0.63984334433E+02  0.11653891831E+03  0.23605931387E+03  0.17166308972E+03 0.  0.
        -24    2    5    5    0    0  0.11680527066E+02 -0.60541395957E+02  0.11122916861E+03  0.15472612788E+03  0.88128039587E+02 0.  0.
          5    1    3    3  501    0 -0.61257164350E+02 -0.21689410381E+02 -0.38501230362E+02  0.75678963036E+02  0.47000000000E+01 0. -1.
        -11    1    4    4    0    0 -0.34582959802E+02  0.73084357123E+02  0.67701075468E+02  0.10545491920E+03  0.00000000000E+00 0.  1.
         12    1    4    4    0    0  0.32093044622E+01  0.12589387691E+02 -0.20652653111E+02  0.24399270442E+02  0.00000000000E+00 0. -1.
         -5    1    5    5    0  502  0.80950292624E+02 -0.34429384759E+01  0.53097497022E+01  0.81333185990E+02  0.47000000000E+01 0.  1.
         13    1    6    6    0    0 -0.11437558382E+02 -0.72934864039E+02  0.53058405986E+02  0.90914831463E+02  0.00000000000E+00 0. -1.
        -14    1    6    6    0    0  0.23118085448E+02  0.12393468082E+02  0.58170762625E+02  0.63811296416E+02  0.00000000000E+00 0.  1.
</event>
<event>
12    1  0.8493057E-002  0.1923032E+03  0.7818608E-02  0.1156648E+00
         21   -1    0    0  501  502  0.00000000000E+00  0.00000000000E+00  0.11665315700E+03  0.11665315700E+03  0.00000000000E+00 0. -1.
         21   -1    0    0  502  503 -0.00000000000E+00 -0.00000000000E+00 -0.32258810296E+03  0.32258810296E+03  0.00000000000E+00 0. -1.
         -6    2    1    2    0  503  0.84390682700E+02 -0.64933887904E+01 -0.69982412447E+02  0.20464125659E+03  0.17267470695E+03 0.  0.
        -24    2    3    3    0    0  0.56035633694E+02  0.54413577416E+02 -0.74424000562E+02  0.13714692318E+03  0.84673000585E+02 0.  0.
          6    2    1    2  501    0 -0.84390682700E+02  0.64933887904E+01 -0.13595253352E+03  0.23460000337E+03  0.17143546538E+03 0.  0.
         24    2    5    5    0    0 -0.20505046542E+02  0.63474695530E+02 -0.88801148869E+02  0.13675529529E+03  0.79792686658E+02 0.  0.
          5    1    5    5  501    0 -0.63885636158E+02 -0.56981306739E+02 -0.47151384650E+02  0.97844708081E+02  0.47000000000E+01 0. -1.
        -13    1    6    6    0    0 -0.23996274220E+02  0.66947670150E+02 -0.29084049402E+02  0.76835497295E+02  0.00000000000E+00 0.  1.
         14    1    6    6    0    0  0.34912276773E+01 -0.34729746206E+01 -0.59717099467E+02  0.59919797998E+02  0.00000000000E+00 0. -1.
         -5    1    3    3    0  503  0.28355049006E+02 -0.60906966206E+02  0.44415881143E+01  0.67494333404E+02  0.47000000000E+01 0.  1.
         13    1    4    4    0    0  0.23207551428E+02  0.19035287935E+02  0.16467729247E+02  0.34236219660E+02  0.00000000000E+00 0. -1.
        -14    1    4    4    0    0  0.32828082266E+02  0.35378289481E+02 -0.90891729809E+02  0.10291070352E+03  0.00000000000E+00 0.  1.
</event>
<event>
12    1  0.8493057E-002  0.2087173E+03  0.7818608E-02  0.1143044E+00
         21   -1    0    0  503  502  0.00000000000E+00  0.00000000000E+00  0.23258911714E+03  0.23258911714E+03  0.00000000000E+00 0. -1.
         21   -1    0    0  501  503 -0.00000000000E+00 -0.00000000000E+00 -0.37753877148E+03  0.37753877148E+03  0.00000000000E+00 0. -1.
          6    2    1    2  501    0 -0.44473023207E+01 -0.11381625007E+03 -0.28999066150E+03  0.35596298321E+03  0.17216603724E+03 0.  0.
         24    2    3    3    0    0 -0.30024617783E+02 -0.45167772832E+02 -0.62055971561E+02  0.11649873667E+03  0.82337152385E+02 0.  0.
         -6    2    1    2    0  502  0.44473023207E+01  0.11381625007E+03  0.14504100716E+03  0.25416490541E+03  0.17489707861E+03 0.  0.
        -24    2    5    5    0    0 -0.30208835373E+02  0.13555865604E+03  0.13926485297E+03  0.21258084531E+03  0.80667177711E+02 0.  0.
          5    1    3    3  501    0  0.25577315463E+02 -0.68648477242E+02 -0.22793468994E+03  0.23946424654E+03  0.47000000000E+01 0. -1.
        -13    1    4    4    0    0  0.14473915594E+02  0.16793601855E+02 -0.11424683246E+02  0.24940783531E+02  0.00000000000E+00 0.  1.
         14    1    4    4    0    0 -0.44498533378E+02 -0.61961374687E+02 -0.50631288316E+02  0.91557953135E+02  0.00000000000E+00 0. -1.
         -5    1    5    5    0  502  0.34656137694E+02 -0.21742405966E+02  0.57761541929E+01  0.41584060099E+02  0.47000000000E+01 0.  1.
         13    1    6    6    0    0  0.26675426413E+02  0.61909016960E+02  0.54142115966E+02  0.86461977057E+02  0.00000000000E+00 0. -1.
        -14    1    6    6    0    0 -0.56884261786E+02  0.73649639080E+02  0.85122737002E+02  0.12611886826E+03  0.00000000000E+00 0.  1.
</event>
<event>
12    1  0.8493057E-002  0.1883912E+03  0.7818608E-02  0.1160035E+00
         21   -1    0    0  503  502  0.00000000000E+00  0.00000000000E+00  0.61769398116E+03  0.61769398116E+03  0.00000000000E+00 0. -1.
         21   -1    0    0  501  503 -0.00000000000E+00 -0.00000000000E+00 -0.84832425588E+02  0.84832425588E+02  0.00000000000E+00 0. -1.
          6    2    1    2  501    0  0.46546834825E+02 -0.58891209509E+02  0.66092393653E+02  0.19917294110E+03  0.17224074308E+03 0.  0.
         24    2    3    3    0    0 -0.19153265834E+02 -0.40539464645E+02 -0.15788763498E+02  0.92496309810E+02  0.79347252567E+02 0.  0.
         -6    2    1    2    0  502 -0.46546834825E+02  0.58891209509E+02  0.46676916192E+03  0.50335346565E+03  0.17279027310E+03 0.  0.
        -24    2    5    5    0    0 -0.41603632601E+02 -0.28033690238E+02  0.17858102021E+03  0.20226399645E+03  0.80639899839E+02 0.  0.
          5    1    3    3  501    0  0.65700100658E+02 -0.18351744865E+02  0.81881157151E+02  0.10667663129E+03  0.47000000000E+01 0. -1.
        -13    1    4    4    0    0  0.85470073463E+01 -0.13127617467E+02  0.29101749954E+02  0.33049924740E+02  0.00000000000E+00 0.  1.
         14    1    4    4    0    0 -0.27700273180E+02 -0.27411847178E+02 -0.44890513452E+02  0.59446385070E+02  0.00000000000E+00 0. -1.
         -5    1    5    5    0  502 -0.49432022243E+01  0.86924899747E+02  0.28818814171E+03  0.30108946921E+03  0.47000000000E+01 0.  1.
         11    1    6    6    0    0 -0.50367250725E+02  0.85375754657E+01  0.13692128690E+03  0.14614098996E+03  0.00000000000E+00 0. -1.
        -12    1    6    6    0    0  0.87636181238E+01 -0.36571265703E+02  0.41659733312E+02  0.56123006489E+02  0.00000000000E+00 0.  1.
</event>
<event>
12    1  0.8493057E-002  0.1958218E+03  0.7818608E-02  0.1153429E+00
         21   -1    0    0  503  502  0.00000000000E+00  0.00000000000E+00  0.36209346106E+03  0.36209346106E+03  0.00000000000E+00 0. -1.
         21   -1    0    0  501  503 -0.00000000000E+00 -0.00000000000E+00 -0.11322507711E+03  0.11322507711E+03  0.00000000000E+00 0. -1.
          6    2    1    2  501    0  0.93851960030E+02 -0.39390525976E+00  0.62964618279E+02  0.20569565939E+03  0.17186569050E+03 0.  0.
         24    2    3    3    0    0 -0.20046289704E+01  0.40112098760E+02  0.49229450434E+02  0.10062441283E+03  0.78030344506E+02 0.  0.
         -6    2    1    2    0  502 -0.93851960030E+02  0.39390525976E+00  0.18590376567E+03  0.26962287878E+03  0.17125402508E+03 0.  0.
        -24    2    5    5    0    0 -0.12465736358E+03 -0.16414940696E+02  0.17850921773E+03  0.23345273184E+03  0.82617967864E+02 0.  0.
          5    1    3    3  501    0  0.95856589001E+02 -0.40506004020E+02  0.13735167845E+02  0.10507124655E+03  0.47000000000E+01 0. -1.
        -11    1    4    4    0    0  0.34351092467E+02  0.32745315854E+02  0.14032648608E+02  0.49489074461E+02  0.00000000000E+00 0.  1.
         12    1    4    4    0    0 -0.36355721438E+02  0.73667829062E+01  0.35196801826E+02  0.51135338372E+02  0.00000000000E+00 0. -1.
         -5    1    5    5    0  502  0.30805403552E+02  0.16808845956E+02  0.73945479418E+01  0.36170146939E+02  0.47000000000E+01 0.  1.
         13    1    6    6    0    0 -0.27099910037E+02  0.21560739316E+02  0.89758362229E+02  0.96207246057E+02  0.00000000000E+00 0. -1.
        -14    1    6    6    0    0 -0.97557453546E+02 -0.37975680012E+02  0.88750855502E+02  0.13724548578E+03  0.00000000000E+00 0.  1.
</event>
<event>
12    1  0.8493057E-002  0.1724018E+03  0.7818608E-02  0.1175787E+00
         21   -1    0    0  503  502  0.00000000000E+00  0.00000000000E+00  0.29391724970E+03  0.29391724970E+03  0.00000000000E+00 0. -1.
         21   -1    0    0  501  503 -0.00000000000E+00 -0.00000000000E+00 -0.39217864475E+03  0.39217864475E+03  0.00000000000E+00 0. -1.
          6    2    1    2  501    0 -0.19675687529E+02 -0.25702232852E+01 -0.34520326102E+03  0.38585967560E+03  0.17125612137E+03 0.  0.
         24    2    3    3    0    0  0.97328176518E+01  0.81175405350E+01 -0.62199322195E+02  0.10109238839E+03  0.78678415754E+02 0.  0.
         -6    2    1    2    0  502  0.19675687529E+02  0.25702232852E+01  0.24694186597E+03  0.30023621885E+03  0.16961062235E+03 0.  0.
        -24    2    5    5    0    0 -0.39195312493E+02 -0.27724998573E+02  0.19794352299E+03  0.21773456598E+03  0.76952939282E+02 0.  0.
          5    1    3    3  501    0 -0.29408505180E+02 -0.10687763820E+02 -0.28300393883E+03  0.28476728721E+03  0.47000000000E+01 0. -1.
        -11    1    4    4    0    0  0.17993011227E+02  0.38068298996E+02 -0.54881759815E+02  0.69173343145E+02  0.00000000000E+00 0.  1.
         12    1    4    4    0    0 -0.82601935755E+01 -0.29950758461E+02 -0.73175623801E+01  0.31919045247E+02  0.00000000000E+00 0. -1.
         -5    1    5    5    0  502  0.58871000022E+02  0.30295221858E+02  0.48998342988E+02  0.82501652872E+02  0.47000000000E+01 0.  1.
         13    1    6    6    0    0 -0.36616211599E+02 -0.26261341165E+02  0.20509817956E+03  0.20998968605E+03  0.00000000000E+00 0. -1.
        -14    1    6    6    0    0 -0.25791008944E+01 -0.14636574078E+01 -0.71546565718E+01  0.77448799275E+01  0.00000000000E+00 0.  1.
</event>
<event>
12    1  0.8493057E-002  0.1722879E+03  0.7818608E-02  0.1175774E+00
         21   -1    0    0  503  502  0.00000000000E+00  0.00000000000E+00  0.72775827263E+02  0.72775827263E+02  0.00000000000E+00 0. -1.
         21   -1    0    0  501  503 -0.00000000000E+00 -0.00000000000E+00 -0.43533177012E+03  0.43533177012E+03  0.00000000000E+00 0. -1.
          6    2    1    2  501    0  0.17464120512E+01 -0.16554332152E+02 -0.24868518180E+03  0.30253501610E+03  0.17148183708E+03 0.  0.
         24    2    3    3    0    0 -0.43275407944E+02 -0.26057305095E+02 -0.69106455953E+02  0.11709532362E+03  0.79899114368E+02 0.  0.
         -6    2    1    2    0  502 -0.17464120512E+01  0.16554332152E+02 -0.11387076105E+03  0.20557258128E+03  0.17034212657E+03 0.  0.
        -24    2    5    5    0    0 -0.13937019329E+02  0.31019737577E+02  0.28203059051E+01  0.87264703405E+02  0.80316310348E+02 0.  0.
          5    1    3    3  501    0  0.45021819995E+02  0.95029729438E+01 -0.17957872585E+03  0.18543969248E+03  0.47000000000E+01 0. -1.
        -13    1    4    4    0    0 -0.15405439406E+02 -0.47660734638E+02 -0.64299905646E+02  0.81506754663E+02  0.00000000000E+00 0.  1.
         14    1    4    4    0    0 -0.27869968538E+02  0.21603429543E+02 -0.48065503069E+01  0.35588568953E+02  0.00000000000E+00 0. -1.
         -5    1    5    5    0  502  0.12190607278E+02 -0.14465405426E+02 -0.11669106696E+03  0.11830787788E+03  0.47000000000E+01 0.  1.
         13    1    6    6    0    0 -0.39699903540E+02  0.43176240626E+02  0.36322680993E+01  0.58766176218E+02  0.00000000000E+00 0. -1.
        -14    1    6    6    0    0  0.25762884211E+02 -0.12156503049E+02 -0.81196219413E+00  0.28498527187E+02  0.00000000000E+00 0.  1.
</event>
<event>
12    1  0.8493057E-002  0.1804467E+03  0.7818608E-02  0.1167585E+00
         21   -1    0    0  503  502  0.00000000000E+00  0.00000000000E+00  0.14865903862E+04  0.14865903862E+04  0.00000000000E+00 0.  1.
         21   -1    0    0  501  503 -0.00000000000E+00 -0.00000000000E+00 -0.42309852565E+02  0.42309852565E+02  0.00000000000E+00 0.  1.
          6    2    1    2  501    0 -0.19861727428E+02 -0.52604507581E+02  0.19076079239E+03  0.26258465099E+03  0.17146223079E+03 0.  0.
         24    2    3    3    0    0 -0.39013852023E+02  0.28359468391E+02  0.74599110216E+02  0.11962453177E+03  0.80116547970E+02 0.  0.
         -6    2    1    2    0  502  0.19861727428E+02  0.52604507581E+02  0.12535197412E+04  0.12663155878E+04  0.17053358532E+03 0.  0.
        -24    2    5    5    0    0  0.42841656094E+02  0.80452623339E+01  0.11180877952E+04  0.11218250847E+04  0.80442956395E+02 0.  0.
          5    1    3    3  501    0  0.19152124595E+02 -0.80963975973E+02  0.11616168217E+03  0.14296011922E+03  0.47000000000E+01 0. -1.
        -11    1    4    4    0    0 -0.10784437778E+02 -0.19991527766E+02 -0.40592996316E+01  0.23074730641E+02  0.00000000000E+00 0.  1.
         12    1    4    4    0    0 -0.28229414244E+02  0.48350996158E+02  0.78658409848E+02  0.96549801128E+02  0.00000000000E+00 0. -1.
         -5    1    5    5    0  502 -0.22979928667E+02  0.44559245248E+02  0.13543194606E+03  0.14449050305E+03  0.47000000000E+01 0.  1.
         11    1    6    6    0    0  0.22543859046E+02 -0.32713807601E+02  0.32294240510E+03  0.32537703637E+03  0.00000000000E+00 0. -1.
        -12    1    6    6    0    0  0.20297797048E+02  0.40759069935E+02  0.79514539008E+03  0.79644804835E+03  0.00000000000E+00 0.  1.
</event>
<event>
12    1  0.8493057E-002  0.1882627E+03  0.7818608E-02  0.1161009E+00
         21   -1    0    0  501  502  0.00000000000E+00  0.00000000000E+00  0.86863597555E+03  0.86863597555E+03  0.00000000000E+00 0.  1.
         21   -1    0    0  502  503 -0.00000000000E+00 -0.00000000000E+00 -0.42642514735E+02  0.42642514735E+02  0.00000000000E+00 0.  1.
         -6    2    1    2    0  503  0.73626594896E+01  0.65676669068E+02  0.30175018363E+03  0.35566276728E+03  0.17628158468E+03 0.  0.
        -24    2    3    3    0    0  0.34872609146E+02 -0.10240522911E+01  0.25491019334E+03  0.26951255979E+03  0.80253757965E+02 0.  0.
          6    2    1    2  501    0 -0.73626594896E+01 -0.65676669068E+02  0.52424327719E+03  0.55561572300E+03  0.17178528563E+03 0.  0.
         24    2    5    5    0    0  0.23798211260E+02 -0.10506538233E+03  0.37994821195E+03  0.40275753235E+03  0.79043637788E+02 0.  0.
          5    1    5    5  501    0 -0.31160870750E+02  0.39388713265E+02  0.14429506524E+03  0.15285819065E+03  0.47000000000E+01 0. -1.
        -13    1    6    6    0    0  0.45259147456E+02 -0.27645160594E+02  0.13938646977E+03  0.14913494992E+03  0.00000000000E+00 0.  1.
         14    1    6    6    0    0 -0.21460936196E+02 -0.77420221739E+02  0.24056174218E+03  0.25362258243E+03  0.00000000000E+00 0. -1.
         -5    1    3    3    0  503 -0.27509949657E+02  0.66700721359E+02  0.46839990291E+02  0.86150207489E+02  0.47000000000E+01 0.  1.
         13    1    4    4    0    0  0.88745385462E+01 -0.30753260330E+02  0.41141047152E+02  0.52125868972E+02  0.00000000000E+00 0. -1.
        -14    1    4    4    0    0  0.25998070600E+02  0.29729208039E+02  0.21376914619E+03  0.21738669082E+03  0.00000000000E+00 0.  1.
</event>
<event>
12    1  0.8493057E-002  0.2188360E+03  0.7818608E-02  0.1135212E+00
         21   -1    0    0  503  502  0.00000000000E+00  0.00000000000E+00  0.36948866244E+03  0.36948866244E+03  0.00000000000E+00 0.  1.
         21   -1    0    0  501  503 -0.00000000000E+00 -0.00000000000E+00 -0.13465286638E+03  0.13465286638E+03  0.00000000000E+00 0. -1.
          6    2    1    2  501    0 -0.12487614115E+03 -0.51377161341E+02  0.62753680461E+02  0.22765589546E+03  0.17220777854E+03 0.  0.
         24    2    3    3    0    0 -0.50533751278E+02  0.36806488706E+02  0.43413030972E+02  0.11061189608E+03  0.80261588994E+02 0.  0.
         -6    2    1    2    0  502  0.12487614115E+03  0.51377161341E+02  0.17208211560E+03  0.27648563336E+03  0.16911057806E+03 0.  0.
        -24    2    5    5    0    0  0.74145529154E+02 -0.32929792223E+02  0.63039141153E+02  0.12953762321E+03  0.78893166998E+02 0.  0.
          5    1    3    3  501    0 -0.74342389872E+02 -0.88183650047E+02  0.19340649489E+02  0.11704399938E+03  0.47000000000E+01 0. -1.
        -13    1    4    4    0    0  0.16032258126E+02  0.93847062531E+01 -0.98790793405E+01  0.21040490030E+02  0.00000000000E+00 0.  1.
         14    1    4    4    0    0 -0.66566009404E+02  0.27421782453E+02  0.53292110312E+02  0.89571406053E+02  0.00000000000E+00 0. -1.
         -5    1    5    5    0  502  0.50730611996E+02  0.84306953564E+02  0.10904297445E+03  0.14694801016E+03  0.47000000000E+01 0.  1.
         13    1    6    6    0    0  0.41642717638E+02  0.22456444264E+02  0.16037478638E+02  0.49956066122E+02  0.00000000000E+00 0. -1.
        -14    1    6    6    0    0  0.32502811516E+02 -0.55386236488E+02  0.47001662515E+02  0.79581557084E+02  0.00000000000E+00 0.  1.
</event>
<event>
12    1  0.8493057E-002  0.3456769E+03  0.7818608E-02  0.1065408E+00
         21   -1    0    0  503  502  0.00000000000E+00  0.00000000000E+00  0.88799802128E+03  0.88799802128E+03  0.00000000000E+00 0. -1.
         21   -1    0    0  501  503 -0.00000000000E+00 -0.00000000000E+00 -0.22373723757E+03  0.22373723757E+03  0.00000000000E+00 0.  1.
          6    2    1    2  501    0  0.20417865989E+03 -0.20378180501E+03 -0.23220786880E+02  0.34645598177E+03  0.19046415188E+03 0.  0.
         24    2    3    3    0    0  0.17934587003E+03 -0.67329381792E+02 -0.11760317499E+02  0.20721028664E+03  0.78100006872E+02 0.  0.
         -6    2    1    2    0  502 -0.20417865989E+03  0.20378180501E+03  0.68748157059E+03  0.76527927708E+03  0.17264273173E+03 0.  0.
        -24    2    5    5    0    0 -0.86856970035E+02  0.12354959376E+03  0.51005351350E+03  0.53789327911E+03  0.79786952011E+02 0.  0.
          5    1    3    3  501    0  0.24832789865E+02 -0.13645242322E+03 -0.11460469381E+02  0.13924569513E+03  0.47000000000E+01 0. -1.
        -11    1    4    4    0    0  0.87372834754E+02 -0.27523169224E+02 -0.44417556527E+02  0.10180597441E+03  0.00000000000E+00 0.  1.
         12    1    4    4    0    0  0.91973035271E+02 -0.39806212568E+02  0.32657239028E+02  0.10540431223E+03  0.00000000000E+00 0. -1.
         -5    1    5    5    0  502 -0.11732168986E+03  0.80232211247E+02  0.17742805709E+03  0.22738599798E+03  0.47000000000E+01 0.  1.
         13    1    6    6    0    0  0.10155491784E+02  0.37127233361E+02  0.82546681433E+02  0.91079745750E+02  0.00000000000E+00 0. -1.
        -14    1    6    6    0    0 -0.97012461818E+02  0.86422360399E+02  0.42750683207E+03  0.44681353336E+03  0.00000000000E+00 0.  1.
</event>
<event>
12    1  0.8493057E-002  0.1990486E+03  0.7818608E-02  0.1150844E+00
         21   -1    0    0  501  502  0.00000000000E+00  0.00000000000E+00  0.10687658954E+03  0.10687658954E+03  0.00000000000E+00 0. -1.
         21   -1    0    0  502  503 -0.00000000000E+00 -0.00000000000E+00 -0.56009802918E+03  0.56009802918E+03  0.00000000000E+00 0.  1.
         -6    2    1    2    0  503 -0.72994447631E+01  0.98747933477E+02 -0.42133606440E+03  0.46538830729E+03  0.17104900218E+03 0.  0.
        -24    2    3    3    0    0  0.13611831389E+02  0.13351972603E+03 -0.35035079607E+03  0.38348984976E+03  0.79410234631E+02 0.  0.
          6    2    1    2  501    0  0.72994447631E+01 -0.98747933477E+02 -0.31885375244E+02  0.20158631143E+03  0.17267289174E+03 0.  0.
         24    2    5    5    0    0  0.60913560226E+02 -0.10183585867E+03 -0.74986534721E+01  0.14241866100E+03  0.78395416098E+02 0.  0.
          5    1    5    5  501    0 -0.53614115463E+02  0.30879251976E+01 -0.24386721772E+02  0.59167650433E+02  0.47000000000E+01 0. -1.
        -11    1    6    6    0    0  0.13011321611E+02 -0.12504237690E+02 -0.33252572902E+02  0.37833636553E+02  0.00000000000E+00 0.  1.
         12    1    6    6    0    0  0.47902238615E+02 -0.89331620985E+02  0.25753919430E+02  0.10458502444E+03  0.00000000000E+00 0. -1.
         -5    1    3    3    0  503 -0.20911276152E+02 -0.34771792558E+02 -0.70985268324E+02  0.81898457538E+02  0.47000000000E+01 0.  1.
         13    1    4    4    0    0 -0.15697377612E+02  0.12716977734E+02 -0.13147344264E+02  0.24103565043E+02  0.00000000000E+00 0. -1.
        -14    1    4    4    0    0  0.29309209001E+02  0.12080274830E+03 -0.33720345181E+03  0.35938628471E+03  0.00000000000E+00 0.  1.
</event>
<event>
12    1  0.8493057E-002  0.2187351E+03  0.7818608E-02  0.1134895E+00
         21   -1    0    0  503  502  0.00000000000E+00  0.00000000000E+00  0.41592714561E+03  0.41592714561E+03  0.00000000000E+00 0. -1.
         21   -1    0    0  501  503 -0.00000000000E+00 -0.00000000000E+00 -0.15168404092E+03  0.15168404092E+03  0.00000000000E+00 0.  1.
          6    2    1    2  501    0 -0.84221988097E+02 -0.10538344034E+03 -0.76535112378E+01  0.21886894119E+03  0.17218020911E+03 0.  0.
         24    2    3    3    0    0  0.21875993797E+02 -0.32899352174E+02 -0.20282253513E+02  0.89670257258E+02  0.77900312908E+02 0.  0.
         -6    2    1    2    0  502  0.84221988097E+02  0.10538344034E+03  0.27189661593E+03  0.34874224533E+03  0.17173925336E+03 0.  0.
        -24    2    5    5    0    0 -0.11281406418E+02  0.64146416122E+02  0.80340786810E+02  0.13071216438E+03  0.79931189523E+02 0.  0.
          5    1    3    3  501    0 -0.10609798189E+03 -0.72484088168E+02  0.12628742275E+02  0.12919868394E+03  0.47000000000E+01 0. -1.
        -13    1    4    4    0    0 -0.26886081904E+02 -0.17438324861E+02 -0.21346070117E+02  0.38504691709E+02  0.00000000000E+00 0.  1.
         14    1    4    4    0    0  0.48762075701E+02 -0.15461027312E+02  0.10638166039E+01  0.51165565550E+02  0.00000000000E+00 0. -1.
         -5    1    5    5    0  502  0.95503394515E+02  0.41237024219E+02  0.19155582912E+03  0.21803008095E+03  0.47000000000E+01 0.  1.
         13    1    6    6    0    0  0.34061131323E+02  0.27243161934E+02  0.43558621994E+02  0.61641739829E+02  0.00000000000E+00 0. -1.
        -14    1    6    6    0    0 -0.45342537741E+02  0.36903254188E+02  0.36782164816E+02  0.69070424547E+02  0.00000000000E+00 0.  1.
</event>
<event>
12    1  0.8493057E-002  0.1748348E+03  0.7818608E-02  0.1173009E+00
         21   -1    0    0  503  502  0.00000000000E+00  0.00000000000E+00  0.20604298389E+04  0.20604298389E+04  0.00000000000E+00 0.  1.
         21   -1    0    0  501  503 -0.00000000000E+00 -0.00000000000E+00 -0.52078233545E+02  0.52078233545E+02  0.00000000000E+00 0.  1.
          6    2    1    2  501    0 -0.23609819905E+02 -0.17292107486E+02  0.11013989475E+03  0.20626178955E+03  0.17192058875E+03 0.  0.
         24    2    3    3    0    0 -0.74196126236E+02 -0.23267205489E+02  0.38706347456E+02  0.11840100272E+03  0.80462339707E+02 0.  0.
         -6    2    1    2    0  502  0.23609819905E+02  0.17292107486E+02  0.18982117106E+04  0.19062462829E+04  0.17236807184E+03 0.  0.
        -24    2    5    5    0    0  0.33162464817E+02 -0.53487378462E+01  0.47256985299E+03  0.48038490917E+03  0.79492370270E+02 0.  0.
          5    1    3    3  501    0  0.50586306331E+02  0.59750980030E+01  0.71433547293E+02  0.87860786835E+02  0.47000000000E+01 0. -1.
        -13    1    4    4    0    0  0.90550942640E+01  0.43804752102E+01 -0.13105290961E+02  0.16520652117E+02  0.00000000000E+00 0.  1.
         14    1    4    4    0    0 -0.83251220500E+02 -0.27647680699E+02  0.51811638417E+02  0.10188035060E+03  0.00000000000E+00 0. -1.
         -5    1    5    5    0  502 -0.95526449114E+01  0.22640845332E+02  0.14256418576E+04  0.14258613737E+04  0.47000000000E+01 0.  1.
         13    1    6    6    0    0  0.14248172357E+02 -0.29066807381E+02  0.40530461846E+03  0.40659528213E+03  0.00000000000E+00 0. -1.
        -14    1    6    6    0    0  0.18914292459E+02  0.23718069535E+02  0.67265234536E+02  0.73789627041E+02  0.00000000000E+00 0.  1.
</event>
<event>
12    1  0.8493057E-002  0.2987820E+03  0.7818608E-02  0.1085855E+00
         21   -1    0    0  503  502  0.00000000000E+00  0.00000000000E+00  0.13022859160E+04  0.13022859160E+04  0.00000000000E+00 0.  1.
         21   -1    0    0  501  503 -0.00000000000E+00 -0.00000000000E+00 -0.27571782961E+03  0.27571782961E+03  0.00000000000E+00 0. -1.
          6    2    1    2  501    0  0.18536154280E+03  0.15890412306E+03 -0.17065646084E+03  0.34405993570E+03  0.17217488160E+03 0.  0.
         24    2    3    3    0    0  0.15539608016E+03  0.14514007102E+03 -0.19075030740E+03  0.30515966900E+03  0.10734599139E+03 0.  0.
         -6    2    1    2    0  502 -0.18536154280E+03 -0.15890412306E+03  0.11972245472E+04  0.12339438099E+04  0.17222452690E+03 0.  0.
        -24    2    5    5    0    0 -0.19182252387E+03 -0.86558898439E+02  0.85882553733E+03  0.88780575118E+03  0.79557681609E+02 0.  0.
          5    1    3    3  501    0  0.29965462635E+02  0.13764052040E+02  0.20093846560E+02  0.38900266696E+02  0.47000000000E+01 0. -1.
        -13    1    4    4    0    0 -0.28516565894E+01  0.56967395354E+02 -0.45138621109E+02  0.72738649935E+02  0.00000000000E+00 0.  1.
         14    1    4    4    0    0  0.15824773675E+03  0.88172675670E+02 -0.14561168629E+03  0.23242101907E+03  0.00000000000E+00 0. -1.
         -5    1    5    5    0  502  0.64609810686E+01 -0.72345224625E+02  0.33839900991E+03  0.34613805875E+03  0.47000000000E+01 0.  1.
         13    1    6    6    0    0 -0.50467098311E+02  0.12912949552E+02  0.19155890618E+03  0.19851570924E+03  0.00000000000E+00 0. -1.
        -14    1    6    6    0    0 -0.14135542555E+03 -0.99471847991E+02  0.66726663115E+03  0.68929004194E+03  0.00000000000E+00 0.  1.
</event>
<event>
12    1  0.8493057E-002  0.2446777E+03  0.7818608E-02  0.1116925E+00
         21   -1    0    0  503  502  0.00000000000E+00  0.00000000000E+00  0.14988167662E+03  0.14988167662E+03  0.00000000000E+00 0.  1.
         21   -1    0    0  501  503 -0.00000000000E+00 -0.00000000000E+00 -0.60147963255E+03  0.60147963255E+03  0.00000000000E+00 0. -1.
          6    2    1    2  501    0 -0.38746875663E+02 -0.17101418625E+03 -0.44427141232E+03  0.50657398326E+03  0.16879852026E+03 0.  0.
         24    2    3    3    0    0 -0.42947442789E+02 -0.12021592601E+03 -0.42743895264E+03  0.45268957266E+03  0.76989864576E+02 0.  0.
         -6    2    1    2    0  502  0.38746875663E+02  0.17101418625E+03 -0.73265436079E+01  0.24478732591E+03  0.17064578639E+03 0.  0.
        -24    2    5    5    0    0 -0.22244397947E+02  0.16516196324E+03 -0.21818498180E+02  0.18165024712E+03  0.68901945354E+02 0.  0.
          5    1    3    3  501    0  0.42005671259E+01 -0.50798260236E+02 -0.16832459675E+02  0.53884410602E+02  0.47000000000E+01 0. -1.
        -13    1    4    4    0    0  0.63512081151E+01 -0.70601435774E+02 -0.14075763996E+03  0.15759953612E+03  0.00000000000E+00 0.  1.
         14    1    4    4    0    0 -0.49298650904E+02 -0.49614490235E+02 -0.28668131268E+03  0.29509003654E+03  0.00000000000E+00 0. -1.
         -5    1    5    5    0  502  0.60991273610E+02  0.58522230064E+01  0.14491954572E+02  0.63137078789E+02  0.47000000000E+01 0.  1.
         11    1    6    6    0    0 -0.37831305229E+02  0.62753096401E+02  0.83743136547E+01  0.73751528068E+02  0.00000000000E+00 0. -1.
        -12    1    6    6    0    0  0.15586907282E+02  0.10240886684E+03 -0.30192811835E+02  0.10789871905E+03  0.00000000000E+00 0.  1.
</event>
<event>
12    1  0.8493057E-002  0.1920619E+03  0.7818608E-02  0.1156640E+00
         21   -1    0    0  503  502  0.00000000000E+00  0.00000000000E+00  0.38583460850E+02  0.38583460850E+02  0.00000000000E+00 0.  1.
         21   -1    0    0  501  503 -0.00000000000E+00 -0.00000000000E+00 -0.96096480900E+03  0.96096480900E+03  0.00000000000E+00 0. -1.
          6    2    1    2  501    0 -0.12986014374E+02  0.83193464336E+02 -0.49909696918E+03  0.53477616125E+03  0.17262088206E+03 0.  0.
         24    2    3    3    0    0  0.71228029316E+01  0.11326098957E+03 -0.27849992301E+03  0.31118374772E+03  0.79964564984E+02 0.  0.
         -6    2    1    2    0  502  0.12986014374E+02 -0.83193464336E+02 -0.42328437897E+03  0.46477210859E+03  0.17249248787E+03 0.  0.
        -24    2    5    5    0    0  0.66311273101E+02 -0.36099611648E+02 -0.32608790252E+03  0.34422892458E+03  0.80373288120E+02 0.  0.
          5    1    3    3  501    0 -0.20108817306E+02 -0.30067525236E+02 -0.22059704617E+03  0.22359241353E+03  0.47000000000E+01 0. -1.
        -13    1    4    4    0    0 -0.29061142509E+02  0.36119571732E+02 -0.54642463050E+02  0.71658720573E+02  0.00000000000E+00 0.  1.
         14    1    4    4    0    0  0.36183945440E+02  0.77141417840E+02 -0.22385745996E+03  0.23952502715E+03  0.00000000000E+00 0. -1.
         -5    1    5    5    0  502 -0.53325258727E+02 -0.47093852688E+02 -0.97196476444E+02  0.12054318401E+03  0.47000000000E+01 0.  1.
         13    1    6    6    0    0  0.38290876263E+02 -0.61441892821E+02 -0.20736231600E+03  0.21963703581E+03  0.00000000000E+00 0. -1.
        -14    1    6    6    0    0  0.28020396837E+02  0.25342281173E+02 -0.11872558652E+03  0.12459188877E+03  0.00000000000E+00 0.  1.
</event>
<event>
12    1  0.8493057E-002  0.1789466E+03  0.7818608E-02  0.1168870E+00
         21   -1    0    0  503  502  0.00000000000E+00  0.00000000000E+00  0.11582755285E+03  0.11582755285E+03  0.00000000000E+00 0.  1.
         21   -1    0    0  501  503 -0.00000000000E+00 -0.00000000000E+00 -0.27904949641E+03  0.27904949641E+03  0.00000000000E+00 0.  1.
          6    2    1    2  501    0  0.53518889642E+02 -0.13287259878E+01 -0.61580038940E+02  0.18907873032E+03  0.17056561201E+03 0.  0.
         24    2    3    3    0    0  0.49472064010E+02 -0.63850582910E+02 -0.40557824593E+02  0.12282631235E+03  0.83168406346E+02 0.  0.
         -6    2    1    2    0  502 -0.53518889642E+02  0.13287259878E+01 -0.10164190462E+03  0.20579831894E+03  0.17075079573E+03 0.  0.
        -24    2    5    5    0    0 -0.20976939136E+02 -0.37014465263E+02  0.24042271989E+01  0.90139914992E+02  0.79431236627E+02 0.  0.
          5    1    3    3  501    0  0.40468256318E+01  0.62521856922E+02 -0.21022214347E+02  0.66252417969E+02  0.47000000000E+01 0. -1.
        -13    1    4    4    0    0  0.64474238348E+02 -0.24069639285E+02 -0.80156136948E+01  0.69285821123E+02  0.00000000000E+00 0.  1.
         14    1    4    4    0    0 -0.15002174337E+02 -0.39780943624E+02 -0.32542210898E+02  0.53540491225E+02  0.00000000000E+00 0. -1.
         -5    1    5    5    0  502 -0.32541950506E+02  0.38343191250E+02 -0.10404613182E+03  0.11565840395E+03  0.47000000000E+01 0.  1.
         13    1    6    6    0    0  0.26580671831E+02  0.36643273335E+01 -0.43955779872E+01  0.27189713415E+02  0.00000000000E+00 0. -1.
        -14    1    6    6    0    0 -0.47557610967E+02 -0.40678792596E+02  0.67998051862E+01  0.62950201576E+02  0.00000000000E+00 0.  1.
</event>
<event>
12    1  0.8493057E-002  0.2003944E+03  0.7818608E-02  0.1150454E+00
         21   -1    0    0  503  502  0.00000000000E+00  0.00000000000E+00  0.11262618601E+03  0.11262618601E+03  0.00000000000E+00 0. -1.
         21   -1    0    0  501  503 -0.00000000000E+00 -0.00000000000E+00 -0.10988927671E+04  0.10988927671E+04  0.00000000000E+00 0. -1.
          6    2    1    2  501    0 -0.54041045827E+02  0.76647855601E+02 -0.99583932465E+03  0.10158020848E+04  0.17709485186E+03 0.  0.
         24    2    3    3    0    0 -0.17637670276E+02 -0.20750888913E+02 -0.62717047356E+03  0.63272176300E+03  0.79071737449E+02 0.  0.
         -6    2    1    2    0  502  0.54041045827E+02 -0.76647855601E+02  0.95727435142E+01  0.19571686836E+03  0.17151713250E+03 0.  0.
        -24    2    5    5    0    0  0.52818159569E+02 -0.47255394951E+02  0.69749786074E+02  0.12856942876E+03  0.81499908107E+02 0.  0.
          5    1    3    3  501    0 -0.36403375551E+02  0.97398744514E+02 -0.36866885108E+03  0.38308032179E+03  0.47000000000E+01 0. -1.
        -13    1    4    4    0    0 -0.12838628144E+01 -0.36069267141E+02 -0.12644491576E+03  0.13149508377E+03  0.00000000000E+00 0.  1.
         14    1    4    4    0    0 -0.16353807462E+02  0.15318378228E+02 -0.50072555780E+03  0.50122667923E+03  0.00000000000E+00 0. -1.
         -5    1    5    5    0  502  0.12228862585E+01 -0.29392460650E+02 -0.60177042560E+02  0.67147439602E+02  0.47000000000E+01 0.  1.
         13    1    6    6    0    0  0.25976609922E+02 -0.68535116339E+02  0.41909299455E+02  0.84428880222E+02  0.00000000000E+00 0. -1.
        -14    1    6    6    0    0  0.26841549647E+02  0.21279721389E+02  0.27840486619E+02  0.44140548535E+02  0.00000000000E+00 0.  1.
</event>
<event>
12    1  0.8493057E-002  0.1864119E+03  0.7818608E-02  0.1161770E+00
         21   -1    0    0  501  502  0.00000000000E+00  0.00000000000E+00  0.41119494680E+03  0.41119494680E+03  0.00000000000E+00 0.  1.
         21   -1    0    0  502  503 -0.00000000000E+00 -0.00000000000E+00 -0.32753772654E+03  0.32753772654E+03  0.00000000000E+00 0.  1.
         -6    2    1    2    0  503  0.47760011937E+02  0.53391176344E+02 -0.27637627763E+03  0.33336651340E+03  0.17209807950E+03 0.  0.
        -24    2    3    3    0    0  0.25679637684E+02  0.12637733737E+01 -0.45323051182E+02  0.95432714793E+02  0.79951129884E+02 0.  0.
          6    2    1    2  501    0 -0.47760011937E+02 -0.53391176344E+02  0.36003349789E+03  0.40536615993E+03  0.17194757215E+03 0.  0.
         24    2    5    5    0    0 -0.55470896978E+02  0.23057614097E+02  0.23948812214E+03  0.26233765606E+03  0.88644295691E+02 0.  0.
          5    1    5    5  501    0  0.77108850409E+01 -0.76448790441E+02  0.12054537574E+03  0.14302850388E+03  0.47000000000E+01 0. -1.
        -13    1    6    6    0    0  0.93516281620E+01 -0.24787653779E+02  0.61534451736E+02  0.66995294459E+02  0.00000000000E+00 0.  1.
         14    1    6    6    0    0 -0.64822525140E+02  0.47845267876E+02  0.17795367041E+03  0.19534236160E+03  0.00000000000E+00 0. -1.
         -5    1    3    3    0  503  0.22080374253E+02  0.52127402971E+02 -0.23105322645E+03  0.23793379861E+03  0.47000000000E+01 0.  1.
         11    1    4    4    0    0 -0.18227459444E+02  0.24670023620E+02 -0.43554848340E+01  0.30980971440E+02  0.00000000000E+00 0. -1.
        -12    1    4    4    0    0  0.43907097128E+02 -0.23406250247E+02 -0.40967566348E+02  0.64451743353E+02  0.00000000000E+00 0.  1.
</event>
<event>
12    1  0.8493057E-002  0.2088300E+03  0.7818608E-02  0.1142755E+00
         21   -1    0    0  503  502  0.00000000000E+00  0.00000000000E+00  0.23631117798E+03  0.23631117798E+03  0.00000000000E+00 0. -1.
         21   -1    0    0  501  503 -0.00000000000E+00 -0.00000000000E+00 -0.31163787040E+03  0.31163787040E+03  0.00000000000E+00 0.  1.
          6    2    1    2  501    0  0.11700001298E+03  0.13500923835E+01 -0.21348097387E+03  0.29863706137E+03  0.17297150757E+03 0.  0.
         24    2    3    3    0    0  0.19064294251E+02  0.38888095054E+02 -0.15297167898E+03  0.17745962364E+03  0.78840676036E+02 0.  0.
         -6    2    1    2    0  502 -0.11700001298E+03 -0.13500923835E+01  0.13815428145E+03  0.24931198701E+03  0.17140313766E+03 0.  0.
        -24    2    5    5    0    0 -0.10286144474E+03  0.58642655885E+02  0.80724758219E+02  0.16493622572E+03  0.81658031201E+02 0.  0.
          5    1    3    3  501    0  0.97935718731E+02 -0.37538002671E+02 -0.60509294886E+02  0.12117743773E+03  0.47000000000E+01 0. -1.
        -11    1    4    4    0    0  0.16501731032E+02 -0.12169640351E+01 -0.13024455567E+03  0.13129140265E+03  0.00000000000E+00 0.  1.
         12    1    4    4    0    0  0.25625632189E+01  0.40105059089E+02 -0.22727123314E+02  0.46168220985E+02  0.00000000000E+00 0. -1.
         -5    1    5    5    0  502 -0.14138568238E+02 -0.59992748269E+02  0.57429523227E+02  0.84375761298E+02  0.47000000000E+01 0.  1.
         13    1    6    6    0    0 -0.78701118338E+02  0.52226916625E+02  0.96775244176E+02  0.13522930427E+03  0.00000000000E+00 0. -1.
        -14    1    6    6    0    0 -0.24160326406E+02  0.64157392601E+01 -0.16050485958E+02  0.29706921446E+02  0.00000000000E+00 0.  1.
</event>
<event>
12    1  0.8493057E-002  0.1965158E+03  0.7818608E-02  0.1152721E+00
         21   -1    0    0  503  502  0.00000000000E+00  0.00000000000E+00  0.65257115021E+03  0.65257115021E+03  0.00000000000E+00 0. -1.
         21   -1    0    0  501  503 -0.00000000000E+00 -0.00000000000E+00 -0.49264884433E+03  0.49264884433E+03  0.00000000000E+00 0. -1.
          6    2    1    2  501    0  0.94509335590E+02 -0.20229075459E+02 -0.45716311342E+03  0.49761088199E+03  0.17110595430E+03 0.  0.
         24    2    3    3    0    0  0.79333108755E+00  0.34549609945E+02 -0.23262627701E+03  0.24816695085E+03  0.79230965034E+02 0.  0.
         -6    2    1    2    0  502 -0.94509335590E+02  0.20229075459E+02  0.61708541930E+03  0.64760911254E+03  0.17106115260E+03 0.  0.
        -24    2    5    5    0    0 -0.69074051499E+02  0.63324691263E+02  0.26981225421E+03  0.29671749542E+03  0.80382699944E+02 0.  0.
          5    1    3    3  501    0  0.93716004502E+02 -0.54778685404E+02 -0.22453683641E+03  0.24944393114E+03  0.47000000000E+01 0. -1.
        -13    1    4    4    0    0  0.93435315841E+00 -0.25687777493E+02 -0.82300723754E+02  0.86221482583E+02  0.00000000000E+00 0.  1.
         14    1    4    4    0    0 -0.14102207087E+00  0.60237387438E+02 -0.15032555325E+03  0.16194546827E+03  0.00000000000E+00 0. -1.
         -5    1    5    5    0  502 -0.25435284091E+02 -0.43095615803E+02  0.34727316509E+03  0.35089161712E+03  0.47000000000E+01 0.  1.
         11    1    6    6    0    0 -0.31498616280E+02  0.60952565130E+02  0.23714552318E+03  0.24687117529E+03  0.00000000000E+00 0. -1.
        -12    1    6    6    0    0 -0.37575435219E+02  0.23721261329E+01  0.32666731033E+02  0.49846320132E+02  0.00000000000E+00 0.  1.
</event>
<event>
12    1  0.8493057E-002  0.2016933E+03  0.7818608E-02  0.1148554E+00
         21   -1    0    0  501  502  0.00000000000E+00  0.00000000000E+00  0.21703158061E+03  0.21703158061E+03  0.00000000000E+00 0. -1.
         21   -1    0    0  502  503 -0.00000000000E+00 -0.00000000000E+00 -0.18653515118E+03  0.18653515118E+03  0.00000000000E+00 0.  1.
         -6    2    1    2    0  503  0.93936204345E+02 -0.44972068651E+02  0.96214689127E+01  0.20079605864E+03  0.17140591313E+03 0.  0.
        -24    2    3    3    0    0  0.17301300052E+02 -0.81716442992E+02  0.17239960534E+02  0.11533736091E+03  0.77643921493E+02 0.  0.
          6    2    1    2  501    0 -0.93936204345E+02  0.44972068651E+02  0.20874960517E+02  0.20277067315E+03  0.17272430191E+03 0.  0.
         24    2    5    5    0    0 -0.99377533908E+02  0.64994094116E+02  0.62196440631E+02  0.15629439652E+03  0.80370483636E+02 0.  0.
          5    1    5    5  501    0  0.54413295624E+01 -0.20022025465E+02 -0.41321480114E+02  0.46476276636E+02  0.47000000000E+01 0. -1.
        -13    1    6    6    0    0 -0.91648081108E+01  0.27561185845E+02 -0.14165994756E+02  0.32315446466E+02  0.00000000000E+00 0.  1.
         14    1    6    6    0    0 -0.90212725797E+02  0.37432908271E+02  0.76362435387E+02  0.12397895005E+03  0.00000000000E+00 0. -1.
         -5    1    3    3    0  503  0.76634904293E+02  0.36744374341E+02 -0.76184916216E+01  0.85458697722E+02  0.47000000000E+01 0.  1.
         13    1    4    4    0    0  0.34181615532E+02 -0.55863117306E+01  0.13797878417E+02  0.37282317094E+02  0.00000000000E+00 0. -1.
        -14    1    4    4    0    0 -0.16880315479E+02 -0.76130131261E+02  0.34420821173E+01  0.78055043821E+02  0.00000000000E+00 0.  1.
</event>
<event>
12    1  0.8493057E-002  0.4618850E+03  0.7818608E-02  0.1024240E+00
         21   -1    0    0  501  502  0.00000000000E+00  0.00000000000E+00  0.32111128514E+03  0.32111128514E+03  0.00000000000E+00 0. -1.
         21   -1    0    0  502  503 -0.00000000000E+00 -0.00000000000E+00 -0.70926221490E+03  0.70926221490E+03  0.00000000000E+00 0.  1.
         -6    2    1    2    0  503  0.33346952961E+03  0.26936838680E+03 -0.32379602535E+03  0.56407590790E+03  0.17197822205E+03 0.  0.
        -24    2    3    3    0    0  0.10697537658E+03  0.67601633302E+02 -0.16425981290E+03  0.22131751302E+03  0.77372110086E+02 0.  0.
          6    2    1    2  501    0 -0.33346952961E+03 -0.26936838680E+03 -0.64354904418E+02  0.46629759214E+03  0.17184480127E+03 0.  0.
         24    2    5    5    0    0 -0.28198634432E+03 -0.22214408717E+03  0.57001206581E+01  0.36724987948E+03  0.77302579253E+02 0.  0.
          5    1    5    5  501    0 -0.51483185296E+02 -0.47224299625E+02 -0.70055025076E+02  0.99047712652E+02  0.47000000000E+01 0. -1.
        -11    1    6    6    0    0 -0.27572001999E+01  0.57953868177E+01  0.21901086932E+01  0.67812415823E+01  0.00000000000E+00 0.  1.
         12    1    6    6    0    0 -0.27922914412E+03 -0.22793947399E+03  0.35100119649E+01  0.36046863790E+03  0.00000000000E+00 0. -1.
         -5    1    3    3    0  503  0.22649415304E+03  0.20176675350E+03 -0.15953621245E+03  0.34275839488E+03  0.47000000000E+01 0.  1.
         13    1    4    4    0    0  0.39521095718E+02  0.27647204136E+02 -0.11453397353E+02  0.49572827378E+02  0.00000000000E+00 0. -1.
        -14    1    4    4    0    0  0.67454280858E+02  0.39954429165E+02 -0.15280641554E+03  0.17174468565E+03  0.00000000000E+00 0.  1.
</event>
<event>
12    1  0.8493057E-002  0.2427145E+03  0.7818608E-02  0.1118174E+00
         21   -1    0    0  503  502  0.00000000000E+00  0.00000000000E+00  0.17335177223E+03  0.17335177223E+03  0.00000000000E+00 0.  1.
         21   -1    0    0  501  503 -0.00000000000E+00 -0.00000000000E+00 -0.63902113849E+03  0.63902113849E+03  0.00000000000E+00 0.  1.
          6    2    1    2  501    0 -0.88925686532E+02  0.14590244133E+03 -0.51173407534E+03  0.56637627380E+03  0.17238045002E+03 0.  0.
         24    2    3    3    0    0 -0.44269584283E+02  0.16902909109E+03 -0.41589201815E+03  0.45803976415E+03  0.79395371745E+02 0.  0.
         -6    2    1    2    0  502  0.88925686532E+02 -0.14590244133E+03  0.46064709079E+02  0.24599663693E+03  0.17087155365E+03 0.  0.
        -24    2    5    5    0    0  0.75944506866E+02 -0.15712408795E+02  0.34385962602E+02  0.11455676963E+03  0.76983187325E+02 0.  0.
          5    1    3    3  501    0 -0.44656102249E+02 -0.23126649760E+02 -0.95842057181E+02  0.10833650964E+03  0.47000000000E+01 0. -1.
        -13    1    4    4    0    0 -0.50416498654E+02  0.17025184101E+03 -0.35602759749E+03  0.39784816561E+03  0.00000000000E+00 0.  1.
         14    1    4    4    0    0  0.61469143710E+01 -0.12227499253E+01 -0.59864420667E+02  0.60191598545E+02  0.00000000000E+00 0. -1.
         -5    1    5    5    0  502  0.12981179666E+02 -0.13019003253E+03  0.11678746477E+02  0.13143986730E+03  0.47000000000E+01 0.  1.
         13    1    6    6    0    0 -0.10908914446E+02  0.12880035391E+02  0.36294580124E-01  0.16879011919E+02  0.00000000000E+00 0. -1.
        -14    1    6    6    0    0  0.86853421312E+02 -0.28592444186E+02  0.34349668022E+02  0.97677757711E+02  0.00000000000E+00 0.  1.
</event>
<event>
12    1  0.8493057E-002  0.2722910E+03  0.7818608E-02  0.1100006E+00
         21   -1    0    0  503  502  0.00000000000E+00  0.00000000000E+00  0.12474495039E+04  0.12474495039E+04  0.00000000000E+00 0.  1.
         21   -1    0    0  501  503 -0.00000000000E+00 -0.00000000000E+00 -0.67861287471E+02  0.67861287471E+02  0.00000000000E+00 0.  1.
          6    2    1    2  501    0  0.46463407204E+02 -0.20577526383E+03  0.35761221244E+03  0.44947624459E+03  0.17216298251E+03 0.  0.
         24    2    3    3    0    0  0.30007875783E+02 -0.19406956206E+03  0.20479360770E+03  0.29525749111E+03  0.81689024814E+02 0.  0.
         -6    2    1    2    0  502 -0.46463407204E+02  0.20577526383E+03  0.82197600394E+03  0.86583454674E+03  0.17182143014E+03 0.  0.
        -24    2    5    5    0    0 -0.36756751713E+02  0.10854438836E+03  0.67516488609E+03  0.68941556638E+03  0.79456004937E+02 0.  0.
          5    1    3    3  501    0  0.16455531421E+02 -0.11705701768E+02  0.15281860474E+03  0.15421875347E+03  0.47000000000E+01 0. -1.
        -11    1    4    4    0    0 -0.19324183485E+02 -0.43811073579E+02  0.19637760371E+02  0.51753993739E+02  0.00000000000E+00 0.  1.
         12    1    4    4    0    0  0.49332059268E+02 -0.15025848848E+03  0.18515584733E+03  0.24350349738E+03  0.00000000000E+00 0. -1.
         -5    1    5    5    0  502 -0.97066554912E+01  0.97230875467E+02  0.14681111785E+03  0.17641898036E+03  0.47000000000E+01 0.  1.
         13    1    6    6    0    0 -0.52961961135E+02  0.35222312688E+02  0.27426749696E+03  0.28154616056E+03  0.00000000000E+00 0. -1.
        -14    1    6    6    0    0  0.16205209422E+02  0.73322075676E+02  0.40089738913E+03  0.40786940582E+03  0.00000000000E+00 0.  1.
</event>
<event>
12    1  0.8493057E-002  0.4276787E+03  0.7818608E-02  0.1034614E+00
         21   -1    0    0  501  502  0.00000000000E+00  0.00000000000E+00  0.30324274142E+03  0.30324274142E+03  0.00000000000E+00 0. -1.
         21   -1    0    0  502  503 -0.00000000000E+00 -0.00000000000E+00 -0.74379381511E+03  0.74379381511E+03  0.00000000000E+00 0. -1.
         -6    2    1    2    0  503  0.33744469561E+03 -0.19899386431E+03 -0.44820898107E+03  0.61951621461E+03  0.17158545633E+03 0.  0.
        -24    2    3    3    0    0  0.27919556638E+03 -0.10703544348E+03 -0.38381335517E+03  0.49295319137E+03  0.79267943226E+02 0.  0.
          6    2    1    2  501    0 -0.33744469561E+03  0.19899386431E+03  0.76579073868E+01  0.42752034192E+03  0.17101905913E+03 0.  0.
         24    2    5    5    0    0 -0.66536659094E+02  0.72085198818E+02  0.19438116522E+02  0.12809115672E+03  0.80038123191E+02 0.  0.
          5    1    5    5  501    0 -0.27090803651E+03  0.12690866549E+03 -0.11780209135E+02  0.29942918520E+03  0.47000000000E+01 0. -1.
        -13    1    6    6    0    0 -0.62049338485E+02  0.82645489210E+01  0.11056402387E+02  0.63566242684E+02  0.00000000000E+00 0.  1.
         14    1    6    6    0    0 -0.44873206097E+01  0.63820649897E+02  0.83817141350E+01  0.64524914036E+02  0.00000000000E+00 0. -1.
         -5    1    3    3    0  503  0.58249129227E+02 -0.91958420826E+02 -0.64395625896E+02  0.12656302324E+03  0.47000000000E+01 0.  1.
         13    1    4    4    0    0  0.14494169070E+03 -0.71484086160E+02 -0.14723995955E+03  0.21862679151E+03  0.00000000000E+00 0. -1.
        -14    1    4    4    0    0  0.13425387568E+03 -0.35551357322E+02 -0.23657339563E+03  0.27432639986E+03  0.00000000000E+00 0.  1.
</event>
<event>
12    1  0.8493057E-002  0.1999550E+03  0.7818608E-02  0.1149827E+00
         21   -1    0    0  501  502  0.00000000000E+00  0.00000000000E+00  0.18196888259E+03  0.18196888259E+03  0.00000000000E+00 0. -1.
         21   -1    0    0  502  503 -0.00000000000E+00 -0.00000000000E+00 -0.22640957128E+03  0.22640957128E+03  0.00000000000E+00 0. -1.
         -6    2    1    2    0  503 -0.32982927376E+02 -0.94455773060E+02 -0.58016300138E+02  0.20820156819E+03  0.17312491257E+03 0.  0.
        -24    2    3    3    0    0 -0.27662307717E+02 -0.95613852053E+02  0.22052422495E+02  0.12781039651E+03  0.77084214627E+02 0.  0.
          6    2    1    2  501    0  0.32982927376E+02  0.94455773060E+02  0.13575611443E+02  0.20017688568E+03  0.17284884082E+03 0.  0.
         24    2    5    5    0    0 -0.25295077740E+02  0.77218752935E+02 -0.39483964207E+02  0.11936321536E+03  0.78012928344E+02 0.  0.
          5    1    5    5  501    0  0.58278005116E+02  0.17237020124E+02  0.53059575650E+02  0.80813670324E+02  0.47000000000E+01 0. -1.
        -13    1    6    6    0    0 -0.13273211925E+02  0.18281046384E+02  0.23272833015E+02  0.32434542825E+02  0.00000000000E+00 0.  1.
         14    1    6    6    0    0 -0.12021865815E+02  0.58937706552E+02 -0.62756797222E+02  0.86928672536E+02  0.00000000000E+00 0. -1.
         -5    1    3    3    0  503 -0.53206196594E+01  0.11580789934E+01 -0.80068722633E+02  0.80391171683E+02  0.47000000000E+01 0.  1.
         11    1    4    4    0    0  0.94794580283E+01 -0.38171852245E+02  0.41015912528E+02  0.56826538772E+02  0.00000000000E+00 0. -1.
        -12    1    4    4    0    0 -0.37141765745E+02 -0.57441999808E+02 -0.18963490033E+02  0.70983857734E+02  0.00000000000E+00 0.  1.
</event>
<event>
12    1  0.8493057E-002  0.1904024E+03  0.7818608E-02  0.1158240E+00
         21   -1    0    0  503  502  0.00000000000E+00  0.00000000000E+00  0.24153131129E+03  0.24153131129E+03  0.00000000000E+00 0. -1.
         21   -1    0    0  501  503 -0.00000000000E+00 -0.00000000000E+00 -0.15287689238E+03  0.15287689238E+03  0.00000000000E+00 0.  1.
          6    2    1    2  501    0  0.43239530759E+02 -0.67534984592E+02  0.15401958734E+02  0.19040087134E+03  0.17200186135E+03 0.  0.
         24    2    3    3    0    0  0.70726811888E+02 -0.30663101820E+01 -0.23972225192E+02  0.10987648395E+03  0.80538748232E+02 0.  0.
         -6    2    1    2    0  502 -0.43239530759E+02  0.67534984592E+02  0.73252460171E+02  0.20400733234E+03  0.17269174144E+03 0.  0.
        -24    2    5    5    0    0 -0.40197970038E+02  0.21521908599E+02 -0.25110435845E+02  0.95270017826E+02  0.79792060779E+02 0.  0.
          5    1    3    3  501    0 -0.27487281128E+02 -0.64468674410E+02  0.39374183925E+02  0.80524387385E+02  0.47000000000E+01 0. -1.
        -11    1    4    4    0    0  0.41615896684E+02  0.35902990415E+02  0.14699571895E+01  0.54982436757E+02  0.00000000000E+00 0.  1.
         12    1    4    4    0    0  0.29110915203E+02 -0.38969300597E+02 -0.25442182381E+02  0.54894047194E+02  0.00000000000E+00 0. -1.
         -5    1    5    5    0  502 -0.30415607217E+01  0.46013075993E+02  0.98362896017E+02  0.10873731451E+03  0.47000000000E+01 0.  1.
         13    1    6    6    0    0 -0.45896427503E+02 -0.89437007702E+01  0.10639914086E+02  0.47954974849E+02  0.00000000000E+00 0. -1.
        -14    1    6    6    0    0  0.56984574654E+01  0.30465609369E+02 -0.35750349931E+02  0.47315042977E+02  0.00000000000E+00 0.  1.
</event>
<event>
12    1  0.8493057E-002  0.2573504E+03  0.7818608E-02  0.1108943E+00
         21   -1    0    0  503  502  0.00000000000E+00  0.00000000000E+00  0.55813261598E+02  0.55813261598E+02  0.00000000000E+00 0. -1.
         21   -1    0    0  501  503 -0.00000000000E+00 -0.00000000000E+00 -0.12667014744E+04  0.12667014744E+04  0.00000000000E+00 0.  1.
          6    2    1    2  501    0  0.19348496054E+03 -0.60507236568E+01 -0.77636511318E+03  0.81750030894E+03  0.16760347535E+03 0.  0.
         24    2    3    3    0    0  0.53028255246E+02 -0.35995077989E+02 -0.40309707755E+03  0.41753047653E+03  0.87959100771E+02 0.  0.
         -6    2    1    2    0  502 -0.19348496054E+03  0.60507236568E+01 -0.43452309961E+03  0.50501442704E+03  0.16957654972E+03 0.  0.
        -24    2    5    5    0    0 -0.18987255987E+03 -0.32877578725E+02 -0.33142858941E+03  0.39465578353E+03  0.93678991346E+02 0.  0.
          5    1    3    3  501    0  0.14045670529E+03  0.29944354332E+02 -0.37326803563E+03  0.39996983241E+03  0.47000000000E+01 0. -1.
        -13    1    4    4    0    0  0.45467766004E+02 -0.34090130252E+02 -0.10550589798E+03  0.11983717802E+03  0.00000000000E+00 0.  1.
         14    1    4    4    0    0  0.75604892419E+01 -0.19049477364E+01 -0.29759117957E+03  0.29769329851E+03  0.00000000000E+00 0. -1.
         -5    1    5    5    0  502 -0.36124006664E+01  0.38928302382E+02 -0.10309451020E+03  0.11035864352E+03  0.47000000000E+01 0.  1.
         11    1    6    6    0    0 -0.13526896242E+03  0.21017866377E+02 -0.22682874487E+03  0.26493531739E+03  0.00000000000E+00 0. -1.
        -12    1    6    6    0    0 -0.54603597450E+02 -0.53895445103E+02 -0.10459984454E+03  0.12972046613E+03  0.00000000000E+00 0.  1.
</event>
<event>
12    1  0.8493057E-002  0.2021932E+03  0.7818608E-02  0.1148051E+00
         21   -1    0    0  503  502  0.00000000000E+00  0.00000000000E+00  0.93849827851E+03  0.93849827851E+03  0.00000000000E+00 0. -1.
         21   -1    0    0  501  503 -0.00000000000E+00 -0.00000000000E+00 -0.10069440808E+03  0.10069440808E+03  0.00000000000E+00 0.  1.
          6    2    1    2  501    0  0.67154162394E+02  0.81989792804E+02  0.27306006099E+02  0.20402865598E+03  0.17219194767E+03 0.  0.
         24    2    3    3    0    0 -0.24995012369E+02  0.71802025429E+02  0.69564977562E+01  0.10899469625E+03  0.77789263077E+02 0.  0.
         -6    2    1    2    0  502 -0.67154162394E+02 -0.81989792804E+02  0.81049786432E+03  0.83516403060E+03  0.17134807349E+03 0.  0.
        -24    2    5    5    0    0 -0.92431749561E+02 -0.19186602667E+02  0.64476236437E+03  0.65607315130E+03  0.76169017978E+02 0.  0.
          5    1    3    3  501    0  0.92149174762E+02  0.10187767375E+02  0.20349508343E+02  0.95033959737E+02  0.47000000000E+01 0. -1.
        -13    1    4    4    0    0  0.21506466348E+02  0.12209235553E+02 -0.16641029821E+02  0.29808009009E+02  0.00000000000E+00 0.  1.
         14    1    4    4    0    0 -0.46501478717E+02  0.59592789876E+02  0.23597527577E+02  0.79186687239E+02  0.00000000000E+00 0. -1.
         -5    1    5    5    0  502  0.25277587167E+02 -0.62803190137E+02  0.16573549996E+03  0.17909087930E+03  0.47000000000E+01 0.  1.
         11    1    6    6    0    0 -0.66522018372E+02 -0.47895751733E+02  0.46867015921E+03  0.47578451015E+03  0.00000000000E+00 0. -1.
        -12    1    6    6    0    0 -0.25909731189E+02  0.28709149067E+02  0.17609220516E+03  0.18028864115E+03  0.00000000000E+00 0.  1.
</event>
<event>
12    1  0.8493057E-002  0.2508242E+03  0.7818608E-02  0.1112939E+00
         21   -1    0    0  503  502  0.00000000000E+00  0.00000000000E+00  0.13956925696E+03  0.13956925696E+03  0.00000000000E+00 0.  1.
         21   -1    0    0  501  503 -0.00000000000E+00 -0.00000000000E+00 -0.51996437359E+03  0.51996437359E+03  0.00000000000E+00 0. -1.
          6    2    1    2  501    0  0.14397840061E+03  0.10620247083E+03 -0.68697676591E+02  0.26006182410E+03  0.17579544059E+03 0.  0.
         24    2    3    3    0    0  0.54818231637E+02 -0.96775231096E+01  0.15606006029E+01  0.97778047210E+02  0.80370504967E+02 0.  0.
         -6    2    1    2    0  502 -0.14397840061E+03 -0.10620247083E+03 -0.31169744004E+03  0.39947180646E+03  0.17439519882E+03 0.  0.
        -24    2    5    5    0    0 -0.13061006733E+03 -0.12953365009E+03 -0.19840107297E+03  0.28293334477E+03  0.82766754409E+02 0.  0.
          5    1    3    3  501    0  0.89160168969E+02  0.11587999394E+03 -0.70258277193E+02  0.16228377689E+03  0.47000000000E+01 0. -1.
        -13    1    4    4    0    0  0.66585817721E+02 -0.25921559952E+01  0.24535787375E+02  0.71009825069E+02  0.00000000000E+00 0.  1.
         14    1    4    4    0    0 -0.11767586084E+02 -0.70853671144E+01 -0.22975186772E+02  0.26768222141E+02  0.00000000000E+00 0. -1.
         -5    1    5    5    0  502 -0.13368333278E+02  0.23331179256E+02 -0.11329636707E+03  0.11653846168E+03  0.47000000000E+01 0.  1.
         11    1    6    6    0    0 -0.44742361700E+02 -0.51131024118E+02 -0.13343918151E+03  0.14974069493E+03  0.00000000000E+00 0. -1.
        -12    1    6    6    0    0 -0.85867705627E+02 -0.78402625970E+02 -0.64961891468E+02  0.13319264984E+03  0.00000000000E+00 0.  1.
</event>
<event>
12    1  0.8493057E-002  0.2749150E+03  0.7818608E-02  0.1098813E+00
         21   -1    0    0  501  502  0.00000000000E+00  0.00000000000E+00  0.15942241542E+04  0.15942241542E+04  0.00000000000E+00 0.  1.
         21   -1    0    0  502  503 -0.00000000000E+00 -0.00000000000E+00 -0.21777684673E+03  0.21777684673E+03  0.00000000000E+00 0.  1.
         -6    2    1    2    0  503 -0.77551718869E+02 -0.19701706949E+03 -0.11462829083E+03  0.29579366195E+03  0.17182622216E+03 0.  0.
        -24    2    3    3    0    0  0.77478009124E+01 -0.87956450187E+02 -0.46379122005E+01  0.11890330001E+03  0.79499175941E+02 0.  0.
          6    2    1    2  501    0  0.77551718869E+02  0.19701706949E+03  0.14910755983E+04  0.15162073389E+04  0.17535181818E+03 0.  0.
         24    2    5    5    0    0  0.22983494500E+02  0.24396345530E+02  0.65117603614E+03  0.65700481921E+03  0.80632994031E+02 0.  0.
          5    1    5    5  501    0  0.54568224369E+02  0.17262072396E+03  0.83989956213E+03  0.85920251974E+03  0.47000000000E+01 0. -1.
        -11    1    6    6    0    0 -0.28869324774E+02  0.11937003855E+02  0.16664632128E+03  0.16954918569E+03  0.00000000000E+00 0.  1.
         12    1    6    6    0    0  0.51852819273E+02  0.12459341675E+02  0.48452971486E+03  0.48745563352E+03  0.00000000000E+00 0. -1.
         -5    1    3    3    0  503 -0.85299519781E+02 -0.10906061931E+03 -0.10999037863E+03  0.17689036194E+03  0.47000000000E+01 0.  1.
         11    1    4    4    0    0 -0.21430247577E+02 -0.72477911376E+02  0.19427338962E+02  0.78036687832E+02  0.00000000000E+00 0. -1.
        -12    1    4    4    0    0  0.29178048489E+02 -0.15478538811E+02 -0.24065251163E+02  0.40866612178E+02  0.00000000000E+00 0.  1.
</event>
<event>
12    1  0.8493057E-002  0.1900203E+03  0.7818608E-02  0.1158903E+00
         21   -1    0    0  503  502  0.00000000000E+00  0.00000000000E+00  0.20382499513E+04  0.20382499513E+04  0.00000000000E+00 0.  1.
         21   -1    0    0  501  503 -0.00000000000E+00 -0.00000000000E+00 -0.17863863936E+02  0.17863863936E+02  0.00000000000E+00 0.  1.
          6    2    1    2  501    0 -0.74995091311E+02 -0.18066635284E+02  0.87423386806E+03  0.89464661380E+03  0.17365782589E+03 0.  0.
         24    2    3    3    0    0 -0.11558632822E+03 -0.44884201766E+02  0.67674227135E+03  0.69119673998E+03  0.66317725318E+02 0.  0.
         -6    2    1    2    0  502  0.74995091311E+02  0.18066635284E+02  0.11461522193E+04  0.11614672014E+04  0.17143652808E+03 0.  0.
        -24    2    5    5    0    0  0.89560584266E+02  0.32197486903E+02  0.51950731219E+03  0.53447616150E+03  0.81970381059E+02 0.  0.
          5    1    3    3  501    0  0.40591236908E+02  0.26817566483E+02  0.19749159671E+03  0.20344987382E+03  0.47000000000E+01 0. -1.
        -11    1    4    4    0    0 -0.68315015247E+02 -0.93923998361E+01  0.50229556814E+03  0.50700689961E+03  0.00000000000E+00 0.  1.
         12    1    4    4    0    0 -0.47271312971E+02 -0.35491801930E+02  0.17444670321E+03  0.18418984037E+03  0.00000000000E+00 0. -1.
         -5    1    5    5    0  502 -0.14565492955E+02 -0.14130851620E+02  0.62664490708E+03  0.62699103990E+03  0.47000000000E+01 0.  1.
         11    1    6    6    0    0  0.26170328823E+02 -0.25869112265E+02  0.21239880958E+03  0.21556287108E+03  0.00000000000E+00 0. -1.
        -12    1    6    6    0    0  0.63390255442E+02  0.58066599168E+02  0.30710850261E+03  0.31891329041E+03  0.00000000000E+00 0.  1.
</event>
<event>
12    1  0.8493057E-002  0.1832141E+03  0.7818608E-02  0.1164855E+00
         21   -1    0    0  501  502  0.00000000000E+00  0.00000000000E+00  0.76355950239E+02  0.76355950239E+02  0.00000000000E+00 0. -1.
         21   -1    0    0  502  503 -0.00000000000E+00 -0.00000000000E+00 -0.44986484287E+03  0.44986484287E+03  0.00000000000E+00 0. -1.
         -6    2    1    2    0  503 -0.33841908612E+02 -0.53197798615E+02 -0.14436471056E+03  0.23283626666E+03  0.17145342475E+03 0.  0.
        -24    2    3    3    0    0  0.24221215649E+02  0.60924983916E+01 -0.25037782715E+02  0.87413876953E+02  0.79940662347E+02 0.  0.
          6    2    1    2  501    0  0.33841908612E+02  0.53197798615E+02 -0.22914418207E+03  0.29338452645E+03  0.17202367171E+03 0.  0.
         24    2    5    5    0    0  0.30272430639E+01  0.91716303492E+02 -0.20506158800E+03  0.23829114965E+03  0.79444147666E+02 0.  0.
          5    1    5    5  501    0  0.30814665548E+02 -0.38518504876E+02 -0.24082594066E+02  0.55093376804E+02  0.47000000000E+01 0. -1.
        -11    1    6    6    0    0 -0.28365142562E+02  0.31501527045E+02 -0.34320969021E+02  0.54542244483E+02  0.00000000000E+00 0.  1.
         12    1    6    6    0    0  0.31392385626E+02  0.60214776446E+02 -0.17074061898E+03  0.18374890516E+03  0.00000000000E+00 0. -1.
         -5    1    3    3    0  503 -0.58063124262E+02 -0.59290297007E+02 -0.11932692785E+03  0.14542238970E+03  0.47000000000E+01 0.  1.
         11    1    4    4    0    0 -0.21206011531E+01  0.16545850070E+02 -0.48078033676E+02  0.50889678973E+02  0.00000000000E+00 0. -1.
        -12    1    4    4    0    0  0.26341816802E+02 -0.10453351678E+02  0.23040250961E+02  0.36524197981E+02  0.00000000000E+00 0.  1.
</event>
<event>
12    1  0.8493057E-002  0.1864131E+03  0.7818608E-02  0.1161991E+00
         21   -1    0    0  501  502  0.00000000000E+00  0.00000000000E+00  0.53320292544E+03  0.53320292544E+03  0.00000000000E+00 0.  1.
         21   -1    0    0  502  503 -0.00000000000E+00 -0.00000000000E+00 -0.95046377439E+02  0.95046377439E+02  0.00000000000E+00 0.  1.
         -6    2    1    2    0  503  0.33785971820E+02  0.61629299310E+02  0.42285271041E+02  0.19114881599E+03  0.17265619966E+03 0.  0.
        -24    2    3    3    0    0 -0.45484008542E+02  0.49832604018E+02  0.14559725431E+02  0.10621538508E+03  0.80731895599E+02 0.  0.
          6    2    1    2  501    0 -0.33785971820E+02 -0.61629299310E+02  0.39587127696E+03  0.43710048690E+03  0.17147333698E+03 0.  0.
         24    2    5    5    0    0  0.13272099904E+02 -0.89135544902E+02  0.18452709310E+03  0.21878990604E+03  0.75481659331E+02 0.  0.
          5    1    5    5  501    0 -0.47058071724E+02  0.27506245593E+02  0.21134418387E+03  0.21831058086E+03  0.47000000000E+01 0. -1.
        -13    1    6    6    0    0  0.30613654529E+00 -0.64800002264E+02  0.17939808244E+03  0.19074277442E+03  0.00000000000E+00 0.  1.
         14    1    6    6    0    0  0.12965963359E+02 -0.24335542638E+02  0.51290106609E+01  0.28047131612E+02  0.00000000000E+00 0. -1.
         -5    1    3    3    0  503  0.79269980362E+02  0.11796695291E+02  0.27725545610E+02  0.84933430908E+02  0.47000000000E+01 0.  1.
         11    1    4    4    0    0  0.32061400811E+01 -0.19637631890E+02  0.67979152599E+01  0.21026829821E+02  0.00000000000E+00 0. -1.
        -12    1    4    4    0    0 -0.48690148623E+02  0.69470235908E+02  0.77618101712E+01  0.85188555259E+02  0.00000000000E+00 0.  1.
</event>
<event>
12    1  0.8493057E-002  0.2853448E+03  0.7818608E-02  0.1092864E+00
         21   -1    0    0  501  502  0.00000000000E+00  0.00000000000E+00  0.15142836444E+04  0.15142836444E+04  0.00000000000E+00 0.  1.
         21   -1    0    0  502  503 -0.00000000000E+00 -0.00000000000E+00 -0.55498811255E+02  0.55498811255E+02  0.00000000000E+00 0.  1.
         -6    2    1    2    0  503  0.86268055152E+02 -0.21052341696E+03  0.87182703862E+03  0.91733527786E+03  0.17221887329E+03 0.  0.
        -24    2    3    3    0    0  0.12856412681E+02 -0.25197850267E+02  0.24183123957E+03  0.25653906741E+03  0.80806718002E+02 0.  0.
          6    2    1    2  501    0 -0.86268055152E+02  0.21052341696E+03  0.58695779449E+03  0.65244717776E+03  0.17148055523E+03 0.  0.
         24    2    5    5    0    0  0.31740498955E+02  0.49947935076E+02  0.16842682339E+03  0.18887326996E+03  0.61670590835E+02 0.  0.
          5    1    5    5  501    0 -0.11800855411E+03  0.16057548188E+03  0.41853097110E+03  0.46357390780E+03  0.47000000000E+01 0. -1.
        -11    1    6    6    0    0  0.39655613640E+02  0.60348995962E+02  0.13780968253E+03  0.15558302480E+03  0.00000000000E+00 0.  1.
         12    1    6    6    0    0 -0.79151146852E+01 -0.10401060886E+02  0.30617140866E+02  0.33290245161E+02  0.00000000000E+00 0. -1.
         -5    1    3    3    0  503  0.73411642470E+02 -0.18532556669E+03  0.62999579905E+03  0.66079621045E+03  0.47000000000E+01 0.  1.
         13    1    4    4    0    0 -0.28092000545E+02 -0.38546487495E+01  0.16074057884E+03  0.16322240195E+03  0.00000000000E+00 0. -1.
        -14    1    4    4    0    0  0.40948413227E+02 -0.21343201517E+02  0.81090660727E+02  0.93316665468E+02  0.00000000000E+00 0.  1.
</event>
<event>
12    1  0.8493057E-002  0.1993383E+03  0.7818608E-02  0.1150483E+00
         21   -1    0    0  503  502  0.00000000000E+00  0.00000000000E+00  0.74999099250E+03  0.74999099250E+03  0.00000000000E+00 0.  1.
         21   -1    0    0  501  503 -0.00000000000E+00 -0.00000000000E+00 -0.13643887926E+03  0.13643887926E+03  0.00000000000E+00 0. -1.
          6    2    1    2  501    0  0.87494501577E+02 -0.42736622490E+02 -0.40599674476E+02  0.20258024546E+03  0.17294136455E+03 0.  0.
         24    2    3    3    0    0  0.29225770302E+02  0.23935335195E+01 -0.81136263355E+02  0.11833488319E+03  0.80994917715E+02 0.  0.
         -6    2    1    2    0  502 -0.87494501577E+02  0.42736622490E+02  0.65415178772E+03  0.68384962630E+03  0.17393689461E+03 0.  0.
        -24    2    5    5    0    0  0.18657345346E+02  0.54428314080E+02  0.25946478591E+03  0.27494275468E+03  0.70434404352E+02 0.  0.
          5    1    3    3  501    0  0.58268731276E+02 -0.45130156009E+02  0.40536588879E+02  0.84245362269E+02  0.47000000000E+01 0. -1.
        -13    1    4    4    0    0 -0.54422677535E+01  0.35948439263E+02 -0.46079779055E+02  0.58696291207E+02  0.00000000000E+00 0.  1.
         14    1    4    4    0    0  0.34668038055E+02 -0.33554905744E+02 -0.35056484300E+02  0.59638591982E+02  0.00000000000E+00 0. -1.
         -5    1    5    5    0  502 -0.10615184692E+03 -0.11691691591E+02  0.39468700181E+03  0.40890687162E+03  0.47000000000E+01 0.  1.
         11    1    6    6    0    0 -0.36710643514E+01  0.42779049249E+02  0.23802986628E+03  0.24187133151E+03  0.00000000000E+00 0. -1.
        -12    1    6    6    0    0  0.22328409697E+02  0.11649264832E+02  0.21434919629E+02  0.33071423166E+02  0.00000000000E+00 0.  1.
</event>
<event>
12    1  0.8493057E-002  0.1953717E+03  0.7818608E-02  0.1156683E+00
         21   -1    0    0  503  502  0.00000000000E+00  0.00000000000E+00  0.28727536831E+03  0.28727536831E+03  0.00000000000E+00 0.  1.
         21   -1    0    0  501  503 -0.00000000000E+00 -0.00000000000E+00 -0.13058805560E+03  0.13058805560E+03  0.00000000000E+00 0.  1.
          6    2    1    2  501    0 -0.46335763671E+02  0.64678291322E+02  0.34205165311E+02  0.19834334269E+03  0.17843711467E+03 0.  0.
         24    2    3    3    0    0 -0.35315363164E+02  0.77471329880E+02 -0.39902605990E+02  0.12219110812E+03  0.78035037700E+02 0.  0.
         -6    2    1    2    0  502  0.46335763671E+02 -0.64678291322E+02  0.12248214740E+03  0.21952008122E+03  0.16388076539E+03 0.  0.
        -24    2    5    5    0    0  0.27732730482E+02  0.25239397957E+02  0.70026924104E+02  0.11366686143E+03  0.81303466959E+02 0.  0.
          5    1    3    3  501    0 -0.11020400507E+02 -0.12793038558E+02  0.74107771301E+02  0.76152234571E+02  0.47000000000E+01 0. -1.
        -11    1    4    4    0    0 -0.21076665267E+02  0.81569104273E+02 -0.51425146338E+01  0.84404917200E+02  0.00000000000E+00 0.  1.
         12    1    4    4    0    0 -0.14238697897E+02 -0.40977743934E+01 -0.34760091356E+02  0.37786190915E+02  0.00000000000E+00 0. -1.
         -5    1    5    5    0  502  0.18603033189E+02 -0.89917689279E+02  0.52455223295E+02  0.10585321979E+03  0.47000000000E+01 0.  1.
         13    1    6    6    0    0 -0.13135102529E+02  0.66334056767E+01  0.67070463851E+02  0.68665712772E+02  0.00000000000E+00 0. -1.
        -14    1    6    6    0    0  0.40867833010E+02  0.18605992280E+02  0.29564602531E+01  0.45001148662E+02  0.00000000000E+00 0.  1.
</event>
<event>
12    1  0.8493057E-002  0.2604597E+03  0.7818608E-02  0.1107661E+00
         21   -1    0    0  503  502  0.00000000000E+00  0.00000000000E+00  0.11223517308E+03  0.11223517308E+03  0.00000000000E+00 0. -1.
         21   -1    0    0  501  503 -0.00000000000E+00 -0.00000000000E+00 -0.61609684453E+03  0.61609684453E+03  0.00000000000E+00 0.  1.
          6    2    1    2  501    0  0.18153463280E+03  0.38650412917E+02 -0.32097493894E+03  0.41007613104E+03  0.17518231790E+03 0.  0.
         24    2    3    3    0    0  0.82489368926E+02  0.32347836518E+02 -0.27623611270E+03  0.30111127737E+03  0.80689112541E+02 0.  0.
         -6    2    1    2    0  502 -0.18153463280E+03 -0.38650412917E+02 -0.18288673251E+03  0.31825588656E+03  0.18273088157E+03 0.  0.
        -24    2    5    5    0    0 -0.78998118777E+02 -0.62038441771E+02 -0.28080218289E+02  0.13104508707E+03  0.79340060238E+02 0.  0.
          5    1    3    3  501    0  0.99045263869E+02  0.63025763996E+01 -0.44738826232E+02  0.10896485368E+03  0.47000000000E+01 0. -1.
        -13    1    4    4    0    0 -0.10753731818E+01  0.26367738709E+02 -0.25295908563E+02  0.36555397169E+02  0.00000000000E+00 0.  1.
         14    1    4    4    0    0  0.83564742108E+02  0.59800978087E+01 -0.25094020414E+03  0.26455588020E+03  0.00000000000E+00 0. -1.
         -5    1    5    5    0  502 -0.10253651402E+03  0.23388028854E+02 -0.15480651422E+03  0.18721079949E+03  0.47000000000E+01 0.  1.
         11    1    6    6    0    0  0.86678523783E+01  0.10856553747E+02 -0.14876157110E+01  0.13971736636E+02  0.00000000000E+00 0. -1.
        -12    1    6    6    0    0 -0.87665971155E+02 -0.72894995518E+02 -0.26592602578E+02  0.11707335043E+03  0.00000000000E+00 0.  1.
</event>
<event>
12    1  0.8493057E-002  0.1978889E+03  0.7818608E-02  0.1155190E+00
         21   -1    0    0  503  502  0.00000000000E+00  0.00000000000E+00  0.41421803433E+03  0.41421803433E+03  0.00000000000E+00 0.  1.
         21   -1    0    0  501  503 -0.00000000000E+00 -0.00000000000E+00 -0.25830487016E+03  0.25830487016E+03  0.00000000000E+00 0. -1.
          6    2    1    2  501    0  0.14739665341E+02 -0.96657506489E+02 -0.19700894747E+03  0.26790700539E+03  0.15297616434E+03 0.  0.
         24    2    3    3    0    0  0.62204497021E+02 -0.77425370359E+02 -0.11599320683E+03  0.17194646382E+03  0.79038439789E+02 0.  0.
         -6    2    1    2    0  502 -0.14739665341E+02  0.96657506489E+02  0.35292211164E+03  0.40461589911E+03  0.17204673095E+03 0.  0.
        -24    2    5    5    0    0  0.32803348128E+02  0.11809896283E+03  0.27000551014E+03  0.30654792786E+03  0.77751089376E+02 0.  0.
          5    1    3    3  501    0 -0.47464831680E+02 -0.19232136130E+02 -0.81015740642E+02  0.95960541569E+02  0.47000000000E+01 0. -1.
        -11    1    4    4    0    0 -0.18400004455E+02 -0.23737245575E+02 -0.29496664072E+02  0.42095963974E+02  0.00000000000E+00 0.  1.
         12    1    4    4    0    0  0.80604501477E+02 -0.53688124784E+02 -0.86496542755E+02  0.12985049984E+03  0.00000000000E+00 0. -1.
         -5    1    5    5    0  502 -0.47543013469E+02 -0.21441456343E+02  0.82916601499E+02  0.98067971245E+02  0.47000000000E+01 0.  1.
         13    1    6    6    0    0  0.33048594206E+02  0.63668042716E+02  0.73745704171E+02  0.10287982371E+03  0.00000000000E+00 0. -1.
        -14    1    6    6    0    0 -0.24524607812E+00  0.54430920116E+02  0.19625980597E+03  0.20366810416E+03  0.00000000000E+00 0.  1.
</event>
<event>
12    1  0.8493057E-002  0.1935818E+03  0.7818608E-02  0.1155388E+00
         21   -1    0    0  501  502  0.00000000000E+00  0.00000000000E+00  0.24426758114E+03  0.24426758114E+03  0.00000000000E+00 0. -1.
         21   -1    0    0  502  503 -0.00000000000E+00 -0.00000000000E+00 -0.33181224049E+03  0.33181224049E+03  0.00000000000E+00 0. -1.
         -6    2    1    2    0  503 -0.21687403683E+02 -0.84411406580E+02 -0.25520007341E+03  0.31998952127E+03  0.17225152311E+03 0.  0.
        -24    2    3    3    0    0 -0.39036058326E+02 -0.37476614677E+02 -0.57370281561E+02  0.11587541825E+03  0.84896718728E+02 0.  0.
          6    2    1    2  501    0  0.21687403683E+02  0.84411406580E+02  0.16765541407E+03  0.25609030036E+03  0.17285333388E+03 0.  0.
         24    2    5    5    0    0  0.28871609961E+02  0.44298656892E+02  0.22753870517E+02  0.10549417547E+03  0.88404420539E+02 0.  0.
          5    1    5    5  501    0 -0.71842062781E+01  0.40112749688E+02  0.14490154355E+03  0.15059612489E+03  0.47000000000E+01 0. -1.
        -11    1    6    6    0    0 -0.18130436608E+02  0.49694271426E+02 -0.22368693439E+00  0.52898803201E+02  0.00000000000E+00 0.  1.
         12    1    6    6    0    0  0.47002046569E+02 -0.53956145346E+01  0.22977557452E+02  0.52595372271E+02  0.00000000000E+00 0. -1.
         -5    1    3    3    0  503  0.17348654643E+02 -0.46934791903E+02 -0.19782979185E+03  0.20411410302E+03  0.47000000000E+01 0.  1.
         11    1    4    4    0    0 -0.36302835144E+02 -0.62329006781E+02 -0.55104686597E+02  0.90770740940E+02  0.00000000000E+00 0. -1.
        -12    1    4    4    0    0 -0.27332231822E+01  0.24852392105E+02 -0.22655949642E+01  0.25104677310E+02  0.00000000000E+00 0.  1.
</event>
<event>
12    1  0.8493057E-002  0.2112547E+03  0.7818608E-02  0.1141038E+00
         21   -1    0    0  503  502  0.00000000000E+00  0.00000000000E+00  0.50339874482E+03  0.50339874482E+03  0.00000000000E+00 0.  1.
         21   -1    0    0  501  503 -0.00000000000E+00 -0.00000000000E+00 -0.14001547611E+03  0.14001547611E+03  0.00000000000E+00 0.  1.
          6    2    1    2  501    0  0.11166311095E+03  0.52422278120E+02 -0.14364331169E+02  0.21174246311E+03  0.17149866205E+03 0.  0.
         24    2    3    3    0    0  0.13973728200E+03  0.61625587154E+02  0.10443345310E+02  0.17287897396E+03  0.80335889878E+02 0.  0.
         -6    2    1    2    0  502 -0.11166311095E+03 -0.52422278120E+02  0.37774759987E+03  0.43167175782E+03  0.16861349796E+03 0.  0.
        -24    2    5    5    0    0 -0.62012344103E+02  0.30089143257E+02  0.24893044660E+03  0.27077029019E+03  0.81236047684E+02 0.  0.
          5    1    3    3  501    0 -0.28074171046E+02 -0.92033090339E+01 -0.24807676479E+02  0.38863489156E+02  0.47000000000E+01 0. -1.
        -13    1    4    4    0    0  0.11125498741E+03  0.25382511130E+02 -0.22384674150E+02  0.11628851074E+03  0.00000000000E+00 0.  1.
         14    1    4    4    0    0  0.28482294591E+02  0.36243076024E+02  0.32828019460E+02  0.56590463211E+02  0.00000000000E+00 0. -1.
         -5    1    5    5    0  502 -0.49650766849E+02 -0.82511421377E+02  0.12881715328E+03  0.16090146763E+03  0.47000000000E+01 0.  1.
         13    1    6    6    0    0 -0.33605618224E+02  0.10119375659E+02  0.22491900984E+02  0.41684828773E+02  0.00000000000E+00 0. -1.
        -14    1    6    6    0    0 -0.28406725879E+02  0.19969767598E+02  0.22643854561E+03  0.22908546142E+03  0.00000000000E+00 0.  1.
</event>
<event>
12    1  0.8493057E-002  0.1908282E+03  0.7818608E-02  0.1157860E+00
         21   -1    0    0  501  502  0.00000000000E+00  0.00000000000E+00  0.59687523604E+02  0.59687523604E+02  0.00000000000E+00 0. -1.
         21   -1    0    0  502  503 -0.00000000000E+00 -0.00000000000E+00 -0.74364553814E+03  0.74364553814E+03  0.00000000000E+00 0. -1.
         -6    2    1    2    0  503  0.62736435089E+02  0.55997181635E+02 -0.51302054108E+03  0.54713972869E+03  0.17058799047E+03 0.  0.
        -24    2    3    3    0    0  0.16353458617E+02  0.77162607250E+01 -0.43555425096E+03  0.44464317296E+03  0.87596058371E+02 0.  0.
          6    2    1    2  501    0 -0.62736435089E+02 -0.55997181635E+02 -0.17093747345E+03  0.25619333305E+03  0.17130049455E+03 0.  0.
         24    2    5    5    0    0 -0.10728093686E+03 -0.20843122216E+02 -0.86342583960E+02  0.15422075900E+03  0.66222092582E+02 0.  0.
          5    1    5    5  501    0  0.44544501767E+02 -0.35154059419E+02 -0.84594889489E+02  0.10197257405E+03  0.47000000000E+01 0. -1.
        -13    1    6    6    0    0 -0.46658325898E+02  0.11309933530E+02 -0.57207785487E+01  0.48349160068E+02  0.00000000000E+00 0.  1.
         14    1    6    6    0    0 -0.60622610958E+02 -0.32153055747E+02 -0.80621805411E+02  0.10587159893E+03  0.00000000000E+00 0. -1.
         -5    1    3    3    0  503  0.46382976472E+02  0.48280920910E+02 -0.77466290129E+02  0.10249655573E+03  0.47000000000E+01 0.  1.
         13    1    4    4    0    0  0.24199344442E+00  0.46444702745E+02 -0.19465513093E+03  0.20011943677E+03  0.00000000000E+00 0. -1.
        -14    1    4    4    0    0  0.16111465172E+02 -0.38728442020E+02 -0.24089912002E+03  0.24452373619E+03  0.00000000000E+00 0.  1.
</event>
<event>
12    1  0.8493057E-002  0.1750616E+03  0.7818608E-02  0.1172723E+00
         21   -1    0    0  503  502  0.00000000000E+00  0.00000000000E+00  0.13927876764E+03  0.13927876764E+03  0.00000000000E+00 0.  1.
         21   -1    0    0  501  503 -0.00000000000E+00 -0.00000000000E+00 -0.22485687947E+03  0.22485687947E+03  0.00000000000E+00 0.  1.
          6    2    1    2  501    0 -0.28241570224E+01  0.29480882370E+02 -0.70146673296E+02  0.18839519253E+03  0.17232264653E+03 0.  0.
         24    2    3    3    0    0  0.15015815916E+02  0.84072750050E+02 -0.52673942769E+02  0.12817955533E+03  0.79760592585E+02 0.  0.
         -6    2    1    2    0  502  0.28241570224E+01 -0.29480882370E+02 -0.15431438529E+02  0.17574045458E+03  0.17253834297E+03 0.  0.
        -24    2    5    5    0    0  0.52939172068E+02  0.21780629396E+02  0.50723706467E+01  0.10102932079E+03  0.83091774321E+02 0.  0.
          5    1    3    3  501    0 -0.17839972939E+02 -0.54591867680E+02 -0.17472730527E+02  0.60215637199E+02  0.47000000000E+01 0. -1.
        -11    1    4    4    0    0  0.15488317681E+02  0.20489272822E+02 -0.58933173199E+02  0.64286990820E+02  0.00000000000E+00 0.  1.
         12    1    4    4    0    0 -0.47250176459E+00  0.63583477227E+02  0.62592304300E+01  0.63892564511E+02  0.00000000000E+00 0. -1.
         -5    1    5    5    0  502 -0.50115015046E+02 -0.51261511766E+02 -0.20503809176E+02  0.74711133791E+02  0.47000000000E+01 0.  1.
         11    1    6    6    0    0  0.11757649544E+02  0.42073209703E+02  0.25715447228E+02  0.50692026233E+02  0.00000000000E+00 0. -1.
        -12    1    6    6    0    0  0.41181522524E+02 -0.20292580306E+02 -0.20643076581E+02  0.50337294560E+02  0.00000000000E+00 0.  1.
</event>
<event>
12    1  0.8493057E-002  0.2252984E+03  0.7818608E-02  0.1130099E+00
         21   -1    0    0  503  502  0.00000000000E+00  0.00000000000E+00  0.29103750155E+03  0.29103750155E+03  0.00000000000E+00 0.  1.
         21   -1    0    0  501  503 -0.00000000000E+00 -0.00000000000E+00 -0.20115071506E+03  0.20115071506E+03  0.00000000000E+00 0.  1.
          6    2    1    2  501    0  0.89452285640E+01 -0.14681086444E+03 -0.45592879256E+02  0.22929257988E+03  0.16989093418E+03 0.  0.
         24    2    3    3    0    0 -0.10311074180E+02 -0.17369943865E+03 -0.39578975506E+02  0.19535060503E+03  0.79483019228E+02 0.  0.
         -6    2    1    2    0  502 -0.89452285640E+01  0.14681086444E+03  0.13547966575E+03  0.26289563672E+03  0.17066320325E+03 0.  0.
        -24    2    5    5    0    0 -0.61538188981E+02  0.66685934274E+02  0.11068113877E+03  0.16378417996E+03  0.79630274360E+02 0.  0.
          5    1    3    3  501    0  0.19256302744E+02  0.26888574209E+02 -0.60139037508E+01  0.33941974850E+02  0.47000000000E+01 0. -1.
        -11    1    4    4    0    0 -0.10592896415E+02 -0.10136065510E+03 -0.62397800183E+02  0.11949760384E+03  0.00000000000E+00 0.  1.
         12    1    4    4    0    0  0.28182223455E+00 -0.72338783553E+02  0.22818824678E+02  0.75853001189E+02  0.00000000000E+00 0. -1.
         -5    1    5    5    0  502  0.52592960417E+02  0.80124930168E+02  0.24798526979E+02  0.99111456756E+02  0.47000000000E+01 0.  1.
         11    1    6    6    0    0 -0.55963861516E+02  0.78812806172E+02  0.65727438326E+02  0.11689101061E+03  0.00000000000E+00 0. -1.
        -12    1    6    6    0    0 -0.55743274649E+01 -0.12126871898E+02  0.44953700442E+02  0.46893169355E+02  0.00000000000E+00 0.  1.
</event>
<event>
12    1  0.8493057E-002  0.2667417E+03  0.7818608E-02  0.1103466E+00
         21   -1    0    0  501  502  0.00000000000E+00  0.00000000000E+00  0.13326358700E+03  0.13326358700E+03  0.00000000000E+00 0. -1.
         21   -1    0    0  502  503 -0.00000000000E+00 -0.00000000000E+00 -0.62244099025E+03  0.62244099025E+03  0.00000000000E+00 0.  1.
         -6    2    1    2    0  503  0.35774713732E+01  0.20307022259E+03 -0.38960424306E+03  0.47098378638E+03  0.16965832493E+03 0.  0.
        -24    2    3    3    0    0  0.48534245196E+02  0.83900278551E+02 -0.26096876109E+03  0.28989882208E+03  0.80881413680E+02 0.  0.
          6    2    1    2  501    0 -0.35774713732E+01 -0.20307022259E+03 -0.99573160185E+02  0.28472079087E+03  0.17291848057E+03 0.  0.
         24    2    5    5    0    0 -0.44047674089E+02 -0.68306155859E+02  0.17193527496E+01  0.11128073158E+03  0.75990239684E+02 0.  0.
          5    1    5    5  501    0  0.40470202716E+02 -0.13476406673E+03 -0.10129251293E+03  0.17344005929E+03  0.47000000000E+01 0. -1.
        -11    1    6    6    0    0  0.50464036913E+01  0.49099664850E+00  0.23467972329E+02  0.24009435503E+02  0.00000000000E+00 0.  1.
         12    1    6    6    0    0 -0.49094077781E+02 -0.68797152507E+02 -0.21748619579E+02  0.87271296082E+02  0.00000000000E+00 0. -1.
         -5    1    3    3    0  503 -0.44956773823E+02  0.11916994404E+03 -0.12863548197E+03  0.18108496430E+03  0.47000000000E+01 0.  1.
         13    1    4    4    0    0  0.18486861715E+02 -0.14117376363E+02 -0.39238828435E+02  0.45615238993E+02  0.00000000000E+00 0. -1.
        -14    1    4    4    0    0  0.30047383482E+02  0.98017654914E+02 -0.22172993265E+03  0.24428358308E+03  0.00000000000E+00 0.  1.
</event>
<event>
12    1  0.8493057E-002  0.1837444E+03  0.7818608E-02  0.1166777E+00
         21   -1    0    0  501  502  0.00000000000E+00  0.00000000000E+00  0.27266712619E+03  0.27266712619E+03  0.00000000000E+00 0.  1.
         21   -1    0    0  502  503 -0.00000000000E+00 -0.00000000000E+00 -0.50941905638E+03  0.50941905638E+03  0.00000000000E+00 0.  1.
         -6    2    1    2    0  503 -0.16505738880E+02 -0.38007834711E+02 -0.46241561370E+03  0.49758437974E+03  0.17901111767E+03 0.  0.
        -24    2    3    3    0    0 -0.14720262177E+01  0.21974412691E+02 -0.40081900214E+03  0.41017662793E+03  0.84284944984E+02 0.  0.
          6    2    1    2  501    0  0.16505738880E+02  0.38007834711E+02  0.22566368351E+03  0.28450180284E+03  0.16822646298E+03 0.  0.
         24    2    5    5    0    0 -0.22455418993E+02  0.74182972028E+02  0.10811851883E+03  0.15540661267E+03  0.80338297019E+02 0.  0.
          5    1    5    5  501    0  0.38961157873E+02 -0.36175137317E+02  0.11754516468E+03  0.12909519016E+03  0.47000000000E+01 0. -1.
        -11    1    6    6    0    0  0.30184061527E+02  0.21124231250E+02  0.37886807988E+02  0.52846200769E+02  0.00000000000E+00 0.  1.
         12    1    6    6    0    0 -0.52639480521E+02  0.53058740778E+02  0.70231710840E+02  0.10256041190E+03  0.00000000000E+00 0. -1.
         -5    1    3    3    0  503 -0.15033712662E+02 -0.59982247402E+02 -0.61596611561E+02  0.87407751805E+02  0.47000000000E+01 0.  1.
         11    1    4    4    0    0  0.31353699438E+01 -0.42327858260E+01  0.26046883245E+01  0.58763442548E+01  0.00000000000E+00 0. -1.
        -12    1    4    4    0    0 -0.46073961615E+01  0.26207198517E+02 -0.40342369047E+03  0.40430028368E+03  0.00000000000E+00 0.  1.
</event>
<event>
12    1  0.8493057E-002  0.2459316E+03  0.7818608E-02  0.1115925E+00
         21   -1    0    0  503  502  0.00000000000E+00  0.00000000000E+00  0.92416775207E+02  0.92416775207E+02  0.00000000000E+00 0.  1.
         21   -1    0    0  501  503 -0.00000000000E+00 -0.00000000000E+00 -0.78328121754E+03  0.78328121754E+03  0.00000000000E+00 0.  1.
          6    2    1    2  501    0 -0.11625150106E+03  0.13120549978E+03 -0.16769039874E+03  0.29766159579E+03  0.17249075660E+03 0.  0.
         24    2    3    3    0    0 -0.11018886349E+03  0.15419219860E+03 -0.17757050693E+03  0.27149194859E+03  0.79118730196E+02 0.  0.
         -6    2    1    2    0  502  0.11625150106E+03 -0.13120549978E+03 -0.52317404360E+03  0.57803639696E+03  0.17229539065E+03 0.  0.
        -24    2    5    5    0    0  0.37167305210E+01 -0.85602942523E+02 -0.23808537030E+03  0.26813107359E+03  0.88701472466E+02 0.  0.
          5    1    3    3  501    0 -0.60626375685E+01 -0.22986698824E+02  0.98801081948E+01  0.26169647209E+02  0.47000000000E+01 0. -1.
        -13    1    4    4    0    0  0.71011044351E+01  0.38000522237E+02 -0.47931522626E+02  0.61578374741E+02  0.00000000000E+00 0.  1.
         14    1    4    4    0    0 -0.11728996792E+03  0.11619167637E+03 -0.12963898430E+03  0.20991357384E+03  0.00000000000E+00 0. -1.
         -5    1    5    5    0  502  0.11253477054E+03 -0.45602557257E+02 -0.28508867330E+03  0.30990532337E+03  0.47000000000E+01 0.  1.
         11    1    6    6    0    0  0.31338578754E+02 -0.26955753614E+01 -0.35085261318E+02  0.47120570949E+02  0.00000000000E+00 0. -1.
        -12    1    6    6    0    0 -0.27621848233E+02 -0.82907367162E+02 -0.20300010898E+03  0.22101050264E+03  0.00000000000E+00 0.  1.
</event>
<event>
12    1  0.8493057E-002  0.2259365E+03  0.7818608E-02  0.1130926E+00
         21   -1    0    0  503  502  0.00000000000E+00  0.00000000000E+00  0.39223457846E+02  0.39223457846E+02  0.00000000000E+00 0. -1.
         21   -1    0    0  501  503 -0.00000000000E+00 -0.00000000000E+00 -0.14778190879E+04  0.14778190879E+04  0.00000000000E+00 0.  1.
          6    2    1    2  501    0  0.13708365079E+03 -0.53605044324E+02 -0.10012890638E+04  0.10248186744E+04  0.16127026440E+03 0.  0.
         24    2    3    3    0    0  0.12044719205E+03 -0.95724561024E+02 -0.75632928649E+03  0.77566368668E+03  0.77132662141E+02 0.  0.
         -6    2    1    2    0  502 -0.13708365079E+03  0.53605044324E+02 -0.43730656629E+03  0.49222387130E+03  0.17141143040E+03 0.  0.
        -24    2    5    5    0    0 -0.84791208584E+02  0.22278627725E+02 -0.11420784590E+03  0.16339151735E+03  0.77249398514E+02 0.  0.
          5    1    3    3  501    0  0.16636458738E+02  0.42119516700E+02 -0.24495977726E+03  0.24915498775E+03  0.47000000000E+01 0. -1.
        -11    1    4    4    0    0  0.12763054988E+03 -0.10100970668E+03 -0.70322034500E+03  0.72181117456E+03  0.00000000000E+00 0.  1.
         12    1    4    4    0    0 -0.71833578319E+01  0.52851456547E+01 -0.53108941497E+02  0.53852512117E+02  0.00000000000E+00 0. -1.
         -5    1    5    5    0  502 -0.52292442203E+02  0.31326416599E+02 -0.32309872039E+03  0.32883235395E+03  0.47000000000E+01 0.  1.
         11    1    6    6    0    0 -0.24149434463E+02  0.26009950572E+02 -0.17074901246E+01  0.35533480496E+02  0.00000000000E+00 0. -1.
        -12    1    6    6    0    0 -0.60641774121E+02 -0.37313228474E+01 -0.11250035578E+03  0.12785803686E+03  0.00000000000E+00 0.  1.
</event>
<event>
12    1  0.8493057E-002  0.1846931E+03  0.7818608E-02  0.1163660E+00
         21   -1    0    0  501  502  0.00000000000E+00  0.00000000000E+00  0.38076816622E+03  0.38076816622E+03  0.00000000000E+00 0.  1.
         21   -1    0    0  502  503 -0.00000000000E+00 -0.00000000000E+00 -0.95002809987E+02  0.95002809987E+02  0.00000000000E+00 0.  1.
         -6    2    1    2    0  503  0.54712692674E+02  0.38707293099E+02  0.20357869607E+03  0.27487420063E+03  0.17210405980E+03 0.  0.
        -24    2    3    3    0    0  0.14223703935E+02 -0.33752266745E+02  0.15652453492E+03  0.17934446650E+03  0.79517157683E+02 0.  0.
          6    2    1    2  501    0 -0.54712692674E+02 -0.38707293099E+02  0.82186660161E+02  0.20089677558E+03  0.17062571333E+03 0.  0.
         24    2    5    5    0    0  0.16764087576E+02 -0.12247664377E+02 -0.62814557335E+01  0.84030443399E+02  0.81182626323E+02 0.  0.
          5    1    5    5  501    0 -0.71476780251E+02 -0.26459628722E+02  0.88468115894E+02  0.11686633218E+03  0.47000000000E+01 0. -1.
        -11    1    6    6    0    0 -0.78704877950E+01 -0.23488500911E+02  0.29906236308E+02  0.38833454949E+02  0.00000000000E+00 0.  1.
         12    1    6    6    0    0  0.24634575371E+02  0.11240836534E+02 -0.36187692041E+02  0.45196988450E+02  0.00000000000E+00 0. -1.
         -5    1    3    3    0  503  0.40488988739E+02  0.72459559844E+02  0.47054161147E+02  0.95529734131E+02  0.47000000000E+01 0.  1.
         11    1    4    4    0    0  0.16182299212E+02  0.84244961108E+01  0.12582622725E+03  0.12714196163E+03  0.00000000000E+00 0. -1.
        -12    1    4    4    0    0 -0.19585952766E+01 -0.42176762856E+02  0.30698307669E+02  0.52202504865E+02  0.00000000000E+00 0.  1.
</event>
<event>
12    1  0.8493057E-002  0.2684478E+03  0.7818608E-02  0.1102994E+00
         21   -1    0    0  501  502  0.00000000000E+00  0.00000000000E+00  0.31047537841E+03  0.31047537841E+03  0.00000000000E+00 0.  1.
         21   -1    0    0  502  503 -0.00000000000E+00 -0.00000000000E+00 -0.69467624253E+03  0.69467624253E+03  0.00000000000E+00 0. -1.
         -6    2    1    2    0  503 -0.12000218767E+03  0.15821480049E+03 -0.60501232413E+03  0.66189434404E+03  0.18064263667E+03 0.  0.
        -24    2    3    3    0    0 -0.93321228681E+02  0.18987912128E+03 -0.49783170651E+03  0.54689748505E+03  0.80607187835E+02 0.  0.
          6    2    1    2  501    0  0.12000218767E+03 -0.15821480049E+03  0.22081146001E+03  0.34325727691E+03  0.17214938031E+03 0.  0.
         24    2    5    5    0    0  0.67499125374E+02 -0.14702706901E+03  0.22594767345E+03  0.28912588514E+03  0.79801850705E+02 0.  0.
          5    1    5    5  501    0  0.52503062294E+02 -0.11187731478E+02 -0.51362134373E+01  0.54131391764E+02  0.47000000000E+01 0. -1.
        -11    1    6    6    0    0  0.59909415760E+02 -0.64713149466E+02  0.16262354444E+03  0.18499553243E+03  0.00000000000E+00 0.  1.
         12    1    6    6    0    0  0.75897096132E+01 -0.82313919544E+02  0.63324129003E+02  0.10413035272E+03  0.00000000000E+00 0. -1.
         -5    1    3    3    0  503 -0.26680958986E+02 -0.31664320789E+02 -0.10718061762E+03  0.11499685898E+03  0.47000000000E+01 0.  1.
         11    1    4    4    0    0 -0.10190651556E+03  0.13586975901E+03 -0.40474637633E+03  0.43893639457E+03  0.00000000000E+00 0. -1.
        -12    1    4    4    0    0  0.85852868788E+01  0.54009362266E+02 -0.93085330184E+02  0.10796109049E+03  0.00000000000E+00 0.  1.
</event>
<event>
12    1  0.8493057E-002  0.2182490E+03  0.7818608E-02  0.1135709E+00
         21   -1    0    0  501  502  0.00000000000E+00  0.00000000000E+00  0.67341713196E+02  0.67341713196E+02  0.00000000000E+00 0.  1.
         21   -1    0    0  502  503 -0.00000000000E+00 -0.00000000000E+00 -0.12063921281E+04  0.12063921281E+04  0.00000000000E+00 0. -1.
         -6    2    1    2    0  503 -0.12391094447E+03 -0.49548671940E+02 -0.98477771745E+03  0.10086722844E+04  0.17269519794E+03 0.  0.
        -24    2    3    3    0    0 -0.10253207586E+03 -0.91200076057E+02 -0.58916322440E+03  0.61026945731E+03  0.80530895225E+02 0.  0.
          6    2    1    2  501    0  0.12391094447E+03  0.49548671940E+02 -0.15427269748E+03  0.26506155697E+03  0.16925888675E+03 0.  0.
         24    2    5    5    0    0  0.92450967537E+02  0.92093696573E+02 -0.14690181652E+03  0.21143106978E+03  0.78067427416E+02 0.  0.
          5    1    5    5  501    0  0.31459976932E+02 -0.42545024633E+02 -0.73708809552E+01  0.53630487185E+02  0.47000000000E+01 0. -1.
        -13    1    6    6    0    0  0.23780590309E+02  0.35436451600E+02 -0.37319999647E+01  0.42839075634E+02  0.00000000000E+00 0.  1.
         14    1    6    6    0    0  0.68670377228E+02  0.56657244973E+02 -0.14316981656E+03  0.16859199415E+03  0.00000000000E+00 0. -1.
         -5    1    3    3    0  503 -0.21378868610E+02  0.41651404117E+02 -0.39561449305E+03  0.39840282705E+03  0.47000000000E+01 0.  1.
         13    1    4    4    0    0 -0.54733691883E+02 -0.70599516724E+02 -0.49199450659E+03  0.50003866181E+03  0.00000000000E+00 0. -1.
        -14    1    4    4    0    0 -0.47798383977E+02 -0.20600559333E+02 -0.97168717806E+02  0.11023079550E+03  0.00000000000E+00 0.  1.
</event>
<event>
12    1  0.8493057E-002  0.1824306E+03  0.7818608E-02  0.1165729E+00
         21   -1    0    0  501  502  0.00000000000E+00  0.00000000000E+00  0.32440111585E+03  0.32440111585E+03  0.00000000000E+00 0.  1.
         21   -1    0    0  502  503 -0.00000000000E+00 -0.00000000000E+00 -0.10256052767E+03  0.10256052767E+03  0.00000000000E+00 0.  1.
         -6    2    1    2    0  503  0.59317417035E+02 -0.53338410535E+01  0.12725393077E+03  0.22242858755E+03  0.17243522795E+03 0.  0.
        -24    2    3    3    0    0  0.50839535381E+02  0.47963848060E+02  0.41765191869E+02  0.12122121321E+03  0.89805691366E+02 0.  0.
          6    2    1    2  501    0 -0.59317417035E+02  0.53338410535E+01  0.94586657402E+02  0.20453305597E+03  0.17128960681E+03 0.  0.
         24    2    5    5    0    0 -0.36330280022E+02  0.26432715421E+02 -0.17665889297E+02  0.87929903316E+02  0.73491540747E+02 0.  0.
          5    1    5    5  501    0 -0.22987137013E+02 -0.21098874368E+02  0.11225254670E+03  0.11660315265E+03  0.47000000000E+01 0. -1.
        -11    1    6    6    0    0  0.97974311884E+00  0.41959527050E+02 -0.21821806184E+02  0.47304894376E+02  0.00000000000E+00 0.  1.
         12    1    6    6    0    0 -0.37310023141E+02 -0.15526811629E+02  0.41559168868E+01  0.40625008939E+02  0.00000000000E+00 0. -1.
         -5    1    3    3    0  503  0.84778816543E+01 -0.53297689114E+02  0.85488738902E+02  0.10120737434E+03  0.47000000000E+01 0.  1.
         11    1    4    4    0    0  0.46728576959E+02  0.68163683870E+01 -0.16281493318E+02  0.49951074135E+02  0.00000000000E+00 0. -1.
        -12    1    4    4    0    0  0.41109584218E+01  0.41147479673E+02  0.58046685187E+02  0.71270139075E+02  0.00000000000E+00 0.  1.
</event>
<event>
12    1  0.8493057E-002  0.1743483E+03  0.7818608E-02  0.1173500E+00
         21   -1    0    0  501  502  0.00000000000E+00  0.00000000000E+00  0.17051756396E+02  0.17051756396E+02  0.00000000000E+00 0. -1.
         21   -1    0    0  502  503 -0.00000000000E+00 -0.00000000000E+00 -0.17781565889E+04  0.17781565889E+04  0.00000000000E+00 0. -1.
         -6    2    1    2    0  503  0.30951174981E+02 -0.10141392806E+02 -0.88363755066E+03  0.90058766060E+03  0.17082737023E+03 0.  0.
        -24    2    3    3    0    0  0.21664931155E+01  0.56008962580E+02 -0.61227731835E+03  0.61976228229E+03  0.77974831837E+02 0.  0.
          6    2    1    2  501    0 -0.30951174981E+02  0.10141392806E+02 -0.87746728182E+03  0.89462068466E+03  0.17127905793E+03 0.  0.
         24    2    5    5    0    0 -0.20120613156E+02  0.60985061903E+02 -0.74823941721E+03  0.75524955872E+03  0.80097775412E+02 0.  0.
          5    1    5    5  501    0 -0.10830561825E+02 -0.50843669097E+02 -0.12922786461E+03  0.13937112595E+03  0.47000000000E+01 0. -1.
        -11    1    6    6    0    0  0.25351969198E+02  0.47677961351E+02 -0.33852609184E+03  0.34280581267E+03  0.00000000000E+00 0.  1.
         12    1    6    6    0    0 -0.45472582354E+02  0.13307100552E+02 -0.40971332537E+03  0.41244374605E+03  0.00000000000E+00 0. -1.
         -5    1    3    3    0  503  0.28784681865E+02 -0.66150355386E+02 -0.27136023231E+03  0.28082537832E+03  0.47000000000E+01 0.  1.
         11    1    4    4    0    0  0.23562347375E+02 -0.87459300933E+01 -0.23791077847E+03  0.23923464218E+03  0.00000000000E+00 0. -1.
        -12    1    4    4    0    0 -0.21395854260E+02  0.64754892673E+02 -0.37436653988E+03  0.38052764011E+03  0.00000000000E+00 0.  1.
</event>
<event>
12    1  0.8493057E-002  0.1888299E+03  0.7818608E-02  0.1159646E+00
         21   -1    0    0  501  502  0.00000000000E+00  0.00000000000E+00  0.25213735681E+03  0.25213735681E+03  0.00000000000E+00 0. -1.
         21   -1    0    0  502  503 -0.00000000000E+00 -0.00000000000E+00 -0.52835003823E+03  0.52835003823E+03  0.00000000000E+00 0. -1.
         -6    2    1    2    0  503  0.57838589402E+02 -0.50750766307E+02 -0.47229598819E+03  0.50864548866E+03  0.17244068535E+03 0.  0.
        -24    2    3    3    0    0  0.67818868861E+02 -0.44992269275E+02 -0.16051795887E+03  0.19661921439E+03  0.79179524369E+02 0.  0.
          6    2    1    2  501    0 -0.57838589402E+02  0.50750766307E+02  0.19608330678E+03  0.27184190638E+03  0.17183834311E+03 0.  0.
         24    2    5    5    0    0  0.13821835688E+02  0.66702041986E+01  0.30503217740E+02  0.86053940229E+02  0.78989237056E+02 0.  0.
          5    1    5    5  501    0 -0.71660425090E+02  0.44080562109E+02  0.16558008904E+03  0.18578796615E+03  0.47000000000E+01 0. -1.
        -11    1    6    6    0    0 -0.30822071576E+02  0.15715672451E+02  0.16968756769E+02  0.38534674815E+02  0.00000000000E+00 0.  1.
         12    1    6    6    0    0  0.44643907264E+02 -0.90454682520E+01  0.13534460971E+02  0.47519265414E+02  0.00000000000E+00 0. -1.
         -5    1    3    3    0  503 -0.99802794585E+01 -0.57584970325E+01 -0.31177802932E+03  0.31202627427E+03  0.47000000000E+01 0.  1.
         11    1    4    4    0    0  0.64595345300E+02 -0.30813861686E+02 -0.16624191318E+03  0.18099289048E+03  0.00000000000E+00 0. -1.
        -12    1    4    4    0    0  0.32235235606E+01 -0.14178407589E+02  0.57239543121E+01  0.15626323908E+02  0.00000000000E+00 0.  1.
</event>
<event>
12    1  0.8493057E-002  0.2039965E+03  0.7818608E-02  0.1146514E+00
         21   -1    0    0  501  502  0.00000000000E+00  0.00000000000E+00  0.74096483928E+02  0.74096483928E+02  0.00000000000E+00 0. -1.
         21   -1    0    0  502  503 -0.00000000000E+00 -0.00000000000E+00 -0.57464838170E+03  0.57464838170E+03  0.00000000000E+00 0.  1.
         -6    2    1    2    0  503 -0.92256608413E+02  0.59166486013E+02 -0.30134152749E+03  0.36361448263E+03  0.17145501138E+03 0.  0.
        -24    2    3    3    0    0 -0.12991187359E+03  0.31681144845E+02 -0.24703250847E+03  0.29188636735E+03  0.79320875995E+02 0.  0.
          6    2    1    2  501    0  0.92256608413E+02 -0.59166486013E+02 -0.19921037029E+03  0.28513038300E+03  0.17205408690E+03 0.  0.
         24    2    5    5    0    0  0.70470221723E+02  0.11580375900E+02 -0.51382323564E+02  0.11973695353E+03  0.81219687326E+02 0.  0.
          5    1    5    5  501    0  0.21786386690E+02 -0.70746861913E+02 -0.14782804672E+03  0.16539342947E+03  0.47000000000E+01 0. -1.
        -13    1    6    6    0    0  0.43539335738E+02 -0.73426210575E+01  0.14180991476E+02  0.46375514658E+02  0.00000000000E+00 0.  1.
         14    1    6    6    0    0  0.26930885985E+02  0.18922996958E+02 -0.65563315041E+02  0.73361438869E+02  0.00000000000E+00 0. -1.
         -5    1    3    3    0  503  0.37655265173E+02  0.27485341169E+02 -0.54309019023E+02  0.71728115280E+02  0.47000000000E+01 0.  1.
         11    1    4    4    0    0 -0.16773148275E+02  0.38422602440E+02 -0.73622902708E+02  0.84722881705E+02  0.00000000000E+00 0. -1.
        -12    1    4    4    0    0 -0.11313872531E+03 -0.67414575950E+01 -0.17340960576E+03  0.20716348564E+03  0.00000000000E+00 0.  1.
</event>
<event>
12    1  0.8493057E-002  0.3266024E+03  0.7818608E-02  0.1073142E+00
         21   -1    0    0  503  502  0.00000000000E+00  0.00000000000E+00  0.64047557123E+03  0.64047557123E+03  0.00000000000E+00 0. -1.
         21   -1    0    0  501  503 -0.00000000000E+00 -0.00000000000E+00 -0.38853022128E+03  0.38853022128E+03  0.00000000000E+00 0.  1.
          6    2    1    2  501    0 -0.15909982597E+03 -0.22707496023E+03 -0.26521221916E+03  0.41735143133E+03  0.16422211744E+03 0.  0.
         24    2    3    3    0    0 -0.53860286046E+02 -0.99442379374E+02 -0.19152988521E+03  0.23619786997E+03  0.79473389383E+02 0.  0.
         -6    2    1    2    0  502  0.15909982597E+03  0.22707496023E+03  0.51715756911E+03  0.61165436118E+03  0.17260739868E+03 0.  0.
        -24    2    5    5    0    0  0.96021205317E+02  0.22825153886E+03  0.37851631619E+03  0.45926084514E+03  0.79542978284E+02 0.  0.
          5    1    3    3  501    0 -0.10523953992E+03 -0.12763258085E+03 -0.73682333950E+02  0.18115356136E+03  0.47000000000E+01 0. -1.
        -13    1    4    4    0    0 -0.70181043344E+02 -0.98777378881E+02 -0.17585826207E+03  0.21356141450E+03  0.00000000000E+00 0.  1.
         14    1    4    4    0    0  0.16320757298E+02 -0.66500049249E+00 -0.15671623140E+02  0.22636455470E+02  0.00000000000E+00 0. -1.
         -5    1    5    5    0  502  0.63078620652E+02 -0.11765786299E+01  0.13864125292E+03  0.15239351605E+03  0.47000000000E+01 0.  1.
         11    1    6    6    0    0  0.10919434004E+03  0.21324813421E+03  0.35667792852E+03  0.42967117117E+03  0.00000000000E+00 0. -1.
        -12    1    6    6    0    0 -0.13173134726E+02  0.15003404653E+02  0.21838387668E+02  0.29589673969E+02  0.00000000000E+00 0.  1.
</event>
<event>
12    1  0.8493057E-002  0.2705439E+03  0.7818608E-02  0.1101070E+00
         21   -1    0    0  501  502  0.00000000000E+00  0.00000000000E+00  0.76336396371E+03  0.76336396371E+03  0.00000000000E+00 0.  1.
         21   -1    0    0  502  503 -0.00000000000E+00 -0.00000000000E+00 -0.14477106132E+03  0.14477106132E+03  0.00000000000E+00 0. -1.
         -6    2    1    2    0  503  0.43920893996E+02 -0.20309193575E+03  0.45023945136E+02  0.27426476848E+03  0.17325884767E+03 0.  0.
        -24    2    3    3    0    0  0.96333995368E+02 -0.13779677326E+03  0.23266385797E+02  0.18762717370E+03  0.79965256329E+02 0.  0.
          6    2    1    2  501    0 -0.43920893996E+02  0.20309193575E+03  0.57356895726E+03  0.63387025655E+03  0.17214753588E+03 0.  0.
         24    2    5    5    0    0  0.65152734619E+01  0.11178283871E+03  0.45692477774E+03  0.47731639104E+03  0.80702124042E+02 0.  0.
          5    1    5    5  501    0 -0.50436167458E+02  0.91309097034E+02  0.11664417952E+03  0.15655386551E+03  0.47000000000E+01 0. -1.
        -11    1    6    6    0    0  0.10926165752E+02  0.93745188090E+02  0.44577591321E+03  0.45565744390E+03  0.00000000000E+00 0.  1.
         12    1    6    6    0    0 -0.44108922898E+01  0.18037650625E+02  0.11148864536E+02  0.21658947142E+02  0.00000000000E+00 0. -1.
         -5    1    3    3    0  503 -0.52413101371E+02 -0.65295162490E+02  0.21757559339E+02  0.86637594775E+02  0.47000000000E+01 0.  1.
         11    1    4    4    0    0  0.37524910181E+02 -0.11795939036E+03  0.10214824698E+02  0.12420498904E+03  0.00000000000E+00 0. -1.
        -12    1    4    4    0    0  0.58809085187E+02 -0.19837382900E+02  0.13051561099E+02  0.63422184667E+02  0.00000000000E+00 0.  1.
</event>
<event>
12    1  0.8493057E-002  0.1820206E+03  0.7818608E-02  0.1165890E+00
         21   -1    0    0  503  502  0.00000000000E+00  0.00000000000E+00  0.46170482927E+03  0.46170482927E+03  0.00000000000E+00 0. -1.
         21   -1    0    0  501  503 -0.00000000000E+00 -0.00000000000E+00 -0.13983561259E+03  0.13983561259E+03  0.00000000000E+00 0. -1.
          6    2    1    2  501    0 -0.51295440438E+02  0.27101987515E+02 -0.48968798609E+02  0.18849255379E+03  0.17252756203E+03 0.  0.
         24    2    3    3    0    0  0.87857487101E+01  0.52670292712E+02 -0.72860350748E+02  0.11880479458E+03  0.77166050762E+02 0.  0.
         -6    2    1    2    0  502  0.51295440438E+02 -0.27101987515E+02  0.37083801529E+03  0.41304788807E+03  0.17240065058E+03 0.  0.
        -24    2    5    5    0    0  0.10142748248E+03 -0.17467359324E+02  0.26748991278E+03  0.29768338750E+03  0.80448138031E+02 0.  0.
          5    1    3    3  501    0 -0.60081189148E+02 -0.25568305197E+02  0.23891552139E+02  0.69687759210E+02  0.47000000000E+01 0. -1.
        -11    1    4    4    0    0  0.35348696359E+02  0.56365644553E+00 -0.27348011969E+02  0.44696328725E+02  0.00000000000E+00 0.  1.
         12    1    4    4    0    0 -0.26562947649E+02  0.52106636266E+02 -0.45512338779E+02  0.74108465858E+02  0.00000000000E+00 0. -1.
         -5    1    5    5    0  502 -0.50132042038E+02 -0.96346281910E+01  0.10334810251E+03  0.11536450057E+03  0.47000000000E+01 0.  1.
         13    1    6    6    0    0  0.98745312327E+02 -0.37325894442E+02  0.24885218265E+03  0.27031697673E+03  0.00000000000E+00 0. -1.
        -14    1    6    6    0    0  0.26821701485E+01  0.19858535118E+02  0.18637730128E+02  0.27366410763E+02  0.00000000000E+00 0.  1.
</event>
<event>
12    1  0.8493057E-002  0.2063422E+03  0.7818608E-02  0.1144809E+00
         21   -1    0    0  501  502  0.00000000000E+00  0.00000000000E+00  0.31767905452E+03  0.31767905452E+03  0.00000000000E+00 0. -1.
         21   -1    0    0  502  503 -0.00000000000E+00 -0.00000000000E+00 -0.13318820284E+03  0.13318820284E+03  0.00000000000E+00 0. -1.
         -6    2    1    2    0  503  0.70003789012E+02 -0.87875832703E+02  0.99749718902E+02  0.22780190077E+03  0.17123377916E+03 0.  0.
        -24    2    3    3    0    0  0.92729033322E+01 -0.72369157653E+02  0.12021790416E+03  0.16169793679E+03  0.79816016978E+02 0.  0.
          6    2    1    2  501    0 -0.70003789012E+02  0.87875832703E+02  0.84741132784E+02  0.22306535659E+03  0.17307339852E+03 0.  0.
         24    2    5    5    0    0 -0.87843798148E+01  0.93932642857E+02  0.74106399561E+01  0.12413813014E+03  0.80342087650E+02 0.  0.
          5    1    5    5  501    0 -0.61219409197E+02 -0.60568101545E+01  0.77330492828E+02  0.98927226448E+02  0.47000000000E+01 0. -1.
        -11    1    6    6    0    0  0.28882488864E+02  0.98244774537E+01  0.95140642812E+01  0.31956782369E+02  0.00000000000E+00 0.  1.
         12    1    6    6    0    0 -0.37666868679E+02  0.84108165403E+02 -0.21034243251E+01  0.92181347774E+02  0.00000000000E+00 0. -1.
         -5    1    3    3    0  503  0.60730885680E+02 -0.15506675050E+02 -0.20468185256E+02  0.66103963983E+02  0.47000000000E+01 0.  1.
         13    1    4    4    0    0 -0.26567268073E+02 -0.54321055875E+02  0.41495565259E+02  0.73338112741E+02  0.00000000000E+00 0. -1.
        -14    1    4    4    0    0  0.35840171405E+02 -0.18048101777E+02  0.78722338899E+02  0.88359824048E+02  0.00000000000E+00 0.  1.
</event>
<event>
12    1  0.8493057E-002  0.1978907E+03  0.7818608E-02  0.1151586E+00
         21   -1    0    0  501  502  0.00000000000E+00  0.00000000000E+00  0.38595710277E+03  0.38595710277E+03  0.00000000000E+00 0. -1.
         21   -1    0    0  502  503 -0.00000000000E+00 -0.00000000000E+00 -0.18907772861E+03  0.18907772861E+03  0.00000000000E+00 0. -1.
         -6    2    1    2    0  503 -0.48982787396E+02  0.83590554119E+02 -0.97390334370E+02  0.22055748138E+03  0.17255153191E+03 0.  0.
        -24    2    3    3    0    0 -0.56021146165E+02  0.10634604430E+03 -0.12014173785E+03  0.18728486219E+03  0.78700269859E+02 0.  0.
          6    2    1    2  501    0  0.48982787396E+02 -0.83590554119E+02  0.29426970853E+03  0.35447735000E+03  0.17225805091E+03 0.  0.
         24    2    5    5    0    0  0.50103414819E+02 -0.99724573671E+02  0.12890365045E+03  0.18825585452E+03  0.79804591925E+02 0.  0.
          5    1    5    5  501    0 -0.11206274231E+01  0.16134019552E+02  0.16536605809E+03  0.16622149548E+03  0.47000000000E+01 0. -1.
        -11    1    6    6    0    0  0.43362422245E+01  0.86933309275E+01 -0.42041693539E+01  0.10585463580E+02  0.00000000000E+00 0.  1.
         12    1    6    6    0    0  0.45767172595E+02 -0.10841790460E+03  0.13310781980E+03  0.17767039094E+03  0.00000000000E+00 0. -1.
         -5    1    3    3    0  503  0.70383587692E+01 -0.22755490177E+02  0.22751403484E+02  0.33272619191E+02  0.47000000000E+01 0.  1.
         11    1    4    4    0    0 -0.14169806849E+02 -0.79995551817E+01 -0.35324428525E+02  0.38892050086E+02  0.00000000000E+00 0. -1.
        -12    1    4    4    0    0 -0.41851339316E+02  0.11434559948E+03 -0.84817309329E+02  0.14839281210E+03  0.00000000000E+00 0.  1.
</event>
<event>
12    1  0.8493057E-002  0.1995614E+03  0.7818608E-02  0.1151608E+00
         21   -1    0    0  503  502  0.00000000000E+00  0.00000000000E+00  0.54652290239E+03  0.54652290239E+03  0.00000000000E+00 0.  1.
         21   -1    0    0  501  503 -0.00000000000E+00 -0.00000000000E+00 -0.78522364915E+02  0.78522364915E+02  0.00000000000E+00 0. -1.
          6    2    1    2  501    0 -0.65070577874E+02 -0.61755238715E+02  0.12949251557E+03  0.23209177289E+03  0.17044174912E+03 0.  0.
         24    2    3    3    0    0 -0.21521308757E+02 -0.23052570400E+02  0.14759013942E+03  0.17090313534E+03  0.80190053514E+02 0.  0.
         -6    2    1    2    0  502  0.65070577874E+02  0.61755238715E+02  0.33850802191E+03  0.39295349441E+03  0.17826070308E+03 0.  0.
        -24    2    5    5    0    0  0.38531658172E+02  0.89778403002E+02  0.13304435955E+03  0.18384343118E+03  0.80949090504E+02 0.  0.
          5    1    3    3  501    0 -0.43549269117E+02 -0.38702668316E+02 -0.18097623859E+02  0.61188637546E+02  0.47000000000E+01 0. -1.
        -13    1    4    4    0    0  0.12764253961E+02 -0.39829812741E+02  0.44968431617E+02  0.61412539471E+02  0.00000000000E+00 0.  1.
         14    1    4    4    0    0 -0.34285562718E+02  0.16777242341E+02  0.10262170781E+03  0.10949059587E+03  0.00000000000E+00 0. -1.
         -5    1    5    5    0  502  0.26538919702E+02 -0.28023164286E+02  0.20546366236E+03  0.20911006323E+03  0.47000000000E+01 0.  1.
         11    1    6    6    0    0  0.10287851645E+02  0.96373325519E+02  0.11135763356E+03  0.14762852135E+03  0.00000000000E+00 0. -1.
        -12    1    6    6    0    0  0.28243806526E+02 -0.65949225172E+01  0.21686725987E+02  0.36214909832E+02  0.00000000000E+00 0.  1.
</event>
<event>
12    1  0.8493057E-002  0.2371179E+03  0.7818608E-02  0.1121743E+00
         21   -1    0    0  501  502  0.00000000000E+00  0.00000000000E+00  0.27353759638E+03  0.27353759638E+03  0.00000000000E+00 0. -1.
         21   -1    0    0  502  503 -0.00000000000E+00 -0.00000000000E+00 -0.42047527563E+03  0.42047527563E+03  0.00000000000E+00 0. -1.
         -6    2    1    2    0  503  0.13644200813E+03  0.89239176799E+02 -0.32161227463E+03  0.39957397750E+03  0.17217681622E+03 0.  0.
        -24    2    3    3    0    0  0.11337453585E+03  0.13039954523E+03 -0.26334053801E+03  0.32444762064E+03  0.77847240157E+02 0.  0.
          6    2    1    2  501    0 -0.13644200813E+03 -0.89239176799E+02  0.17467459537E+03  0.29443889451E+03  0.17205521229E+03 0.  0.
         24    2    5    5    0    0 -0.11432408658E+03 -0.12285409749E+02  0.16099703110E+03  0.21307397283E+03  0.79117291456E+02 0.  0.
          5    1    5    5  501    0 -0.22117921549E+02 -0.76953767050E+02  0.13677564266E+02  0.81364921687E+02  0.47000000000E+01 0. -1.
        -13    1    6    6    0    0 -0.35348424718E+02  0.95326125105E+01  0.51098914455E+01  0.36966103689E+02  0.00000000000E+00 0.  1.
         14    1    6    6    0    0 -0.78975661860E+02 -0.21818022260E+02  0.15588713966E+03  0.17610786914E+03  0.00000000000E+00 0. -1.
         -5    1    3    3    0  503  0.23067472277E+02 -0.41160368435E+02 -0.58271736612E+02  0.75126356858E+02  0.47000000000E+01 0.  1.
         11    1    4    4    0    0  0.11690941123E+03  0.11424418567E+03 -0.26068965395E+03  0.30769894389E+03  0.00000000000E+00 0. -1.
        -12    1    4    4    0    0 -0.35348753768E+01  0.16155359560E+02 -0.26508840598E+01  0.16748676746E+02  0.00000000000E+00 0.  1.
</event>
<event>
12    1  0.8493057E-002  0.2156575E+03  0.7818608E-02  0.1137315E+00
         21   -1    0    0  503  502  0.00000000000E+00  0.00000000000E+00  0.15070243983E+03  0.15070243983E+03  0.00000000000E+00 0. -1.
         21   -1    0    0  501  503 -0.00000000000E+00 -0.00000000000E+00 -0.39609440037E+03  0.39609440037E+03  0.00000000000E+00 0.  1.
          6    2    1    2  501    0  0.11148105548E+02  0.12913187783E+03 -0.25184177470E+03  0.33104293685E+03  0.17136459503E+03 0.  0.
         24    2    3    3    0    0 -0.25260710377E+02  0.25510479099E+02 -0.48696853247E+02  0.10006037201E+03  0.79698221418E+02 0.  0.
         -6    2    1    2    0  502 -0.11148105548E+02 -0.12913187783E+03  0.64498141624E+01  0.21575390335E+03  0.17236248020E+03 0.  0.
        -24    2    5    5    0    0  0.45843735031E+02 -0.99040912012E+02 -0.34071828585E+02  0.13948051581E+03  0.79894771380E+02 0.  0.
          5    1    3    3  501    0  0.36408815925E+02  0.10362139873E+03 -0.20314492145E+03  0.23098256485E+03  0.47000000000E+01 0. -1.
        -11    1    4    4    0    0 -0.14011021469E+02  0.38720353275E+02 -0.64544813611E+02  0.76561135339E+02  0.00000000000E+00 0.  1.
         12    1    4    4    0    0 -0.11249688908E+02 -0.13209874176E+02  0.15847960363E+02  0.23499236667E+02  0.00000000000E+00 0. -1.
         -5    1    5    5    0  502 -0.56991840579E+02 -0.30090965813E+02  0.40521642747E+02  0.76273387542E+02  0.47000000000E+01 0.  1.
         11    1    6    6    0    0 -0.85526985702E+01 -0.61133028873E+02  0.59842901020E+01  0.62017800671E+02  0.00000000000E+00 0. -1.
        -12    1    6    6    0    0  0.54396433601E+02 -0.37907883139E+02 -0.40056118687E+02  0.77462715140E+02  0.00000000000E+00 0.  1.
</event>
<event>
12    1  0.8493057E-002  0.2057875E+03  0.7818608E-02  0.1146292E+00
         21   -1    0    0  501  502  0.00000000000E+00  0.00000000000E+00  0.24919919365E+03  0.24919919365E+03  0.00000000000E+00 0.  1.
         21   -1    0    0  502  503 -0.00000000000E+00 -0.00000000000E+00 -0.41253884753E+03  0.41253884753E+03  0.00000000000E+00 0.  1.
         -6    2    1    2    0  503 -0.67762819364E+02  0.87238684859E+02 -0.33763456242E+03  0.39205819694E+03  0.16586182269E+03 0.  0.
        -24    2    3    3    0    0 -0.10687636885E+03  0.89894345067E+02 -0.26283915572E+03  0.30748062812E+03  0.77177479867E+02 0.  0.
          6    2    1    2  501    0  0.67762819364E+02 -0.87238684859E+02  0.17429490853E+03  0.26967984423E+03  0.17362636730E+03 0.  0.
         24    2    5    5    0    0 -0.22100021766E+02 -0.79280843383E+02  0.10976222607E+03  0.15866086134E+03  0.79697299573E+02 0.  0.
          5    1    5    5  501    0  0.89862841130E+02 -0.79578414753E+01  0.64532682465E+02  0.11101898290E+03  0.47000000000E+01 0. -1.
        -11    1    6    6    0    0 -0.11328186958E+02 -0.63646558467E+02  0.12057483798E+03  0.13681192850E+03  0.00000000000E+00 0.  1.
         12    1    6    6    0    0 -0.10771834808E+02 -0.15634284917E+02 -0.10812611912E+02  0.21848932842E+02  0.00000000000E+00 0. -1.
         -5    1    3    3    0  503  0.39113549482E+02 -0.26556602084E+01 -0.74795406700E+02  0.84577568821E+02  0.47000000000E+01 0.  1.
         13    1    4    4    0    0 -0.92849538119E+02  0.92383508363E+02 -0.17550712384E+03  0.21899429186E+03  0.00000000000E+00 0. -1.
        -14    1    4    4    0    0 -0.14026830727E+02 -0.24891632959E+01 -0.87332031872E+02  0.88486336262E+02  0.00000000000E+00 0.  1.
</event>
<event>
12    1  0.8493057E-002  0.1990550E+03  0.7818608E-02  0.1150824E+00
         21   -1    0    0  503  502  0.00000000000E+00  0.00000000000E+00  0.59652989699E+03  0.59652989699E+03  0.00000000000E+00 0. -1.
         21   -1    0    0  501  503 -0.00000000000E+00 -0.00000000000E+00 -0.72176746811E+02  0.72176746811E+02  0.00000000000E+00 0.  1.
          6    2    1    2  501    0  0.13948340865E+02 -0.98387347826E+02  0.36098403007E+03  0.41222853198E+03  0.17247685697E+03 0.  0.
         24    2    3    3    0    0  0.18699989638E+02 -0.11848851597E+03  0.36267041425E+03  0.39097837860E+03  0.83336937403E+02 0.  0.
         -6    2    1    2    0  502 -0.13948340865E+02  0.98387347826E+02  0.16336912011E+03  0.25647811182E+03  0.17092959373E+03 0.  0.
        -24    2    5    5    0    0  0.17421296296E+02  0.15051704055E+02  0.14254461067E+03  0.16491046551E+03  0.79664548211E+02 0.  0.
          5    1    3    3  501    0 -0.47516487737E+01  0.20101168144E+02 -0.16863841818E+01  0.21250153374E+02  0.47000000000E+01 0. -1.
        -13    1    4    4    0    0  0.38887460493E+00 -0.26245152550E+02  0.13799657404E+02  0.29654507250E+02  0.00000000000E+00 0.  1.
         14    1    4    4    0    0  0.18311115034E+02 -0.92243363421E+02  0.34887075684E+03  0.36132387135E+03  0.00000000000E+00 0. -1.
         -5    1    5    5    0  502 -0.31369637161E+02  0.83335643772E+02  0.20824509437E+02  0.91567646315E+02  0.47000000000E+01 0.  1.
         13    1    6    6    0    0  0.13043473797E+02  0.28926277759E+01 -0.68113403156E+01  0.14996461618E+02  0.00000000000E+00 0. -1.
        -14    1    6    6    0    0  0.43778224984E+01  0.12159076279E+02  0.14935595099E+03  0.14991400389E+03  0.00000000000E+00 0.  1.
</event>
<event>
12    1  0.8493057E-002  0.2063781E+03  0.7818608E-02  0.1146023E+00
         21   -1    0    0  503  502  0.00000000000E+00  0.00000000000E+00  0.18902108933E+04  0.18902108933E+04  0.00000000000E+00 0. -1.
         21   -1    0    0  501  503 -0.00000000000E+00 -0.00000000000E+00 -0.24991089047E+02  0.24991089047E+02  0.00000000000E+00 0. -1.
          6    2    1    2  501    0  0.87106223716E+02  0.52425096905E+02  0.60116160441E+03  0.63559986789E+03  0.17959964491E+03 0.  0.
         24    2    3    3    0    0  0.86004966085E+01  0.28147062631E+01  0.11389271198E+03  0.13953797298E+03  0.80108707075E+02 0.  0.
         -6    2    1    2    0  502 -0.87106223716E+02 -0.52425096905E+02  0.12640581998E+04  0.12796021144E+04  0.17088754704E+03 0.  0.
        -24    2    5    5    0    0 -0.94799239647E+02 -0.64196161858E+02  0.12542824264E+04  0.12618427167E+04  0.76906392848E+02 0.  0.
          5    1    3    3  501    0  0.78505727107E+02  0.49610390642E+02  0.48726889243E+03  0.49606189490E+03  0.47000000000E+01 0. -1.
        -11    1    4    4    0    0 -0.21074585441E+02 -0.29743352656E+02  0.47913107134E+02  0.60203579744E+02  0.00000000000E+00 0.  1.
         12    1    4    4    0    0  0.29675082050E+02  0.32558058919E+02  0.65979604844E+02  0.79334393239E+02  0.00000000000E+00 0. -1.
         -5    1    5    5    0  502  0.76930159312E+01  0.11771064953E+02  0.97757733767E+01  0.17759397776E+02  0.47000000000E+01 0.  1.
         13    1    6    6    0    0  0.56322262662E+00  0.82535146025E+00  0.37687014773E+03  0.37687147236E+03  0.00000000000E+00 0. -1.
        -14    1    6    6    0    0 -0.95362462274E+02 -0.65021513318E+02  0.87741227871E+03  0.88497124430E+03  0.00000000000E+00 0.  1.
</event>
<event>
12    1  0.8493057E-002  0.2511065E+03  0.7818608E-02  0.1113143E+00
         21   -1    0    0  503  502  0.00000000000E+00  0.00000000000E+00  0.11069619676E+03  0.11069619676E+03  0.00000000000E+00 0. -1.
         21   -1    0    0  501  503 -0.00000000000E+00 -0.00000000000E+00 -0.99676923899E+03  0.99676923899E+03  0.00000000000E+00 0.  1.
          6    2    1    2  501    0 -0.15284637917E+03  0.99235549383E+02 -0.80705724184E+03  0.84422037161E+03  0.16780028110E+03 0.  0.
         24    2    3    3    0    0 -0.16664262126E+02  0.49682016793E+02 -0.42444196397E+03  0.43505333670E+03  0.79839993537E+02 0.  0.
         -6    2    1    2    0  502  0.15284637917E+03 -0.99235549383E+02 -0.79015800394E+02  0.26324506415E+03  0.17275635212E+03 0.  0.
        -24    2    5    5    0    0  0.32547066249E+02 -0.10407885217E+03 -0.41613705608E+02  0.13708489228E+03  0.71894702216E+02 0.  0.
          5    1    3    3  501    0 -0.13618211705E+03  0.49553532590E+02 -0.38261527787E+03  0.40916703491E+03  0.47000000000E+01 0. -1.
        -11    1    4    4    0    0 -0.46284559379E+02  0.46499661731E+02 -0.30103037075E+03  0.30809700273E+03  0.00000000000E+00 0.  1.
         12    1    4    4    0    0  0.29620297253E+02  0.31823550620E+01 -0.12341159321E+03  0.12695633396E+03  0.00000000000E+00 0. -1.
         -5    1    5    5    0  502  0.12029931292E+03  0.48433027851E+01 -0.37402094786E+02  0.12616017187E+03  0.47000000000E+01 0.  1.
         13    1    6    6    0    0  0.38622834114E+02 -0.99782893750E+02 -0.56090503186E+02  0.12080767255E+03  0.00000000000E+00 0. -1.
        -14    1    6    6    0    0 -0.60757678643E+01 -0.42959584181E+01  0.14476797578E+02  0.16277219726E+02  0.00000000000E+00 0.  1.
</event>
<event>
12    1  0.8493057E-002  0.2276868E+03  0.7818608E-02  0.1129220E+00
         21   -1    0    0  501  502  0.00000000000E+00  0.00000000000E+00  0.65086672002E+03  0.65086672002E+03  0.00000000000E+00 0. -1.
         21   -1    0    0  502  503 -0.00000000000E+00 -0.00000000000E+00 -0.84475446490E+02  0.84475446490E+02  0.00000000000E+00 0.  1.
         -6    2    1    2    0  503  0.34325531974E+02  0.14596014953E+03  0.18315039744E+03  0.29220767977E+03  0.17134366821E+03 0.  0.
        -24    2    3    3    0    0 -0.33201367795E+02  0.59674051931E+02  0.13888196274E+03  0.17394121308E+03  0.79397876150E+02 0.  0.
          6    2    1    2  501    0 -0.34325531974E+02 -0.14596014953E+03  0.38324087609E+03  0.44313448675E+03  0.16435326842E+03 0.  0.
         24    2    5    5    0    0 -0.55716288458E+02 -0.64406825439E+02  0.30919164124E+03  0.33082291871E+03  0.81189830435E+02 0.  0.
          5    1    5    5  501    0  0.21390756484E+02 -0.81553324092E+02  0.74049234854E+02  0.11231156804E+03  0.47000000000E+01 0. -1.
        -13    1    6    6    0    0 -0.47089574032E+02 -0.35194788104E+02  0.78207899720E+02  0.97839545536E+02  0.00000000000E+00 0.  1.
         14    1    6    6    0    0 -0.86267144262E+01 -0.29212037334E+02  0.23098374152E+03  0.23298337317E+03  0.00000000000E+00 0. -1.
         -5    1    3    3    0  503  0.67526899768E+02  0.86286097600E+02  0.44268434706E+02  0.11826646669E+03  0.47000000000E+01 0.  1.
         11    1    4    4    0    0 -0.21204134516E+02  0.65491910847E+02  0.14404036182E+03  0.15964470407E+03  0.00000000000E+00 0. -1.
        -12    1    4    4    0    0 -0.11997233278E+02 -0.58178589164E+01 -0.51583990792E+01  0.14296509006E+02  0.00000000000E+00 0.  1.
</event>
<event>
12    1  0.8493057E-002  0.2273488E+03  0.7818608E-02  0.1128750E+00
         21   -1    0    0  503  502  0.00000000000E+00  0.00000000000E+00  0.33888001891E+03  0.33888001891E+03  0.00000000000E+00 0. -1.
         21   -1    0    0  501  503 -0.00000000000E+00 -0.00000000000E+00 -0.16784114446E+03  0.16784114446E+03  0.00000000000E+00 0.  1.
          6    2    1    2  501    0 -0.13704487824E+03  0.49933099604E+02  0.70829139331E+01  0.22745911630E+03  0.17439285775E+03 0.  0.
         24    2    3    3    0    0 -0.22639517804E+02 -0.23852870954E+02 -0.77009553931E+01  0.90442297121E+02  0.83898731667E+02 0.  0.
         -6    2    1    2    0  502  0.13704487824E+03 -0.49933099604E+02  0.16395596052E+03  0.27926204706E+03  0.17271688063E+03 0.  0.
        -24    2    5    5    0    0  0.14808359744E+03  0.21995738404E+01  0.14565738399E+03  0.22272359232E+03  0.80350078467E+02 0.  0.
          5    1    3    3  501    0 -0.11440536043E+03  0.73785970558E+02  0.14783869326E+02  0.13701681918E+03  0.47000000000E+01 0. -1.
        -13    1    4    4    0    0 -0.22627602860E+02  0.21536939878E+01 -0.41786499946E+02  0.47568459999E+02  0.00000000000E+00 0.  1.
         14    1    4    4    0    0 -0.11914943596E-01 -0.26006564942E+02  0.34085544553E+02  0.42873837121E+02  0.00000000000E+00 0. -1.
         -5    1    5    5    0  502 -0.11038719200E+02 -0.52132673444E+02  0.18298576528E+02  0.56538454745E+02  0.47000000000E+01 0.  1.
         11    1    6    6    0    0  0.71724513962E+02 -0.13985292342E+02  0.12011108952E+03  0.14059398326E+03  0.00000000000E+00 0. -1.
        -12    1    6    6    0    0  0.76359083473E+02  0.16184866182E+02  0.25546294475E+02  0.82129609055E+02  0.00000000000E+00 0.  1.
</event>
<event>
12    1  0.8493057E-002  0.2094934E+03  0.7818608E-02  0.1142682E+00
         21   -1    0    0  501  502  0.00000000000E+00  0.00000000000E+00  0.14090177276E+04  0.14090177276E+04  0.00000000000E+00 0. -1.
         21   -1    0    0  502  503 -0.00000000000E+00 -0.00000000000E+00 -0.41438504348E+02  0.41438504348E+02  0.00000000000E+00 0.  1.
         -6    2    1    2    0  503  0.43282183271E+02  0.10662005451E+03  0.31757547617E+03  0.38044928427E+03  0.17506082209E+03 0.  0.
        -24    2    3    3    0    0  0.59764021742E+02  0.13653950023E+03  0.29033006490E+03  0.33650356017E+03  0.82026373843E+02 0.  0.
          6    2    1    2  501    0 -0.43282183271E+02 -0.10662005451E+03  0.10500037471E+04  0.10700069476E+04  0.17078002157E+03 0.  0.
         24    2    5    5    0    0 -0.87966620412E+02 -0.47586339454E+02  0.75646145158E+03  0.76723500762E+03  0.80081478360E+02 0.  0.
          5    1    5    5  501    0  0.44684437141E+02 -0.59033715054E+02  0.29354229548E+03  0.30277194003E+03  0.47000000000E+01 0. -1.
        -11    1    6    6    0    0  0.53119197712E+01  0.12404579425E+02  0.39376704467E+02  0.41624691435E+02  0.00000000000E+00 0.  1.
         12    1    6    6    0    0 -0.93278540183E+02 -0.59990918880E+02  0.71708474711E+03  0.72561031618E+03  0.00000000000E+00 0. -1.
         -5    1    3    3    0  503 -0.16481838471E+02 -0.29919445723E+02  0.27245411271E+02  0.43945724104E+02  0.47000000000E+01 0.  1.
         13    1    4    4    0    0  0.12694203278E+01  0.98864016919E+02  0.19312746047E+03  0.21696525357E+03  0.00000000000E+00 0. -1.
        -14    1    4    4    0    0  0.58494601414E+02  0.37675483312E+02  0.97202604431E+02  0.11953830660E+03  0.00000000000E+00 0.  1.
</event>
<event>
12    1  0.8493057E-002  0.2118234E+03  0.7818608E-02  0.1141380E+00
         21   -1    0    0  501  502  0.00000000000E+00  0.00000000000E+00  0.91547130849E+02  0.91547130849E+02  0.00000000000E+00 0. -1.
         21   -1    0    0  502  503 -0.00000000000E+00 -0.00000000000E+00 -0.82055684010E+03  0.82055684010E+03  0.00000000000E+00 0.  1.
         -6    2    1    2    0  503  0.94985799688E+02  0.62939588466E+02 -0.66332387732E+03  0.69632443066E+03  0.17856498134E+03 0.  0.
        -24    2    3    3    0    0  0.40860280860E+01  0.86018017662E+02 -0.35537817630E+03  0.37438029396E+03  0.80319121820E+02 0.  0.
          6    2    1    2  501    0 -0.94985799688E+02 -0.62939588466E+02 -0.65685831926E+02  0.21577954029E+03  0.17106281757E+03 0.  0.
         24    2    5    5    0    0 -0.48555032979E+02  0.12838782583E+02 -0.81487291670E+02  0.12539174385E+03  0.80996821886E+02 0.  0.
          5    1    5    5  501    0 -0.46430766709E+02 -0.75778371049E+02  0.15801459744E+02  0.90387796444E+02  0.47000000000E+01 0. -1.
        -13    1    6    6    0    0  0.37460347786E+01 -0.13630496963E+02 -0.62043479298E+02  0.63633454624E+02  0.00000000000E+00 0.  1.
         14    1    6    6    0    0 -0.52301067758E+02  0.26469279546E+02 -0.19443812372E+02  0.61758289224E+02  0.00000000000E+00 0. -1.
         -5    1    3    3    0  503  0.90899771602E+02 -0.23078429196E+02 -0.30794570102E+03  0.32194413669E+03  0.47000000000E+01 0.  1.
         11    1    4    4    0    0 -0.45859150490E+01 -0.15303353910E+02 -0.43416645421E+02  0.46262602146E+02  0.00000000000E+00 0. -1.
        -12    1    4    4    0    0  0.86719431350E+01  0.10132137157E+03 -0.31196153088E+03  0.32811769182E+03  0.00000000000E+00 0.  1.
</event>
<event>
12    1  0.8493057E-002  0.1917528E+03  0.7818608E-02  0.1156927E+00
         21   -1    0    0  503  502  0.00000000000E+00  0.00000000000E+00  0.59523394464E+03  0.59523394464E+03  0.00000000000E+00 0. -1.
         21   -1    0    0  501  503 -0.00000000000E+00 -0.00000000000E+00 -0.10468460133E+03  0.10468460133E+03  0.00000000000E+00 0. -1.
          6    2    1    2  501    0  0.80106640431E+02  0.27587005636E+02  0.21013148071E+02  0.19273675100E+03  0.17183650972E+03 0.  0.
         24    2    3    3    0    0 -0.18190186584E+02 -0.11988713128E+02 -0.43946303865E+01  0.83667282667E+02  0.80661572525E+02 0.  0.
         -6    2    1    2    0  502 -0.80106640431E+02 -0.27587005636E+02  0.46953619524E+03  0.50718179497E+03  0.17202039933E+03 0.  0.
        -24    2    5    5    0    0 -0.90422345349E+01  0.39750871344E+02  0.27980828014E+03  0.29363247694E+03  0.79154684643E+02 0.  0.
          5    1    3    3  501    0  0.98296827015E+02  0.39575718765E+02  0.25407778457E+02  0.10906946834E+03  0.47000000000E+01 0. -1.
        -13    1    4    4    0    0 -0.24932914188E+01  0.30276380661E+02 -0.19522716511E+02  0.36111108928E+02  0.00000000000E+00 0.  1.
         14    1    4    4    0    0 -0.15696895166E+02 -0.42265093789E+02  0.15128086125E+02  0.47556173739E+02  0.00000000000E+00 0. -1.
         -5    1    5    5    0  502 -0.71064405896E+02 -0.67337876980E+02  0.18972791510E+03  0.21354931803E+03  0.47000000000E+01 0.  1.
         11    1    6    6    0    0 -0.40678717717E+02  0.38337817095E+01  0.14120498462E+03  0.14699763141E+03  0.00000000000E+00 0. -1.
        -12    1    6    6    0    0  0.31636483182E+02  0.35917089635E+02  0.13860329552E+03  0.14663484553E+03  0.00000000000E+00 0.  1.
</event>
<event>
12    1  0.8493057E-002  0.1787912E+03  0.7818608E-02  0.1169168E+00
         21   -1    0    0  503  502  0.00000000000E+00  0.00000000000E+00  0.87434668528E+02  0.87434668528E+02  0.00000000000E+00 0.  1.
         21   -1    0    0  501  503 -0.00000000000E+00 -0.00000000000E+00 -0.75003184713E+03  0.75003184713E+03  0.00000000000E+00 0.  1.
          6    2    1    2  501    0 -0.46756156287E+02 -0.96998233104E+01 -0.63204769815E+03  0.65684897889E+03  0.17229644106E+03 0.  0.
         24    2    3    3    0    0 -0.32411317934E+02 -0.50701491250E+02 -0.21263650565E+03  0.23516811668E+03  0.80427761496E+02 0.  0.
         -6    2    1    2    0  502  0.46756156287E+02  0.96998233104E+01 -0.30549480452E+02  0.18061753677E+03  0.17149110505E+03 0.  0.
        -24    2    5    5    0    0  0.25695497344E+02  0.30883878807E+02 -0.81704993327E+02  0.12119286126E+03  0.79987068530E+02 0.  0.
          5    1    3    3  501    0 -0.14344838352E+02  0.41001667940E+02 -0.41941119250E+03  0.42168086221E+03  0.47000000000E+01 0. -1.
        -13    1    4    4    0    0 -0.23546459884E+02  0.62398317406E+01 -0.14167834853E+03  0.14375717623E+03  0.00000000000E+00 0.  1.
         14    1    4    4    0    0 -0.88648580504E+01 -0.56941322991E+02 -0.70958157120E+02  0.91410940451E+02  0.00000000000E+00 0. -1.
         -5    1    5    5    0  502  0.21060658943E+02 -0.21184055497E+02  0.51155512875E+02  0.59424675513E+02  0.47000000000E+01 0.  1.
         13    1    6    6    0    0  0.36455674619E+02  0.16022185196E+02 -0.91932820574E+02  0.10018667641E+03  0.00000000000E+00 0. -1.
        -14    1    6    6    0    0 -0.10760177275E+02  0.14861693611E+02  0.10227827247E+02  0.21006184855E+02  0.00000000000E+00 0.  1.
</event>
<event>
12    1  0.8493057E-002  0.2536192E+03  0.7818608E-02  0.1111258E+00
         21   -1    0    0  503  502  0.00000000000E+00  0.00000000000E+00  0.33538665063E+03  0.33538665063E+03  0.00000000000E+00 0.  1.
         21   -1    0    0  501  503 -0.00000000000E+00 -0.00000000000E+00 -0.19225346525E+03  0.19225346525E+03  0.00000000000E+00 0. -1.
          6    2    1    2  501    0  0.10862890975E+03  0.15362281011E+03  0.95317419039E+02  0.27093934201E+03  0.17006618962E+03 0.  0.
         24    2    3    3    0    0  0.42097712149E+02  0.10230570211E+03  0.12174457881E+03  0.18273315967E+03  0.79567525539E+02 0.  0.
         -6    2    1    2    0  502 -0.10862890975E+03 -0.15362281011E+03  0.47815766334E+02  0.25670077388E+03  0.16795455331E+03 0.  0.
        -24    2    5    5    0    0 -0.56181435026E+02 -0.36983524201E+02 -0.29273979411E+02  0.10730070854E+03  0.78309268154E+02 0.  0.
          5    1    3    3  501    0  0.66531197602E+02  0.51317108007E+02 -0.26427159775E+02  0.88206182337E+02  0.47000000000E+01 0. -1.
        -11    1    4    4    0    0  0.30446960427E+02  0.84559693232E+02  0.40172233217E+02  0.98443727278E+02  0.00000000000E+00 0.  1.
         12    1    4    4    0    0  0.11650751723E+02  0.17746008875E+02  0.81572345597E+02  0.84289432392E+02  0.00000000000E+00 0. -1.
         -5    1    5    5    0  502 -0.52447474726E+02 -0.11663928591E+03  0.77089745745E+02  0.14940006534E+03  0.47000000000E+01 0.  1.
         13    1    6    6    0    0 -0.51867422813E+02 -0.50008221602E+02 -0.46141489653E+02  0.85557517755E+02  0.00000000000E+00 0. -1.
        -14    1    6    6    0    0 -0.43140122129E+01  0.13024697401E+02  0.16867510242E+02  0.21743190785E+02  0.00000000000E+00 0.  1.
</event>
<event>
12    1  0.8493057E-002  0.1903326E+03  0.7818608E-02  0.1158278E+00
         21   -1    0    0  503  502  0.00000000000E+00  0.00000000000E+00  0.26673479050E+03  0.26673479050E+03  0.00000000000E+00 0.  1.
         21   -1    0    0  501  503 -0.00000000000E+00 -0.00000000000E+00 -0.25348775139E+03  0.25348775139E+03  0.00000000000E+00 0.  1.
          6    2    1    2  501    0 -0.12035475208E+02  0.81784508033E+02 -0.17087088712E+03  0.25577991285E+03  0.17144370895E+03 0.  0.
         24    2    3    3    0    0  0.44159002712E+02  0.35376904115E+02 -0.15244004743E+03  0.18045879429E+03  0.78267908567E+02 0.  0.
         -6    2    1    2    0  502  0.12035475208E+02 -0.81784508033E+02  0.18411792622E+03  0.26444262903E+03  0.17087110603E+03 0.  0.
        -24    2    5    5    0    0  0.62579695662E+02 -0.77085263322E+02  0.16874080862E+03  0.21119465379E+03  0.79191951370E+02 0.  0.
          5    1    3    3  501    0 -0.56194477920E+02  0.46407603918E+02 -0.18430839686E+02  0.75321118563E+02  0.47000000000E+01 0. -1.
        -11    1    4    4    0    0 -0.10945234759E+02 -0.77570516703E+01 -0.74561842637E+02  0.75759081251E+02  0.00000000000E+00 0.  1.
         12    1    4    4    0    0  0.55104237471E+02  0.43133955786E+02 -0.77878204793E+02  0.10469971304E+03  0.00000000000E+00 0. -1.
         -5    1    5    5    0  502 -0.50544220454E+02 -0.46992447111E+01  0.15377117597E+02  0.53247975245E+02  0.47000000000E+01 0.  1.
         11    1    6    6    0    0  0.24550074534E+02  0.98883920722E+01  0.67048535313E+02  0.72083233453E+02  0.00000000000E+00 0. -1.
        -12    1    6    6    0    0  0.38029621128E+02 -0.86973655394E+02  0.10169227331E+03  0.13911142033E+03  0.00000000000E+00 0.  1.
</event>
<event>
12    1  0.8493057E-002  0.2190715E+03  0.7818608E-02  0.1134684E+00
         21   -1    0    0  501  502  0.00000000000E+00  0.00000000000E+00  0.25653748684E+03  0.25653748684E+03  0.00000000000E+00 0.  1.
         21   -1    0    0  502  503 -0.00000000000E+00 -0.00000000000E+00 -0.24166926280E+03  0.24166926280E+03  0.00000000000E+00 0.  1.
         -6    2    1    2    0  503 -0.10467008470E+03  0.84465814295E+02 -0.11149464985E+03  0.24530377414E+03  0.17219925740E+03 0.  0.
        -24    2    3    3    0    0 -0.70466079486E+02  0.64346481133E+01 -0.11597468584E+03  0.15985825003E+03  0.84247607041E+02 0.  0.
          6    2    1    2  501    0  0.10467008470E+03 -0.84465814295E+02  0.12636287389E+03  0.25290297549E+03  0.17292205961E+03 0.  0.
         24    2    5    5    0    0  0.70150588886E+02  0.12778725938E+02  0.27177629692E+02  0.10969718349E+03  0.78806392843E+02 0.  0.
          5    1    5    5  501    0  0.34519495813E+02 -0.97244540233E+02  0.99185244197E+02  0.14320579200E+03  0.47000000000E+01 0. -1.
        -11    1    6    6    0    0  0.60025669810E+01 -0.23988598592E+02 -0.10318930247E+02  0.26794850144E+02  0.00000000000E+00 0.  1.
         12    1    6    6    0    0  0.64148021905E+02  0.36767324531E+02  0.37496559939E+02  0.82902333349E+02  0.00000000000E+00 0. -1.
         -5    1    3    3    0  503 -0.34204005212E+02  0.78031166181E+02  0.44800359952E+01  0.85445524112E+02  0.47000000000E+01 0.  1.
         11    1    4    4    0    0 -0.27379055791E+02 -0.21233689828E+01  0.77768204194E+01  0.28541204033E+02  0.00000000000E+00 0. -1.
        -12    1    4    4    0    0 -0.43087023696E+02  0.85580170962E+01 -0.12375150626E+03  0.13131704600E+03  0.00000000000E+00 0.  1.
</event>
<event>
12    1  0.8493057E-002  0.2707661E+03  0.7818608E-02  0.1101033E+00
         21   -1    0    0  503  502  0.00000000000E+00  0.00000000000E+00  0.87696755622E+03  0.87696755622E+03  0.00000000000E+00 0.  1.
         21   -1    0    0  501  503 -0.00000000000E+00 -0.00000000000E+00 -0.39472770683E+03  0.39472770683E+03  0.00000000000E+00 0. -1.
          6    2    1    2  501    0  0.93166711223E+02 -0.18681805843E+03 -0.32364019030E+03  0.42196833302E+03  0.17243340239E+03 0.  0.
         24    2    3    3    0    0  0.17843413087E+02 -0.10147372384E+03 -0.26478227122E+03  0.29373573448E+03  0.74536746254E+02 0.  0.
         -6    2    1    2    0  502 -0.93166711223E+02  0.18681805843E+03  0.80588003969E+03  0.84972693003E+03  0.17032966336E+03 0.  0.
        -24    2    5    5    0    0 -0.18000109320E+02  0.32733514183E+02  0.21767048705E+03  0.23702420225E+03  0.86049663761E+02 0.  0.
          5    1    3    3  501    0  0.75323298135E+02 -0.85344334590E+02 -0.58857919087E+02  0.12823259854E+03  0.47000000000E+01 0. -1.
        -11    1    4    4    0    0 -0.16768817326E+02 -0.90405652094E+01 -0.12376022542E+02  0.22717636052E+02  0.00000000000E+00 0.  1.
         12    1    4    4    0    0  0.34612230413E+02 -0.92433158629E+02 -0.25240624867E+03  0.27101809843E+03  0.00000000000E+00 0. -1.
         -5    1    5    5    0  502 -0.75166601903E+02  0.15408454425E+03  0.58820955264E+03  0.61270272778E+03  0.47000000000E+01 0.  1.
         13    1    6    6    0    0 -0.77955783265E+01 -0.25619223484E+02  0.11867085935E+03  0.12165479239E+03  0.00000000000E+00 0. -1.
        -14    1    6    6    0    0 -0.10204530994E+02  0.58352737667E+02  0.98999627697E+02  0.11536940985E+03  0.00000000000E+00 0.  1.
</event>
<event>
12    1  0.8493057E-002  0.1752298E+03  0.7818608E-02  0.1173189E+00
         21   -1    0    0  503  502  0.00000000000E+00  0.00000000000E+00  0.11032687065E+03  0.11032687065E+03  0.00000000000E+00 0.  1.
         21   -1    0    0  501  503 -0.00000000000E+00 -0.00000000000E+00 -0.36271761325E+03  0.36271761325E+03  0.00000000000E+00 0.  1.
          6    2    1    2  501    0 -0.48437168982E+01 -0.32237642263E+02 -0.24241713798E+03  0.29753107438E+03  0.16939877290E+03 0.  0.
         24    2    3    3    0    0 -0.43702449002E+02 -0.72306814500E+02 -0.17946418481E+03  0.21326539965E+03  0.78336183123E+02 0.  0.
         -6    2    1    2    0  502  0.48437168982E+01  0.32237642263E+02 -0.99736046154E+01  0.17551340952E+03  0.17217072039E+03 0.  0.
        -24    2    5    5    0    0 -0.30560858509E+02  0.77203367686E+02  0.79410329634E+01  0.11536006662E+03  0.79690394091E+02 0.  0.
          5    1    3    3  501    0  0.38858732104E+02  0.40069172237E+02 -0.62952953175E+02  0.84265674732E+02  0.47000000000E+01 0. -1.
        -13    1    4    4    0    0 -0.62064192354E+02 -0.47051162337E+02 -0.92820458366E+02  0.12116688220E+03  0.00000000000E+00 0.  1.
         14    1    4    4    0    0  0.18361743352E+02 -0.25255652163E+02 -0.86643726439E+02  0.92098517449E+02  0.00000000000E+00 0. -1.
         -5    1    5    5    0  502  0.35404575407E+02 -0.44965725423E+02 -0.17914637579E+02  0.60153342901E+02  0.47000000000E+01 0.  1.
         13    1    6    6    0    0 -0.21895920922E+02  0.10863061987E+02 -0.29802723049E+02  0.38543997846E+02  0.00000000000E+00 0. -1.
        -14    1    6    6    0    0 -0.86649375867E+01  0.66340305698E+02  0.37743756012E+02  0.76816068771E+02  0.00000000000E+00 0.  1.
</event>
<event>
12    1  0.8493057E-002  0.2241320E+03  0.7818608E-02  0.1130859E+00
         21   -1    0    0  501  502  0.00000000000E+00  0.00000000000E+00  0.12726020279E+04  0.12726020279E+04  0.00000000000E+00 0.  1.
         21   -1    0    0  502  503 -0.00000000000E+00 -0.00000000000E+00 -0.75172081575E+02  0.75172081575E+02  0.00000000000E+00 0.  1.
         -6    2    1    2    0  503 -0.91547935686E+02 -0.10969042321E+03  0.13413500751E+03  0.26111350040E+03  0.17255447366E+03 0.  0.
        -24    2    3    3    0    0 -0.51292623799E+02 -0.18728226547E+02  0.28339878285E+01  0.96320724083E+02  0.79296725500E+02 0.  0.
          6    2    1    2  501    0  0.91547935686E+02  0.10969042321E+03  0.10632949389E+04  0.10866606091E+04  0.17269087683E+03 0.  0.
         24    2    5    5    0    0  0.19986584490E+02  0.77573216776E+02  0.88049959758E+03  0.88769134334E+03  0.79368206320E+02 0.  0.
          5    1    5    5  501    0  0.71561351196E+02  0.32117206430E+02  0.18279534128E+03  0.19896926578E+03  0.47000000000E+01 0. -1.
        -13    1    6    6    0    0  0.23991919788E+02  0.29121482238E+02  0.12357481474E+03  0.12920684107E+03  0.00000000000E+00 0.  1.
         14    1    6    6    0    0 -0.40053352986E+01  0.48451734538E+02  0.75692478285E+03  0.75848450227E+03  0.00000000000E+00 0. -1.
         -5    1    3    3    0  503 -0.40255311887E+02 -0.90962196660E+02  0.13130101968E+03  0.16479277632E+03  0.47000000000E+01 0.  1.
         13    1    4    4    0    0 -0.51784779348E+01 -0.40768539988E+02  0.15059274362E+02  0.43768393057E+02  0.00000000000E+00 0. -1.
        -14    1    4    4    0    0 -0.46114145864E+02  0.22040313442E+02 -0.12225286534E+02  0.52552331026E+02  0.00000000000E+00 0.  1.
</event>
<event>
12    1  0.8493057E-002  0.2533741E+03  0.7818608E-02  0.1111600E+00
         21   -1    0    0  501  502  0.00000000000E+00  0.00000000000E+00  0.63685723396E+02  0.63685723396E+02  0.00000000000E+00 0.  1.
         21   -1    0    0  502  503 -0.00000000000E+00 -0.00000000000E+00 -0.13251045904E+04  0.13251045904E+04  0.00000000000E+00 0. -1.
         -6    2    1    2    0  503 -0.12551087468E+03  0.13761743241E+03 -0.97342777130E+03  0.10052055165E+04  0.16788379074E+03 0.  0.
        -24    2    3    3    0    0 -0.12725756845E+03  0.14143418701E+03 -0.97662627132E+03  0.99813876643E+03  0.79271717676E+02 0.  0.
          6    2    1    2  501    0  0.12551087468E+03 -0.13761743241E+03 -0.28799109568E+03  0.38358479723E+03  0.17177569125E+03 0.  0.
         24    2    5    5    0    0  0.12373079312E+03 -0.81884954721E+02 -0.28017963323E+03  0.32708358746E+03  0.80427553316E+02 0.  0.
          5    1    5    5  501    0  0.17800815636E+01 -0.55732477685E+02 -0.78114624487E+01  0.56501209765E+02  0.47000000000E+01 0. -1.
        -11    1    6    6    0    0  0.31069128807E+02 -0.26331104611E+02 -0.20016306751E+02  0.45379184334E+02  0.00000000000E+00 0.  1.
         12    1    6    6    0    0  0.92661664311E+02 -0.55553850110E+02 -0.26016332648E+03  0.28170440313E+03  0.00000000000E+00 0. -1.
         -5    1    3    3    0  503  0.17466937645E+01 -0.38167546051E+01  0.31985000256E+01  0.70667501184E+01  0.47000000000E+01 0.  1.
         13    1    4    4    0    0 -0.80420197700E+02  0.10309103550E+03 -0.46791928057E+03  0.48584320817E+03  0.00000000000E+00 0. -1.
        -14    1    4    4    0    0 -0.46837370746E+02  0.38343151515E+02 -0.50870699075E+03  0.51229555825E+03  0.00000000000E+00 0.  1.
</event>
<event>
12    1  0.8493057E-002  0.1752831E+03  0.7818608E-02  0.1172860E+00
         21   -1    0    0  503  502  0.00000000000E+00  0.00000000000E+00  0.18906551595E+03  0.18906551595E+03  0.00000000000E+00 0.  1.
         21   -1    0    0  501  503 -0.00000000000E+00 -0.00000000000E+00 -0.19896113628E+03  0.19896113628E+03  0.00000000000E+00 0.  1.
          6    2    1    2  501    0 -0.28516145983E+02  0.11184288656E+02 -0.89723719578E+02  0.19691244306E+03  0.17258593652E+03 0.  0.
         24    2    3    3    0    0 -0.66595509204E+02  0.19930058071E+02 -0.99423684203E+02  0.15638213712E+03  0.98681988071E+02 0.  0.
         -6    2    1    2    0  502  0.28516145983E+02 -0.11184288656E+02  0.79828099243E+02  0.19111420917E+03  0.17092061497E+03 0.  0.
        -24    2    5    5    0    0  0.79699741364E+02  0.16736346811E+02  0.42247085244E+02  0.12158907030E+03  0.79793055630E+02 0.  0.
          5    1    3    3  501    0  0.38079363221E+02 -0.87457694146E+01  0.96999646252E+01  0.40530305942E+02  0.47000000000E+01 0. -1.
        -11    1    4    4    0    0  0.12898082650E+02  0.33120042344E+02 -0.12065604056E+02  0.37535004225E+02  0.00000000000E+00 0.  1.
         12    1    4    4    0    0 -0.79493591854E+02 -0.13189984274E+02 -0.87358080147E+02  0.11884713290E+03  0.00000000000E+00 0. -1.
         -5    1    5    5    0  502 -0.51183595382E+02 -0.27920635467E+02  0.37581013999E+02  0.69525138865E+02  0.47000000000E+01 0.  1.
         11    1    6    6    0    0  0.84608629862E+01  0.38131298983E+02  0.88262498244E+01  0.40043536939E+02  0.00000000000E+00 0. -1.
        -12    1    6    6    0    0  0.71238878378E+02 -0.21394952173E+02  0.33420835419E+02  0.81545533361E+02  0.00000000000E+00 0.  1.
</event>
<event>
12    1  0.8493057E-002  0.3236755E+03  0.7818608E-02  0.1074004E+00
         21   -1    0    0  503  502  0.00000000000E+00  0.00000000000E+00  0.21104529193E+04  0.21104529193E+04  0.00000000000E+00 0.  1.
         21   -1    0    0  501  503 -0.00000000000E+00 -0.00000000000E+00 -0.77754865904E+02  0.77754865904E+02  0.00000000000E+00 0. -1.
          6    2    1    2  501    0  0.14113046796E+03 -0.23493651605E+03  0.35822184842E+03  0.48279265840E+03  0.17220012415E+03 0.  0.
         24    2    3    3    0    0  0.14298769847E+02 -0.64256894732E+02  0.12849941190E+03  0.16972349572E+03  0.89221986088E+02 0.  0.
         -6    2    1    2    0  502 -0.14113046796E+03  0.23493651605E+03  0.16744762050E+04  0.17054151268E+04  0.17163105240E+03 0.  0.
        -24    2    5    5    0    0 -0.14113488630E+03  0.25139315100E+03  0.14639903409E+04  0.14942346120E+04  0.79698086398E+02 0.  0.
          5    1    3    3  501    0  0.12683169811E+03 -0.17067962132E+03  0.22972243652E+03  0.31306916268E+03  0.47000000000E+01 0. -1.
        -11    1    4    4    0    0  0.49804621162E+01 -0.84072715805E+02  0.78467145335E+02  0.11510916316E+03  0.00000000000E+00 0.  1.
         12    1    4    4    0    0  0.93183077312E+01  0.19815821074E+02  0.50032266564E+02  0.54614332564E+02  0.00000000000E+00 0. -1.
         -5    1    5    5    0  502  0.44183346822E-02 -0.16456634957E+02  0.21048586415E+03  0.21118051487E+03  0.47000000000E+01 0.  1.
         11    1    6    6    0    0 -0.54035708733E+02  0.31567553314E+02  0.29243275702E+03  0.29905398445E+03  0.00000000000E+00 0. -1.
        -12    1    6    6    0    0 -0.87099177563E+02  0.21982559769E+03  0.11715575838E+04  0.11951806275E+04  0.00000000000E+00 0.  1.
</event>
<event>
12    1  0.8493057E-002  0.2224721E+03  0.7818608E-02  0.1132085E+00
         21   -1    0    0  503  502  0.00000000000E+00  0.00000000000E+00  0.32020466860E+03  0.32020466860E+03  0.00000000000E+00 0.  1.
         21   -1    0    0  501  503 -0.00000000000E+00 -0.00000000000E+00 -0.12308241049E+04  0.12308241049E+04  0.00000000000E+00 0.  1.
          6    2    1    2  501    0 -0.13046771479E+03  0.51995928480E+02 -0.11805589472E+04  0.12013381162E+04  0.17253533077E+03 0.  0.
         24    2    3    3    0    0 -0.10482814687E+03  0.53109962635E+02 -0.48230444676E+03  0.50259634277E+03  0.78586868420E+02 0.  0.
         -6    2    1    2    0  502  0.13046771479E+03 -0.51995928480E+02  0.26993951092E+03  0.34969065731E+03  0.17231022916E+03 0.  0.
        -24    2    5    5    0    0  0.12246471513E+03  0.20267169714E+02  0.16010388781E+03  0.21788793553E+03  0.80209307045E+02 0.  0.
          5    1    3    3  501    0 -0.25639567924E+02 -0.11140341550E+01 -0.69825450048E+03  0.69874177345E+03  0.47000000000E+01 0. -1.
        -13    1    4    4    0    0 -0.52272730697E+02 -0.95370449230E+01 -0.26808792895E+03  0.27330300264E+03  0.00000000000E+00 0.  1.
         14    1    4    4    0    0 -0.52555416168E+02  0.62647007558E+02 -0.21421651781E+03  0.22929334013E+03  0.00000000000E+00 0. -1.
         -5    1    5    5    0  502  0.80029996556E+01 -0.72263098194E+02  0.10983562311E+03  0.13180272178E+03  0.47000000000E+01 0.  1.
         11    1    6    6    0    0  0.81716732278E+01 -0.18394176563E+02  0.52481080037E+02  0.56208413397E+02  0.00000000000E+00 0. -1.
        -12    1    6    6    0    0  0.11429304191E+03  0.38661346277E+02  0.10762280777E+03  0.16167952213E+03  0.00000000000E+00 0.  1.
</event>
<event>
12    1  0.8493057E-002  0.2053929E+03  0.7818608E-02  0.1146629E+00
         21   -1    0    0  501  502  0.00000000000E+00  0.00000000000E+00  0.11636330292E+04  0.11636330292E+04  0.00000000000E+00 0.  1.
         21   -1    0    0  502  503 -0.00000000000E+00 -0.00000000000E+00 -0.40934013751E+02  0.40934013751E+02  0.00000000000E+00 0.  1.
         -6    2    1    2    0  503 -0.80299464725E+01  0.99632392794E+02  0.78080621085E+03  0.80572256315E+03  0.17187034687E+03 0.  0.
        -24    2    3    3    0    0 -0.34751418211E+02  0.12878115029E+03  0.67660179990E+03  0.69416837732E+03  0.79293724224E+02 0.  0.
          6    2    1    2  501    0  0.80299464725E+01 -0.99632392794E+02  0.34189280459E+03  0.39884447979E+03  0.17943002953E+03 0.  0.
         24    2    5    5    0    0 -0.13592844083E+02 -0.38124807216E+01  0.25565511534E+03  0.26804681289E+03  0.79311130856E+02 0.  0.
          5    1    5    5  501    0  0.21622790555E+02 -0.95819912072E+02  0.86237689242E+02  0.13079766690E+03  0.47000000000E+01 0. -1.
        -13    1    6    6    0    0 -0.28036498511E+02 -0.33947035620E+02  0.10743911606E+03  0.11611033604E+03  0.00000000000E+00 0.  1.
         14    1    6    6    0    0  0.14443654429E+02  0.30134554898E+02  0.14821599928E+03  0.15193647684E+03  0.00000000000E+00 0. -1.
         -5    1    3    3    0  503  0.26721471739E+02 -0.29148757496E+02  0.10420441095E+03  0.11155418583E+03  0.47000000000E+01 0.  1.
         11    1    4    4    0    0 -0.19866518116E+02 -0.50632538801E+01  0.91364371642E+02  0.93636336363E+02  0.00000000000E+00 0. -1.
        -12    1    4    4    0    0 -0.14884900095E+02  0.13384440417E+03  0.58523742826E+03  0.60053204096E+03  0.00000000000E+00 0.  1.
</event>
<event>
12    1  0.8493057E-002  0.2279063E+03  0.7818608E-02  0.1128674E+00
         21   -1    0    0  501  502  0.00000000000E+00  0.00000000000E+00  0.11170705958E+03  0.11170705958E+03  0.00000000000E+00 0.  1.
         21   -1    0    0  502  503 -0.00000000000E+00 -0.00000000000E+00 -0.61629622021E+03  0.61629622021E+03  0.00000000000E+00 0.  1.
         -6    2    1    2    0  503  0.12629404177E+03 -0.74223857147E+02 -0.66962752514E+02  0.23458849194E+03  0.17055317169E+03 0.  0.
        -24    2    3    3    0    0  0.14546856644E+03 -0.82358046096E+02 -0.23310329014E+02  0.18599372367E+03  0.78143088162E+02 0.  0.
          6    2    1    2  501    0 -0.12629404177E+03  0.74223857147E+02 -0.43762640812E+03  0.49341478784E+03  0.17459070373E+03 0.  0.
         24    2    5    5    0    0 -0.14407364627E+03  0.96135785822E+02 -0.32397017935E+03  0.37621378405E+03  0.81122310930E+02 0.  0.
          5    1    5    5  501    0  0.17779604507E+02 -0.21911928675E+02 -0.11365622876E+03  0.11720100380E+03  0.47000000000E+01 0. -1.
        -13    1    6    6    0    0 -0.83321647459E+01 -0.19090167214E+01 -0.79132058604E+02  0.79592411781E+02  0.00000000000E+00 0.  1.
         14    1    6    6    0    0 -0.13574148153E+03  0.98044802543E+02 -0.24483812075E+03  0.29662137227E+03  0.00000000000E+00 0. -1.
         -5    1    3    3    0  503 -0.19174524673E+02  0.81341889491E+01 -0.43652423500E+02  0.48594768275E+02  0.47000000000E+01 0.  1.
         11    1    4    4    0    0  0.61338495325E+02 -0.70539844077E+02  0.11498048988E+02  0.94183256165E+02  0.00000000000E+00 0. -1.
        -12    1    4    4    0    0  0.84130071113E+02 -0.11818202018E+02 -0.34808378001E+02  0.91810467505E+02  0.00000000000E+00 0.  1.
</event>
<event>
12    1  0.8493057E-002  0.2373990E+03  0.7818608E-02  0.1121775E+00
         21   -1    0    0  503  502  0.00000000000E+00  0.00000000000E+00  0.56579816974E+03  0.56579816974E+03  0.00000000000E+00 0. -1.
         21   -1    0    0  501  503 -0.00000000000E+00 -0.00000000000E+00 -0.99022109035E+02  0.99022109035E+02  0.00000000000E+00 0.  1.
          6    2    1    2  501    0 -0.11640795537E+03  0.11301689925E+03  0.23314548013E+03  0.33273880881E+03  0.17330513089E+03 0.  0.
         24    2    3    3    0    0 -0.65409878586E+02  0.67981565821E+02  0.38766229532E+02  0.12674276963E+03  0.75239375289E+02 0.  0.
         -6    2    1    2    0  502  0.11640795537E+03 -0.11301689925E+03  0.23363058057E+03  0.33208146996E+03  0.17138034579E+03 0.  0.
        -24    2    5    5    0    0  0.62038391411E+02 -0.98053975733E+02  0.23647619704E+03  0.27542349525E+03  0.80459715410E+02 0.  0.
          5    1    3    3  501    0 -0.50998076783E+02  0.45035333429E+02  0.19437925060E+03  0.20599603918E+03  0.47000000000E+01 0. -1.
        -13    1    4    4    0    0 -0.69527517413E+02  0.81060528520E+02  0.32218629312E+02  0.11154785985E+03  0.00000000000E+00 0.  1.
         14    1    4    4    0    0  0.41176388273E+01 -0.13078962698E+02  0.65476002200E+01  0.15194909787E+02  0.00000000000E+00 0. -1.
         -5    1    5    5    0  502  0.54369563957E+02 -0.14962923518E+02 -0.28456164705E+01  0.56657974710E+02  0.47000000000E+01 0.  1.
         11    1    6    6    0    0  0.42162627554E+02 -0.14278657378E+01  0.62034991376E+02  0.75020438000E+02  0.00000000000E+00 0. -1.
        -12    1    6    6    0    0  0.19875763858E+02 -0.96626109995E+02  0.17444120566E+03  0.20040305725E+03  0.00000000000E+00 0.  1.
</event>
<event>
12    1  0.8493057E-002  0.2567201E+03  0.7818608E-02  0.1109156E+00
         21   -1    0    0  501  502  0.00000000000E+00  0.00000000000E+00  0.30663681498E+03  0.30663681498E+03  0.00000000000E+00 0. -1.
         21   -1    0    0  502  503 -0.00000000000E+00 -0.00000000000E+00 -0.21647475659E+03  0.21647475659E+03  0.00000000000E+00 0. -1.
         -6    2    1    2    0  503  0.58617597806E+02 -0.18158865291E+03  0.21982078041E+02  0.25765954635E+03  0.17174041001E+03 0.  0.
        -24    2    3    3    0    0  0.92029283869E+02 -0.86568627308E+02 -0.27172153144E+02  0.14548390516E+03  0.66811110093E+02 0.  0.
          6    2    1    2  501    0 -0.58617597806E+02  0.18158865291E+03  0.68179980352E+02  0.26545202523E+03  0.17148121278E+03 0.  0.
         24    2    5    5    0    0 -0.43806922994E+02  0.12671537145E+03 -0.24135021759E+02  0.15694127589E+03  0.77924533609E+02 0.  0.
          5    1    5    5  501    0 -0.14810674812E+02  0.54873281461E+02  0.92315002111E+02  0.10851074934E+03  0.47000000000E+01 0. -1.
        -13    1    6    6    0    0 -0.27371992437E+01  0.32615265937E+02 -0.41455384094E+02  0.52818526127E+02  0.00000000000E+00 0.  1.
         14    1    6    6    0    0 -0.41069723750E+02  0.94100105517E+02  0.17320362334E+02  0.10412274976E+03  0.00000000000E+00 0. -1.
         -5    1    3    3    0  503 -0.33411686064E+02 -0.95020025607E+02  0.49154231186E+02  0.11217564119E+03  0.47000000000E+01 0.  1.
         13    1    4    4    0    0  0.10163643023E+02 -0.52627461875E+01  0.18202750433E+02  0.21502005959E+02  0.00000000000E+00 0. -1.
        -14    1    4    4    0    0  0.81865640847E+02 -0.81305881120E+02 -0.45374903577E+02  0.12398189921E+03  0.00000000000E+00 0.  1.
</event>
<event>
12    1  0.8493057E-002  0.1889181E+03  0.7818608E-02  0.1159525E+00
         21   -1    0    0  503  502  0.00000000000E+00  0.00000000000E+00  0.14916150799E+03  0.14916150799E+03  0.00000000000E+00 0.  1.
         21   -1    0    0  501  503 -0.00000000000E+00 -0.00000000000E+00 -0.23900688434E+03  0.23900688434E+03  0.00000000000E+00 0. -1.
          6    2    1    2  501    0 -0.16841333814E+02  0.75284375896E+02 -0.39301502426E+02  0.19296282265E+03  0.17244905060E+03 0.  0.
         24    2    3    3    0    0  0.90682440838E+01 -0.23729054104E+02 -0.53591359692E+00  0.83419103409E+02  0.79455387173E+02 0.  0.
         -6    2    1    2    0  502  0.16841333814E+02 -0.75284375896E+02 -0.50543873919E+02  0.19520556968E+03  0.17204407419E+03 0.  0.
        -24    2    5    5    0    0  0.60373522909E+02 -0.91658433377E+02 -0.19113626371E+02  0.13887518972E+03  0.82914153967E+02 0.  0.
          5    1    3    3  501    0 -0.25909577898E+02  0.99013430000E+02 -0.38765588830E+02  0.10954371924E+03  0.47000000000E+01 0. -1.
        -13    1    4    4    0    0 -0.19009172115E+02 -0.31452978681E+01  0.30964041373E+02  0.36469348518E+02  0.00000000000E+00 0.  1.
         14    1    4    4    0    0  0.28077416199E+02 -0.20583756236E+02 -0.31499954970E+02  0.46949754891E+02  0.00000000000E+00 0. -1.
         -5    1    5    5    0  502 -0.43532189095E+02  0.16374057481E+02 -0.31430247548E+02  0.56330379962E+02  0.47000000000E+01 0.  1.
         13    1    6    6    0    0  0.80557351838E+01 -0.46353343020E+02 -0.44885345147E+02  0.65024775950E+02  0.00000000000E+00 0. -1.
        -14    1    6    6    0    0  0.52317787725E+02 -0.45305090357E+02  0.25771718776E+02  0.73850413766E+02  0.00000000000E+00 0.  1.
</event>
<event>
12    1  0.8493057E-002  0.1944427E+03  0.7818608E-02  0.1156032E+00
         21   -1    0    0  501  502  0.00000000000E+00  0.00000000000E+00  0.11296594550E+03  0.11296594550E+03  0.00000000000E+00 0. -1.
         21   -1    0    0  502  503 -0.00000000000E+00 -0.00000000000E+00 -0.47652077323E+03  0.47652077323E+03  0.00000000000E+00 0.  1.
         -6    2    1    2    0  503 -0.36652622047E+02  0.73292355028E+02 -0.35121042017E+03  0.40144330478E+03  0.17633145978E+03 0.  0.
        -24    2    3    3    0    0 -0.60763462601E+02 -0.14060318449E+02 -0.16510320074E+03  0.19439304683E+03  0.81484347069E+02 0.  0.
          6    2    1    2  501    0  0.36652622047E+02 -0.73292355028E+02 -0.12344407561E+02  0.18804341394E+03  0.16879797724E+03 0.  0.
         24    2    5    5    0    0 -0.10234052990E+02 -0.19853221548E+01  0.35312149777E+02  0.90184890091E+02  0.82326721872E+02 0.  0.
          5    1    5    5  501    0  0.46886675038E+02 -0.71307032873E+02 -0.47656557338E+02  0.97858523852E+02  0.47000000000E+01 0. -1.
        -13    1    6    6    0    0 -0.66307998432E+01 -0.12628587845E+02 -0.25028157543E+02  0.28807245747E+02  0.00000000000E+00 0.  1.
         14    1    6    6    0    0 -0.36032531472E+01  0.10643265690E+02  0.60340307320E+02  0.61377644344E+02  0.00000000000E+00 0. -1.
         -5    1    3    3    0  503  0.24110840553E+02  0.87352673477E+02 -0.18610721943E+03  0.20705025795E+03  0.47000000000E+01 0.  1.
         11    1    4    4    0    0  0.73128509188E+01 -0.30423426748E+02 -0.37466138361E+02  0.48813668243E+02  0.00000000000E+00 0. -1.
        -12    1    4    4    0    0 -0.68076313519E+02  0.16363108299E+02 -0.12763706238E+03  0.14557937859E+03  0.00000000000E+00 0.  1.
</event>
<event>
12    1  0.8493057E-002  0.1907237E+03  0.7818608E-02  0.1157849E+00
         21   -1    0    0  501  502  0.00000000000E+00  0.00000000000E+00  0.40773793592E+03  0.40773793592E+03  0.00000000000E+00 0. -1.
         21   -1    0    0  502  503 -0.00000000000E+00 -0.00000000000E+00 -0.15907233318E+03  0.15907233318E+03  0.00000000000E+00 0. -1.
         -6    2    1    2    0  503  0.34352464965E+02 -0.74647277635E+02 -0.63555316173E+02  0.20103430003E+03  0.17211392642E+03 0.  0.
        -24    2    3    3    0    0  0.68003765263E+02  0.38958429913E+01 -0.39523073945E+02  0.11214633417E+03  0.79843830131E+02 0.  0.
          6    2    1    2  501    0 -0.34352464965E+02  0.74647277635E+02  0.31222091892E+03  0.36577596907E+03  0.17192396409E+03 0.  0.
         24    2    5    5    0    0 -0.84849348875E+02  0.67305130352E+02  0.18902839394E+03  0.23235059434E+03  0.80781634035E+02 0.  0.
          5    1    5    5  501    0  0.50496883910E+02  0.73421472825E+01  0.12319252497E+03  0.13342537473E+03  0.47000000000E+01 0. -1.
        -13    1    6    6    0    0 -0.65090673097E+02  0.33362525855E+02  0.51838972447E+02  0.89650058115E+02  0.00000000000E+00 0.  1.
         14    1    6    6    0    0 -0.19758675778E+02  0.33942604497E+02  0.13718942150E+03  0.14270053623E+03  0.00000000000E+00 0. -1.
         -5    1    3    3    0  503 -0.33651300298E+02 -0.78543120626E+02 -0.24032242228E+02  0.88887965867E+02  0.47000000000E+01 0.  1.
         13    1    4    4    0    0  0.61047981891E+01 -0.21906397135E+02 -0.38926195828E+02  0.45082230624E+02  0.00000000000E+00 0. -1.
        -14    1    4    4    0    0  0.61898967074E+02  0.25802240126E+02 -0.59687811759E+00  0.67064103542E+02  0.00000000000E+00 0.  1.
</event>
<event>
12    1  0.8493057E-002  0.2342686E+03  0.7818608E-02  0.1123907E+00
         21   -1    0    0  501  502  0.00000000000E+00  0.00000000000E+00  0.62712815752E+03  0.62712815752E+03  0.00000000000E+00 0. -1.
         21   -1    0    0  502  503 -0.00000000000E+00 -0.00000000000E+00 -0.91198091196E+02  0.91198091196E+02  0.00000000000E+00 0.  1.
         -6    2    1    2    0  503 -0.11779129365E+03 -0.10827888402E+03  0.34424942066E+03  0.41563295140E+03  0.16924532808E+03 0.  0.
        -24    2    3    3    0    0 -0.78612523525E+02 -0.25393461906E+02  0.28272514764E+03  0.30512369659E+03  0.79637957972E+02 0.  0.
          6    2    1    2  501    0  0.11779129365E+03  0.10827888402E+03  0.19168064566E+03  0.30269329732E+03  0.17112175997E+03 0.  0.
         24    2    5    5    0    0  0.14308640279E+03  0.10460567499E+03  0.12611993418E+03  0.23216931629E+03  0.81118972656E+02 0.  0.
          5    1    5    5  501    0 -0.25295109134E+02  0.36732090311E+01  0.65560711478E+02  0.70523981029E+02  0.47000000000E+01 0. -1.
        -11    1    6    6    0    0  0.23690594853E+01  0.24731333903E+02 -0.31793723104E+01  0.25047150093E+02  0.00000000000E+00 0.  1.
         12    1    6    6    0    0  0.14071734330E+03  0.79874341086E+02  0.12929930649E+03  0.20712216619E+03  0.00000000000E+00 0. -1.
         -5    1    3    3    0  503 -0.39178770126E+02 -0.82885422114E+02  0.61524273021E+02  0.11050925481E+03  0.47000000000E+01 0.  1.
         11    1    4    4    0    0 -0.22256779479E+02  0.28903465395E+02  0.91849877236E+02  0.98829016452E+02  0.00000000000E+00 0. -1.
        -12    1    4    4    0    0 -0.56355744046E+02 -0.54296927301E+02  0.19087527041E+03  0.20629468014E+03  0.00000000000E+00 0.  1.
</event>
<event>
12    1  0.8493057E-002  0.1772061E+03  0.7818608E-02  0.1171295E+00
         21   -1    0    0  501  502  0.00000000000E+00  0.00000000000E+00  0.11679719162E+04  0.11679719162E+04  0.00000000000E+00 0. -1.
         21   -1    0    0  502  503 -0.00000000000E+00 -0.00000000000E+00 -0.70235987689E+02  0.70235987689E+02  0.00000000000E+00 0. -1.
         -6    2    1    2    0  503  0.19779463971E+02 -0.15757117736E+02  0.61706135559E+02  0.18764235483E+03  0.17539239495E+03 0.  0.
        -24    2    3    3    0    0 -0.19954397846E+02 -0.65532985954E+02  0.65266376449E+02  0.12368000538E+03  0.79651074039E+02 0.  0.
          6    2    1    2  501    0 -0.19779463971E+02  0.15757117736E+02  0.10360297930E+04  0.10505655491E+04  0.17230997367E+03 0.  0.
         24    2    5    5    0    0  0.21476890044E+02 -0.12972717898E+01  0.94781719518E+03  0.95158832262E+03  0.81853286711E+02 0.  0.
          5    1    5    5  501    0 -0.41256354014E+02  0.17054389526E+02  0.88212597820E+02  0.98977226485E+02  0.47000000000E+01 0. -1.
        -11    1    6    6    0    0 -0.31107698870E+02 -0.96497345567E+00  0.42292250587E+03  0.42406611050E+03  0.00000000000E+00 0.  1.
         12    1    6    6    0    0  0.52584588914E+02 -0.33229833417E+00  0.52489468931E+03  0.52752221212E+03  0.00000000000E+00 0. -1.
         -5    1    3    3    0  503  0.39733861817E+02  0.49775868218E+02 -0.35602408903E+01  0.63962349448E+02  0.47000000000E+01 0.  1.
         13    1    4    4    0    0 -0.71927101142E+01 -0.82197196741E+02  0.60057194869E+02  0.10205381368E+03  0.00000000000E+00 0. -1.
        -14    1    4    4    0    0 -0.12761687732E+02  0.16664210787E+02  0.52091815806E+01  0.21626191705E+02  0.00000000000E+00 0.  1.
</event>
<event>
12    1  0.8493057E-002  0.2133070E+03  0.7818608E-02  0.1140800E+00
         21   -1    0    0  503  502  0.00000000000E+00  0.00000000000E+00  0.42724946512E+03  0.42724946512E+03  0.00000000000E+00 0.  1.
         21   -1    0    0  501  503 -0.00000000000E+00 -0.00000000000E+00 -0.16455423710E+03  0.16455423710E+03  0.00000000000E+00 0.  1.
          6    2    1    2  501    0 -0.48481325182E+02  0.96096125196E+02 -0.52925150217E+02  0.21086262540E+03  0.17342742313E+03 0.  0.
         24    2    3    3    0    0 -0.88060505291E+02  0.10683782786E+03 -0.25253229128E+02  0.16116633891E+03  0.78535910005E+02 0.  0.
         -6    2    1    2    0  502  0.48481325182E+02 -0.96096125196E+02  0.31562037824E+03  0.38094107683E+03  0.18416019300E+03 0.  0.
        -24    2    5    5    0    0  0.63969302640E+02 -0.11470606799E+03  0.13883743397E+03  0.20244595981E+03  0.66775593265E+02 0.  0.
          5    1    3    3  501    0  0.39579180109E+02 -0.10741702667E+02 -0.27671921089E+02  0.49696286492E+02  0.47000000000E+01 0. -1.
        -11    1    4    4    0    0 -0.89314220171E+02  0.50656926902E+02 -0.11571041318E+02  0.10332977869E+03  0.00000000000E+00 0.  1.
         12    1    4    4    0    0  0.12537148795E+01  0.56180900962E+02 -0.13682187810E+02  0.57836560212E+02  0.00000000000E+00 0. -1.
         -5    1    5    5    0  502 -0.15487977458E+02  0.18609942798E+02  0.17678294426E+03  0.17849511702E+03  0.47000000000E+01 0.  1.
         13    1    6    6    0    0  0.54365015800E+01 -0.49780846544E+02  0.17807339069E+02  0.53148749344E+02  0.00000000000E+00 0. -1.
        -14    1    6    6    0    0  0.58532801060E+02 -0.64925221449E+02  0.12103009490E+03  0.14929721046E+03  0.00000000000E+00 0.  1.
</event>
<event>
12    1  0.8493057E-002  0.2741153E+03  0.7818608E-02  0.1098956E+00
         21   -1    0    0  503  502  0.00000000000E+00  0.00000000000E+00  0.31590351704E+03  0.31590351704E+03  0.00000000000E+00 0.  1.
         21   -1    0    0  501  503 -0.00000000000E+00 -0.00000000000E+00 -0.24231763213E+03  0.24231763213E+03  0.00000000000E+00 0.  1.
          6    2    1    2  501    0 -0.17390678853E+03 -0.12088643832E+03 -0.13323120220E+01  0.27405231381E+03  0.17391317828E+03 0.  0.
         24    2    3    3    0    0 -0.12677167908E+03 -0.24843877954E+02  0.43101584673E+02  0.15811115149E+03  0.80331268714E+02 0.  0.
         -6    2    1    2    0  502  0.17390678853E+03  0.12088643832E+03  0.74918196931E+02  0.28416883537E+03  0.17401749537E+03 0.  0.
        -24    2    5    5    0    0  0.51021790882E+02  0.28953225782E+02  0.38292291936E+01  0.11497022559E+03  0.98802719339E+02 0.  0.
          5    1    3    3  501    0 -0.47135109442E+02 -0.96042560371E+02 -0.44433896694E+02  0.11594116232E+03  0.47000000000E+01 0. -1.
        -11    1    4    4    0    0 -0.12714611829E+03 -0.61882869265E+01  0.20720285795E+02  0.12897193700E+03  0.00000000000E+00 0.  1.
         12    1    4    4    0    0  0.37443920243E+00 -0.18655591027E+02  0.22381298878E+02  0.29139214484E+02  0.00000000000E+00 0. -1.
         -5    1    5    5    0  502  0.12288499765E+03  0.91933212543E+02  0.71088967737E+02  0.16919860977E+03  0.47000000000E+01 0.  1.
         11    1    6    6    0    0  0.37192545806E+02  0.32161584897E+02 -0.43443122763E+02  0.65612178153E+02  0.00000000000E+00 0. -1.
        -12    1    6    6    0    0  0.13829245076E+02 -0.32083591147E+01  0.47272351957E+02  0.49358047440E+02  0.00000000000E+00 0.  1.
</event>
<event>
12    1  0.8493057E-002  0.3799384E+03  0.7818608E-02  0.1050991E+00
         21   -1    0    0  503  502  0.00000000000E+00  0.00000000000E+00  0.10587663783E+03  0.10587663783E+03  0.00000000000E+00 0. -1.
         21   -1    0    0  501  503 -0.00000000000E+00 -0.00000000000E+00 -0.16726193495E+04  0.16726193495E+04  0.00000000000E+00 0.  1.
          6    2    1    2  501    0 -0.33728946664E+03  0.32817049438E+02 -0.11668590680E+04  0.12271565957E+04  0.17179081083E+03 0.  0.
         24    2    3    3    0    0 -0.13913086070E+03 -0.34790420777E+02 -0.40114195442E+03  0.43331631504E+03  0.79248921126E+02 0.  0.
         -6    2    1    2    0  502  0.33728946664E+03 -0.32817049438E+02 -0.39988364365E+03  0.55133939164E+03  0.17095921524E+03 0.  0.
        -24    2    5    5    0    0  0.71029356855E+02 -0.35369280449E+02 -0.13630235253E+03  0.17664198442E+03  0.79548122679E+02 0.  0.
          5    1    3    3  501    0 -0.19815860594E+03  0.67607470215E+02 -0.76571711357E+03  0.79384028063E+03  0.47000000000E+01 0. -1.
        -13    1    4    4    0    0 -0.12633523807E+03 -0.26731514894E+02 -0.39723608482E+03  0.41769806482E+03  0.00000000000E+00 0.  1.
         14    1    4    4    0    0 -0.12795622631E+02 -0.80589058828E+01 -0.39058696016E+01  0.15618250219E+02  0.00000000000E+00 0. -1.
         -5    1    5    5    0  502  0.26626010979E+03  0.25522310110E+01 -0.26358129113E+03  0.37469740722E+03  0.47000000000E+01 0.  1.
         11    1    6    6    0    0  0.26599055446E+02  0.33605781499E+01 -0.10796254130E+03  0.11124168984E+03  0.00000000000E+00 0. -1.
        -12    1    6    6    0    0  0.44430301409E+02 -0.38729858599E+02 -0.28339811229E+02  0.65400294578E+02  0.00000000000E+00 0.  1.
</event>
<event>
12    1  0.8493057E-002  0.5487143E+03  0.7818608E-02  0.1001811E+00
         21   -1    0    0  501  502  0.00000000000E+00  0.00000000000E+00  0.13168418261E+04  0.13168418261E+04  0.00000000000E+00 0.  1.
         21   -1    0    0  502  503 -0.00000000000E+00 -0.00000000000E+00 -0.49294796445E+03  0.49294796445E+03  0.00000000000E+00 0. -1.
         -6    2    1    2    0  503  0.19031678600E+03 -0.48467889391E+03 -0.25087685716E+03  0.60305058178E+03  0.17203690737E+03 0.  0.
        -24    2    3    3    0    0  0.18712793219E+03 -0.29396062223E+03 -0.17302446575E+03  0.39697604966E+03  0.78884775665E+02 0.  0.
          6    2    1    2  501    0 -0.19031678600E+03  0.48467889391E+03  0.10747707188E+04  0.12067392088E+04  0.17307024792E+03 0.  0.
         24    2    5    5    0    0 -0.54901259377E+02  0.31458430687E+03  0.68053625841E+03  0.75650323379E+03  0.84794512296E+02 0.  0.
          5    1    5    5  501    0 -0.13541552662E+03  0.17009458704E+03  0.39423446043E+03  0.45023597499E+03  0.47000000000E+01 0. -1.
        -13    1    6    6    0    0 -0.11460207930E+02  0.15879053193E+03  0.42761734605E+03  0.45629197236E+03  0.00000000000E+00 0.  1.
         14    1    6    6    0    0 -0.43441051447E+02  0.15579377494E+03  0.25291891235E+03  0.30021126143E+03  0.00000000000E+00 0. -1.
         -5    1    3    3    0  503  0.31888538146E+01 -0.19071827168E+03 -0.77852391414E+02  0.20607453212E+03  0.47000000000E+01 0.  1.
         11    1    4    4    0    0  0.11509368545E+03 -0.22759613814E+03 -0.96525839272E+02  0.27269726103E+03  0.00000000000E+00 0. -1.
        -12    1    4    4    0    0  0.72034246733E+02 -0.66364484094E+02 -0.76498626473E+02  0.12427878863E+03  0.00000000000E+00 0.  1.
</event>
<event>
12    1  0.8493057E-002  0.1858765E+03  0.7818608E-02  0.1162261E+00
         21   -1    0    0  501  502  0.00000000000E+00  0.00000000000E+00  0.20135203088E+04  0.20135203088E+04  0.00000000000E+00 0. -1.
         21   -1    0    0  502  503 -0.00000000000E+00 -0.00000000000E+00 -0.17722998134E+02  0.17722998134E+02  0.00000000000E+00 0.  1.
         -6    2    1    2    0  503 -0.28190499809E+01  0.71963790027E+02  0.81531867852E+03  0.83623838358E+03  0.17135738244E+03 0.  0.
        -24    2    3    3    0    0  0.70535846057E+01  0.48721695670E+02  0.20476537332E+03  0.22514502545E+03  0.79610725967E+02 0.  0.
          6    2    1    2  501    0  0.28190499809E+01 -0.71963790027E+02  0.11804786321E+04  0.11950049233E+04  0.17123151510E+03 0.  0.
         24    2    5    5    0    0  0.49397329526E+02  0.50305670064E+01  0.53519170225E+03  0.54345678313E+03  0.80310112665E+02 0.  0.
          5    1    5    5  501    0 -0.46578279545E+02 -0.76994357033E+02  0.64528692988E+03  0.65154814021E+03  0.47000000000E+01 0. -1.
        -11    1    6    6    0    0  0.26146444788E+02  0.29555659451E+02  0.10892631268E+03  0.11585385265E+03  0.00000000000E+00 0.  1.
         12    1    6    6    0    0  0.23250884739E+02 -0.24525092444E+02  0.42626538958E+03  0.42760293048E+03  0.00000000000E+00 0. -1.
         -5    1    3    3    0  503 -0.98726345867E+01  0.23242094356E+02  0.61055330520E+03  0.61109335813E+03  0.47000000000E+01 0.  1.
         13    1    4    4    0    0 -0.29234943134E+02  0.18626313149E+02  0.14466515128E+03  0.14876030195E+03  0.00000000000E+00 0. -1.
        -14    1    4    4    0    0  0.36288527740E+02  0.30095382522E+02  0.60100222036E+02  0.76384723495E+02  0.00000000000E+00 0.  1.
</event>
<event>
12    1  0.8493057E-002  0.1918985E+03  0.7818608E-02  0.1156997E+00
         21   -1    0    0  501  502  0.00000000000E+00  0.00000000000E+00  0.11275766899E+03  0.11275766899E+03  0.00000000000E+00 0.  1.
         21   -1    0    0  502  503 -0.00000000000E+00 -0.00000000000E+00 -0.32497094722E+03  0.32497094722E+03  0.00000000000E+00 0.  1.
         -6    2    1    2    0  503 -0.53809866819E+02 -0.64920503892E+02 -0.11167088623E+03  0.22202569745E+03  0.17237995795E+03 0.  0.
        -24    2    3    3    0    0 -0.35229095463E+02 -0.10921010439E+03 -0.62369596568E+02  0.15303641611E+03  0.79763663479E+02 0.  0.
          6    2    1    2  501    0  0.53809866819E+02  0.64920503892E+02 -0.10054239200E+03  0.21570291876E+03  0.17119813954E+03 0.  0.
         24    2    5    5    0    0  0.90190113975E+02  0.32838026495E+01 -0.64381590801E+02  0.13537671590E+03  0.77697013807E+02 0.  0.
          5    1    5    5  501    0 -0.36380247156E+02  0.61636701243E+02 -0.36160801197E+02  0.80326202863E+02  0.47000000000E+01 0. -1.
        -11    1    6    6    0    0  0.41777231610E+02  0.36446365359E+02 -0.12017225174E+02  0.56728196955E+02  0.00000000000E+00 0.  1.
         12    1    6    6    0    0  0.48412882366E+02 -0.33162562710E+02 -0.52364365627E+02  0.78648518943E+02  0.00000000000E+00 0. -1.
         -5    1    3    3    0  503 -0.18580771356E+02  0.44289600501E+02 -0.49301289666E+02  0.68989281337E+02  0.47000000000E+01 0.  1.
         11    1    4    4    0    0  0.13078871864E+02 -0.68497365003E+01  0.10769951764E+02  0.18274781540E+02  0.00000000000E+00 0. -1.
        -12    1    4    4    0    0 -0.48307967327E+02 -0.10236036789E+03 -0.73139548331E+02  0.13476163457E+03  0.00000000000E+00 0.  1.
</event>
<event>
12    1  0.8493057E-002  0.1888994E+03  0.7818608E-02  0.1159483E+00
         21   -1    0    0  503  502  0.00000000000E+00  0.00000000000E+00  0.39959555543E+02  0.39959555543E+02  0.00000000000E+00 0. -1.
         21   -1    0    0  501  503 -0.00000000000E+00 -0.00000000000E+00 -0.16347854058E+04  0.16347854058E+04  0.00000000000E+00 0. -1.
          6    2    1    2  501    0 -0.15307819695E+02 -0.77725360800E+02 -0.13615551726E+04  0.13745813581E+04  0.17136470122E+03 0.  0.
         24    2    3    3    0    0 -0.10710798178E+02  0.75575782273E+01 -0.44654171434E+03  0.45557862079E+03  0.89333861961E+02 0.  0.
         -6    2    1    2    0  502  0.15307819695E+02  0.77725360800E+02 -0.23327067761E+03  0.30016360324E+03  0.17148591377E+03 0.  0.
        -24    2    5    5    0    0 -0.23897144872E+02  0.27934203934E+02 -0.38298179046E+02  0.95096409997E+02  0.78899831392E+02 0.  0.
          5    1    3    3  501    0 -0.45970215176E+01 -0.85282939027E+02 -0.91501345827E+03  0.91900273727E+03  0.47000000000E+01 0. -1.
        -11    1    4    4    0    0 -0.35140255099E+02  0.37551465022E+02 -0.26886673168E+03  0.27374124545E+03  0.00000000000E+00 0.  1.
         12    1    4    4    0    0  0.24429456922E+02 -0.29993886794E+02 -0.17767498265E+03  0.18183737534E+03  0.00000000000E+00 0. -1.
         -5    1    5    5    0  502  0.39204964567E+02  0.49791156866E+02 -0.19497249856E+03  0.20506719324E+03  0.47000000000E+01 0.  1.
         11    1    6    6    0    0  0.19555026380E+02 -0.15040286943E+02 -0.39280679338E+01  0.24980772721E+02  0.00000000000E+00 0. -1.
        -12    1    6    6    0    0 -0.43452171252E+02  0.42974490878E+02 -0.34370111112E+02  0.70115637276E+02  0.00000000000E+00 0.  1.
</event>
<event>
12    1  0.8493057E-002  0.2406510E+03  0.7818608E-02  0.1119425E+00
         21   -1    0    0  503  502  0.00000000000E+00  0.00000000000E+00  0.11903202907E+03  0.11903202907E+03  0.00000000000E+00 0.  1.
         21   -1    0    0  501  503 -0.00000000000E+00 -0.00000000000E+00 -0.58383149022E+03  0.58383149022E+03  0.00000000000E+00 0. -1.
          6    2    1    2  501    0  0.14350857651E+03  0.87810631028E+02 -0.37661063317E+03  0.44693231453E+03  0.17206831869E+03 0.  0.
         24    2    3    3    0    0  0.12822620279E+03  0.83542901450E+02 -0.18366099263E+03  0.25327432154E+03  0.83636991062E+02 0.  0.
         -6    2    1    2    0  502 -0.14350857651E+03 -0.87810631028E+02 -0.88188827971E+02  0.25593120476E+03  0.17151703629E+03 0.  0.
        -24    2    5    5    0    0 -0.72355223967E+02 -0.10237546816E+03 -0.10392294766E+03  0.18146922398E+03  0.80094227540E+02 0.  0.
          5    1    3    3  501    0  0.15282373724E+02  0.42677295778E+01 -0.19294964055E+03  0.19365799299E+03  0.47000000000E+01 0. -1.
        -13    1    4    4    0    0  0.53879944797E+00  0.37922297620E+02 -0.51220777987E+02  0.63733500290E+02  0.00000000000E+00 0.  1.
         14    1    4    4    0    0  0.12768740334E+03  0.45620603830E+02 -0.13244021464E+03  0.18954082125E+03  0.00000000000E+00 0. -1.
         -5    1    5    5    0  502 -0.71153352545E+02  0.14564837136E+02  0.15734119690E+02  0.74461980780E+02  0.47000000000E+01 0.  1.
         13    1    6    6    0    0 -0.31815946348E+02  0.62328416224E+01 -0.17257218414E+02  0.36727569265E+02  0.00000000000E+00 0. -1.
        -14    1    6    6    0    0 -0.40539277619E+02 -0.10860830979E+03 -0.86665729247E+02  0.14474165472E+03  0.00000000000E+00 0.  1.
</event>
<event>
12    1  0.8493057E-002  0.2086801E+03  0.7818608E-02  0.1142636E+00
         21   -1    0    0  501  502  0.00000000000E+00  0.00000000000E+00  0.48320307236E+03  0.48320307236E+03  0.00000000000E+00 0. -1.
         21   -1    0    0  502  503 -0.00000000000E+00 -0.00000000000E+00 -0.90534225140E+02  0.90534225140E+02  0.00000000000E+00 0. -1.
         -6    2    1    2    0  503 -0.49280728908E+02  0.10744517498E+03  0.17599691989E+03  0.27298776361E+03  0.17197193784E+03 0.  0.
        -24    2    3    3    0    0 -0.75467676880E+02  0.12564653645E+03  0.16845118320E+03  0.23988075611E+03  0.87661585978E+02 0.  0.
          6    2    1    2  501    0  0.49280728908E+02 -0.10744517498E+03  0.21667192734E+03  0.30074953389E+03  0.17184441268E+03 0.  0.
         24    2    5    5    0    0  0.23060895742E+02  0.87255545993E+01  0.59245560091E+02  0.10329506023E+03  0.80943763579E+02 0.  0.
          5    1    5    5  501    0  0.26219833166E+02 -0.11617072958E+03  0.15742636724E+03  0.19745447366E+03  0.47000000000E+01 0. -1.
        -11    1    6    6    0    0 -0.16450949994E+02  0.11166034654E+01  0.60830904489E+02  0.63026022403E+02  0.00000000000E+00 0.  1.
         12    1    6    6    0    0  0.39511845736E+02  0.76089511339E+01 -0.15853443983E+01  0.40269037829E+02  0.00000000000E+00 0. -1.
         -5    1    3    3    0  503  0.26186947972E+02 -0.18201361470E+02  0.75457366880E+01  0.33107007501E+02  0.47000000000E+01 0.  1.
         11    1    4    4    0    0 -0.37774724422E+02  0.11590177517E+03  0.87501500450E+02  0.15005553597E+03  0.00000000000E+00 0. -1.
        -12    1    4    4    0    0 -0.37692952458E+02  0.97447612814E+01  0.80949682747E+02  0.89825220146E+02  0.00000000000E+00 0.  1.
</event>
<event>
12    1  0.8493057E-002  0.2465734E+03  0.7818608E-02  0.1115525E+00
         21   -1    0    0  503  502  0.00000000000E+00  0.00000000000E+00  0.35696500648E+03  0.35696500648E+03  0.00000000000E+00 0. -1.
         21   -1    0    0  501  503 -0.00000000000E+00 -0.00000000000E+00 -0.28647575378E+03  0.28647575378E+03  0.00000000000E+00 0. -1.
          6    2    1    2  501    0  0.17627506708E+03  0.17792861351E+02 -0.16973732788E+03  0.29934800241E+03  0.17149046878E+03 0.  0.
         24    2    3    3    0    0  0.46264633457E+02 -0.18098640403E+02 -0.13506699092E+02  0.92899432251E+02  0.77329790501E+02 0.  0.
         -6    2    1    2    0  502 -0.17627506708E+03 -0.17792861351E+02  0.24022658058E+03  0.34409275785E+03  0.17117689916E+03 0.  0.
        -24    2    5    5    0    0 -0.11324637068E+03  0.35177133620E+02  0.81584320649E+02  0.16529708237E+03  0.81270861092E+02 0.  0.
          5    1    3    3  501    0  0.13001043362E+03  0.35891501753E+02 -0.15623062879E+03  0.20644857016E+03  0.47000000000E+01 0. -1.
        -11    1    4    4    0    0 -0.54350874544E+01  0.20127633011E+01  0.24810735891E+02  0.25478697125E+02  0.00000000000E+00 0.  1.
         12    1    4    4    0    0  0.51699720911E+02 -0.20111403704E+02 -0.38317434983E+02  0.67420735126E+02  0.00000000000E+00 0. -1.
         -5    1    5    5    0  502 -0.63028696394E+02 -0.52969994971E+02  0.15864225993E+03  0.17879567548E+03  0.47000000000E+01 0.  1.
         13    1    6    6    0    0 -0.60628988752E+02  0.60081609608E+02  0.52664915719E+02  0.10029589941E+03  0.00000000000E+00 0. -1.
        -14    1    6    6    0    0 -0.52617381930E+02 -0.24904475988E+02  0.28919404931E+02  0.65001182965E+02  0.00000000000E+00 0.  1.
</event>
<event>
12    1  0.8493057E-002  0.1768811E+03  0.7818608E-02  0.1171087E+00
         21   -1    0    0  501  502  0.00000000000E+00  0.00000000000E+00  0.22265940201E+03  0.22265940201E+03  0.00000000000E+00 0.  1.
         21   -1    0    0  502  503 -0.00000000000E+00 -0.00000000000E+00 -0.14963000727E+03  0.14963000727E+03  0.00000000000E+00 0.  1.
         -6    2    1    2    0  503  0.22601377500E+02  0.33679322491E+02  0.84194655359E+02  0.19505630482E+03  0.17121069777E+03 0.  0.
        -24    2    3    3    0    0  0.54402047208E+02 -0.75198637566E+01  0.10017896105E+03  0.14040977181E+03  0.81626887063E+02 0.  0.
          6    2    1    2  501    0 -0.22601377500E+02 -0.33679322491E+02 -0.11165260611E+02  0.17723310446E+03  0.17216791584E+03 0.  0.
         24    2    5    5    0    0  0.18537921393E+02 -0.19997836425E+02 -0.66580877305E+02  0.10671640042E+03  0.78815029694E+02 0.  0.
          5    1    5    5  501    0 -0.41139298893E+02 -0.13681486066E+02  0.55415616694E+02  0.70516704035E+02  0.47000000000E+01 0. -1.
        -13    1    6    6    0    0  0.48065121265E+02 -0.10929782734E+02 -0.54671493633E+02  0.73611739884E+02  0.00000000000E+00 0.  1.
         14    1    6    6    0    0 -0.29527199872E+02 -0.90680536904E+01 -0.11909383672E+02  0.33104660540E+02  0.00000000000E+00 0. -1.
         -5    1    3    3    0  503 -0.31800669708E+02  0.41199186247E+02 -0.15984305694E+02  0.54646533008E+02  0.47000000000E+01 0.  1.
         13    1    4    4    0    0  0.65760972263E+02 -0.29425446508E+02  0.62534208258E+02  0.95398582682E+02  0.00000000000E+00 0. -1.
        -14    1    4    4    0    0 -0.11358925054E+02  0.21905582752E+02  0.37644752794E+02  0.45011189131E+02  0.00000000000E+00 0.  1.
</event>
<event>
12    1  0.8493057E-002  0.1806100E+03  0.7818608E-02  0.1167959E+00
         21   -1    0    0  503  502  0.00000000000E+00  0.00000000000E+00  0.66294269977E+02  0.66294269977E+02  0.00000000000E+00 0.  1.
         21   -1    0    0  501  503 -0.00000000000E+00 -0.00000000000E+00 -0.48454125505E+03  0.48454125505E+03  0.00000000000E+00 0.  1.
          6    2    1    2  501    0  0.48248384696E+02 -0.29033194287E+02 -0.19610701080E+03  0.26453824207E+03  0.16837959745E+03 0.  0.
         24    2    3    3    0    0  0.71814654412E+02 -0.72954221005E+02 -0.13545333713E+03  0.18589103115E+03  0.75684912437E+02 0.  0.
         -6    2    1    2    0  502 -0.48248384696E+02  0.29033194287E+02 -0.22213997427E+03  0.28629728295E+03  0.17160749710E+03 0.  0.
        -24    2    5    5    0    0 -0.17131371150E+02  0.79100839992E+02 -0.10427129029E+03  0.15442554853E+03  0.80151863942E+02 0.  0.
          5    1    3    3  501    0 -0.23566269716E+02  0.43921026719E+02 -0.60653673668E+02  0.78647210921E+02  0.47000000000E+01 0. -1.
        -11    1    4    4    0    0  0.67393828764E+02 -0.14818921758E+02 -0.72767210850E+02  0.10028257861E+03  0.00000000000E+00 0.  1.
         12    1    4    4    0    0  0.44208256476E+01 -0.58135299248E+02 -0.62686126284E+02  0.85608452541E+02  0.00000000000E+00 0. -1.
         -5    1    5    5    0  502 -0.31117013546E+02 -0.50067645705E+02 -0.11786868398E+03  0.13187173443E+03  0.47000000000E+01 0.  1.
         11    1    6    6    0    0  0.18042632205E+02  0.48481282465E+02 -0.93046162415E+02  0.10645919249E+03  0.00000000000E+00 0. -1.
        -12    1    6    6    0    0 -0.35174003355E+02  0.30619557527E+02 -0.11225127878E+02  0.47966356032E+02  0.00000000000E+00 0.  1.
</event>
<event>
12    1  0.8493057E-002  0.1937779E+03  0.7818608E-02  0.1155535E+00
         21   -1    0    0  503  502  0.00000000000E+00  0.00000000000E+00  0.18905935204E+03  0.18905935204E+03  0.00000000000E+00 0.  1.
         21   -1    0    0  501  503 -0.00000000000E+00 -0.00000000000E+00 -0.24413395597E+03  0.24413395597E+03  0.00000000000E+00 0.  1.
          6    2    1    2  501    0 -0.86096001732E+02  0.10923254087E+02 -0.12300485747E+03  0.22785363945E+03  0.17104165298E+03 0.  0.
         24    2    3    3    0    0 -0.10726429890E+03 -0.38649867309E+02 -0.92768029630E+02  0.16587019870E+03  0.76860740512E+02 0.  0.
         -6    2    1    2    0  502  0.86096001732E+02 -0.10923254087E+02  0.67930253548E+02  0.20533966855E+03  0.17325709550E+03 0.  0.
        -24    2    5    5    0    0  0.52113214859E+02 -0.25590356771E+02 -0.28723928588E+02  0.10173428921E+03  0.78448377959E+02 0.  0.
          5    1    3    3  501    0  0.21168297169E+02  0.49573121396E+02 -0.30236827844E+02  0.61983440757E+02  0.47000000000E+01 0. -1.
        -11    1    4    4    0    0 -0.37708490053E+02  0.11421490784E+02 -0.64579247993E+02  0.75649586550E+02  0.00000000000E+00 0.  1.
         12    1    4    4    0    0 -0.69555808848E+02 -0.50071358093E+02 -0.28188781638E+02  0.90220612146E+02  0.00000000000E+00 0. -1.
         -5    1    5    5    0  502  0.33982786873E+02  0.14667102683E+02  0.96654182136E+02  0.10360537934E+03  0.47000000000E+01 0.  1.
         11    1    6    6    0    0  0.31525611660E+02  0.27180945030E+01 -0.51162251593E+02  0.60156697186E+02  0.00000000000E+00 0. -1.
        -12    1    6    6    0    0  0.20587603199E+02 -0.28308451274E+02  0.22438323006E+02  0.41577592021E+02  0.00000000000E+00 0.  1.
</event>
<event>
12    1  0.8493057E-002  0.1793385E+03  0.7818608E-02  0.1168511E+00
         21   -1    0    0  501  502  0.00000000000E+00  0.00000000000E+00  0.15595656265E+03  0.15595656265E+03  0.00000000000E+00 0. -1.
         21   -1    0    0  502  503 -0.00000000000E+00 -0.00000000000E+00 -0.20639321561E+03  0.20639321561E+03  0.00000000000E+00 0. -1.
         -6    2    1    2    0  503 -0.93625855589E+01 -0.44933860703E+02 -0.33944110440E+02  0.18225451844E+03  0.17308320834E+03 0.  0.
        -24    2    3    3    0    0 -0.53448760679E+02 -0.90448322701E+01 -0.66802342537E+02  0.11642620678E+03  0.78446986231E+02 0.  0.
          6    2    1    2  501    0  0.93625855589E+01  0.44933860703E+02 -0.16492542520E+02  0.18009525983E+03  0.17336547755E+03 0.  0.
         24    2    5    5    0    0  0.19547283166E+02  0.92213671579E+02 -0.32688597082E+02  0.12887504150E+03  0.81576800856E+02 0.  0.
          5    1    5    5  501    0 -0.10184697607E+02 -0.47279810877E+02  0.16196054562E+02  0.51220218325E+02  0.47000000000E+01 0. -1.
        -13    1    6    6    0    0  0.21298040108E+02  0.22110940136E+02 -0.48113793567E+02  0.57073963570E+02  0.00000000000E+00 0.  1.
         14    1    6    6    0    0 -0.17507569418E+01  0.70102731443E+02  0.15425196486E+02  0.71801077933E+02  0.00000000000E+00 0. -1.
         -5    1    3    3    0  503  0.44086175120E+02 -0.35889028432E+02  0.32858232096E+02  0.65828311653E+02  0.47000000000E+01 0.  1.
         11    1    4    4    0    0 -0.63252001562E+02  0.16938269075E+02 -0.35151662069E+02  0.74319311132E+02  0.00000000000E+00 0. -1.
        -12    1    4    4    0    0  0.98032408836E+01 -0.25983101345E+02 -0.31650680468E+02  0.42106895652E+02  0.00000000000E+00 0.  1.
</event>
<event>
12    1  0.8493057E-002  0.3565824E+03  0.7818608E-02  0.1060134E+00
         21   -1    0    0  503  502  0.00000000000E+00  0.00000000000E+00  0.29233955253E+03  0.29233955253E+03  0.00000000000E+00 0.  1.
         21   -1    0    0  501  503 -0.00000000000E+00 -0.00000000000E+00 -0.54003471570E+03  0.54003471570E+03  0.00000000000E+00 0. -1.
          6    2    1    2  501    0  0.12691048872E+03  0.28322785072E+03 -0.30917238003E+03  0.47053114470E+03  0.17171985902E+03 0.  0.
         24    2    3    3    0    0  0.45494421584E+02  0.46825891843E+02 -0.95548190789E+02  0.14163625818E+03  0.81663739353E+02 0.  0.
         -6    2    1    2    0  502 -0.12691048872E+03 -0.28322785072E+03  0.61477216866E+02  0.36184312352E+03  0.17557536922E+03 0.  0.
        -24    2    5    5    0    0 -0.13593697416E+03 -0.29886567540E+03  0.57626482615E+02  0.34279221398E+03  0.79913312984E+02 0.  0.
          5    1    3    3  501    0  0.81416067141E+02  0.23640195888E+03 -0.21362418925E+03  0.32889488652E+03  0.47000000000E+01 0. -1.
        -11    1    4    4    0    0 -0.14934920282E+02  0.35493960600E+02 -0.17548179562E+02  0.42317983043E+02  0.00000000000E+00 0.  1.
         12    1    4    4    0    0  0.60429341866E+02  0.11331931243E+02 -0.78000011227E+02  0.99318275133E+02  0.00000000000E+00 0. -1.
         -5    1    5    5    0  502  0.90264854347E+01  0.15637824683E+02  0.38507342502E+01  0.19050909542E+02  0.47000000000E+01 0.  1.
         13    1    6    6    0    0 -0.59077500502E+02 -0.17451719398E+03 -0.36567503108E+01  0.18428177849E+03  0.00000000000E+00 0. -1.
        -14    1    6    6    0    0 -0.76859473657E+02 -0.12434848142E+03  0.61283232926E+02  0.15851043549E+03  0.00000000000E+00 0.  1.
</event>
<event>
12    1  0.8493057E-002  0.1918462E+03  0.7818608E-02  0.1157152E+00
         21   -1    0    0  501  502  0.00000000000E+00  0.00000000000E+00  0.24224228111E+03  0.24224228111E+03  0.00000000000E+00 0. -1.
         21   -1    0    0  502  503 -0.00000000000E+00 -0.00000000000E+00 -0.15296671586E+03  0.15296671586E+03  0.00000000000E+00 0.  1.
         -6    2    1    2    0  503  0.74427932251E+02  0.35383600757E+02  0.20476070410E+02  0.19139947414E+03  0.17153125937E+03 0.  0.
        -24    2    3    3    0    0 -0.19845977786E+02  0.65375225601E+01 -0.19013263697E+02  0.85092541867E+02  0.80266023008E+02 0.  0.
          6    2    1    2  501    0 -0.74427932251E+02 -0.35383600757E+02  0.68799494841E+02  0.20380952283E+03  0.17324385935E+03 0.  0.
         24    2    5    5    0    0 -0.57694157409E+00  0.36291357727E+02  0.21540129184E+02  0.90465770730E+02  0.80016767001E+02 0.  0.
          5    1    5    5  501    0 -0.73850990677E+02 -0.71674958484E+02  0.47259365657E+02  0.11334375210E+03  0.47000000000E+01 0. -1.
        -11    1    6    6    0    0 -0.25072790246E+02  0.51664019982E+02  0.22121251999E+02  0.61539950937E+02  0.00000000000E+00 0.  1.
         12    1    6    6    0    0  0.24495848672E+02 -0.15372662255E+02 -0.58112281515E+00  0.28925819793E+02  0.00000000000E+00 0. -1.
         -5    1    3    3    0  503  0.94273910037E+02  0.28846078197E+02  0.39489334108E+02  0.10630693227E+03  0.47000000000E+01 0.  1.
         11    1    4    4    0    0  0.13595810458E+02 -0.80800475094E+01  0.23961998441E+02  0.28710809794E+02  0.00000000000E+00 0. -1.
        -12    1    4    4    0    0 -0.33441788244E+02  0.14617570069E+02 -0.42975262138E+02  0.56381732073E+02  0.00000000000E+00 0.  1.
</event>
<event>
12    1  0.8493057E-002  0.1922660E+03  0.7818608E-02  0.1156747E+00
         21   -1    0    0  501  502  0.00000000000E+00  0.00000000000E+00  0.68719372709E+03  0.68719372709E+03  0.00000000000E+00 0. -1.
         21   -1    0    0  502  503 -0.00000000000E+00 -0.00000000000E+00 -0.66687639450E+02  0.66687639450E+02  0.00000000000E+00 0. -1.
         -6    2    1    2    0  503  0.62298611375E+02  0.53264851979E+02  0.14290997332E+03  0.23956100410E+03  0.17391938585E+03 0.  0.
        -24    2    3    3    0    0  0.72386092774E+02  0.86823267529E+02  0.14914059541E+03  0.20366065331E+03  0.80353707411E+02 0.  0.
          6    2    1    2  501    0 -0.62298611375E+02 -0.53264851979E+02  0.47759611432E+03  0.51432036244E+03  0.17236335276E+03 0.  0.
         24    2    5    5    0    0 -0.34130452456E+02 -0.19199152366E+02  0.45539571126E+03  0.46463268829E+03  0.83455293143E+02 0.  0.
          5    1    5    5  501    0 -0.28168158919E+02 -0.34065699613E+02  0.22200403055E+02  0.49687674154E+02  0.47000000000E+01 0. -1.
        -13    1    6    6    0    0  0.11542267331E+01  0.30744534309E+02  0.16962643306E+03  0.17239398314E+03  0.00000000000E+00 0.  1.
         14    1    6    6    0    0 -0.35284679189E+02 -0.49943686676E+02  0.28576927820E+03  0.29223870515E+03  0.00000000000E+00 0. -1.
         -5    1    3    3    0  503 -0.10087481399E+02 -0.33558415549E+02 -0.62306220913E+01  0.35900350789E+02  0.47000000000E+01 0.  1.
         13    1    4    4    0    0  0.30212418024E+02 -0.10901738071E+01  0.75937127551E+02  0.81733873165E+02  0.00000000000E+00 0. -1.
        -14    1    4    4    0    0  0.42173674749E+02  0.87913441336E+02  0.73203467863E+02  0.12192678015E+03  0.00000000000E+00 0.  1.
</event>
<event>
12    1  0.8493057E-002  0.2716047E+03  0.7818608E-02  0.1100883E+00
         21   -1    0    0  501  502  0.00000000000E+00  0.00000000000E+00  0.38211363228E+03  0.38211363228E+03  0.00000000000E+00 0.  1.
         21   -1    0    0  502  503 -0.00000000000E+00 -0.00000000000E+00 -0.12947353237E+04  0.12947353237E+04  0.00000000000E+00 0. -1.
         -6    2    1    2    0  503 -0.19456856397E+03 -0.70951297543E+02 -0.12301529466E+04  0.12590030394E+04  0.17006283634E+03 0.  0.
        -24    2    3    3    0    0 -0.13252501851E+03 -0.11203661769E+03 -0.80004485727E+03  0.82247988579E+03  0.79286219847E+02 0.  0.
          6    2    1    2  501    0  0.19456856397E+03  0.70951297543E+02  0.31753125527E+03  0.41784591656E+03  0.17572165262E+03 0.  0.
         24    2    5    5    0    0  0.10672499210E+03  0.19666952188E+02  0.76317040385E+02  0.15601970576E+03  0.82102649075E+02 0.  0.
          5    1    5    5  501    0  0.87843571869E+02  0.51284345354E+02  0.24121421489E+03  0.26182621080E+03  0.47000000000E+01 0. -1.
        -11    1    6    6    0    0  0.11670813909E+03  0.70655202180E+01  0.76880304596E+02  0.13993317170E+03  0.00000000000E+00 0.  1.
         12    1    6    6    0    0 -0.99831469924E+01  0.12601431970E+02 -0.56326421091E+00  0.16086534063E+02  0.00000000000E+00 0. -1.
         -5    1    3    3    0  503 -0.62043545461E+02  0.41085320147E+02 -0.43010808938E+03  0.43652315359E+03  0.47000000000E+01 0.  1.
         11    1    4    4    0    0 -0.12816717862E+03 -0.66329352709E+02 -0.63277683444E+03  0.64902459962E+03  0.00000000000E+00 0. -1.
        -12    1    4    4    0    0 -0.43578398856E+01 -0.45707264981E+02 -0.16726802282E+03  0.17345528617E+03  0.00000000000E+00 0.  1.
</event>
<event>
12    1  0.8493057E-002  0.2190990E+03  0.7818608E-02  0.1134752E+00
         21   -1    0    0  501  502  0.00000000000E+00  0.00000000000E+00  0.99304470464E+03  0.99304470464E+03  0.00000000000E+00 0.  1.
         21   -1    0    0  502  503 -0.00000000000E+00 -0.00000000000E+00 -0.10281280589E+03  0.10281280589E+03  0.00000000000E+00 0. -1.
         -6    2    1    2    0  503 -0.13459393997E+03 -0.17298196927E+02  0.44952154236E+02  0.22264378556E+03  0.17068919938E+03 0.  0.
        -24    2    3    3    0    0  0.74417535253E+00 -0.40930448874E+01  0.34125702548E+02  0.86151721483E+02  0.78995244962E+02 0.  0.
          6    2    1    2  501    0  0.13459393997E+03  0.17298196927E+02  0.84527974452E+03  0.87321372497E+03  0.17201629773E+03 0.  0.
         24    2    5    5    0    0  0.28536602818E+02 -0.23674733304E+02  0.54568755580E+03  0.55273828235E+03  0.79811462391E+02 0.  0.
          5    1    5    5  501    0  0.10605733716E+03  0.40972930232E+02  0.29959218872E+03  0.32047544262E+03  0.47000000000E+01 0. -1.
        -11    1    6    6    0    0 -0.18348444710E+01  0.26712325234E+02  0.23581073602E+03  0.23732597455E+03  0.00000000000E+00 0.  1.
         12    1    6    6    0    0  0.30371447289E+02 -0.50387058538E+02  0.30987681978E+03  0.31541230780E+03  0.00000000000E+00 0. -1.
         -5    1    3    3    0  503 -0.13533811533E+03 -0.13205152040E+02  0.10826451687E+02  0.13649206408E+03  0.47000000000E+01 0.  1.
         13    1    4    4    0    0  0.99077722221E+01 -0.17803794440E+02 -0.20612688195E+02  0.28983132362E+02  0.00000000000E+00 0. -1.
        -14    1    4    4    0    0 -0.91635968695E+01  0.13710749553E+02  0.54738390744E+02  0.57168589121E+02  0.00000000000E+00 0.  1.
</event>
<event>
12    1  0.8493057E-002  0.1808565E+03  0.7818608E-02  0.1167458E+00
         21   -1    0    0  503  502  0.00000000000E+00  0.00000000000E+00  0.27238538437E+02  0.27238538437E+02  0.00000000000E+00 0.  1.
         21   -1    0    0  501  503 -0.00000000000E+00 -0.00000000000E+00 -0.12593861005E+04  0.12593861005E+04  0.00000000000E+00 0. -1.
          6    2    1    2  501    0 -0.44290445273E+02  0.26053632322E+02 -0.76638723842E+03  0.78698303001E+03  0.17132558189E+03 0.  0.
         24    2    3    3    0    0 -0.89476945766E+01  0.19481099918E+02 -0.73407072217E+03  0.73841601001E+03  0.77063637337E+02 0.  0.
         -6    2    1    2    0  502  0.44290445273E+02 -0.26053632322E+02 -0.46576032366E+03  0.49964160894E+03  0.17340306512E+03 0.  0.
        -24    2    5    5    0    0 -0.42326332236E+02 -0.50676609946E+01 -0.26947551576E+03  0.28401996590E+03  0.78949907187E+02 0.  0.
          5    1    3    3  501    0 -0.35342750696E+02  0.65725324043E+01 -0.32316516249E+02  0.48567019998E+02  0.47000000000E+01 0. -1.
        -11    1    4    4    0    0  0.22541442648E+02 -0.46425289286E+01 -0.82817792296E+02  0.85956130860E+02  0.00000000000E+00 0.  1.
         12    1    4    4    0    0 -0.31489137225E+02  0.24123628847E+02 -0.65125292987E+03  0.65245987915E+03  0.00000000000E+00 0. -1.
         -5    1    5    5    0  502  0.86616777509E+02 -0.20985971328E+02 -0.19628480789E+03  0.21562164304E+03  0.47000000000E+01 0.  1.
         11    1    6    6    0    0  0.64903448864E+00  0.10524838702E+01 -0.21195126622E+03  0.21195487307E+03  0.00000000000E+00 0. -1.
        -12    1    6    6    0    0 -0.42975366724E+02 -0.61201448649E+01 -0.57524249546E+02  0.72065092827E+02  0.00000000000E+00 0.  1.
</event>
<event>
12    1  0.8493057E-002  0.2228097E+03  0.7818608E-02  0.1131828E+00
         21   -1    0    0  501  502  0.00000000000E+00  0.00000000000E+00  0.69156453277E+03  0.69156453277E+03  0.00000000000E+00 0. -1.
         21   -1    0    0  502  503 -0.00000000000E+00 -0.00000000000E+00 -0.14511932816E+03  0.14511932816E+03  0.00000000000E+00 0. -1.
         -6    2    1    2    0  503 -0.96944759533E+02  0.10276877654E+03 -0.24207325885E+02  0.22412089615E+03  0.17229182694E+03 0.  0.
        -24    2    3    3    0    0 -0.41908438439E+02  0.11507118669E+03 -0.59276483087E+02  0.15754551239E+03  0.79430421179E+02 0.  0.
          6    2    1    2  501    0  0.96944759533E+02 -0.10276877654E+03  0.57065253050E+03  0.61256296479E+03  0.17213183158E+03 0.  0.
         24    2    5    5    0    0 -0.71596101539E+01 -0.48716597966E+02  0.35430004181E+03  0.36641291470E+03  0.79406155324E+02 0.  0.
          5    1    5    5  501    0  0.10410436969E+03 -0.54052178572E+02  0.21635248869E+03  0.24615005009E+03  0.47000000000E+01 0. -1.
        -11    1    6    6    0    0  0.22690378117E+02 -0.42226431290E+02  0.10717470919E+03  0.11740674192E+03  0.00000000000E+00 0.  1.
         12    1    6    6    0    0 -0.29849988271E+02 -0.64901666755E+01  0.24712533262E+03  0.24900617279E+03  0.00000000000E+00 0. -1.
         -5    1    3    3    0  503 -0.55036321094E+02 -0.12302410154E+02  0.35069157201E+02  0.66575383754E+02  0.47000000000E+01 0.  1.
         11    1    4    4    0    0 -0.26770963617E+02  0.11947728592E+03 -0.32844113117E+02  0.12676845866E+03  0.00000000000E+00 0. -1.
        -12    1    4    4    0    0 -0.15137474822E+02 -0.44060992279E+01 -0.26432369970E+02  0.30777053735E+02  0.00000000000E+00 0.  1.
</event>
<event>
12    1  0.8493057E-002  0.2866883E+03  0.7818608E-02  0.1092231E+00
         21   -1    0    0  503  502  0.00000000000E+00  0.00000000000E+00  0.22132687606E+03  0.22132687606E+03  0.00000000000E+00 0. -1.
         21   -1    0    0  501  503 -0.00000000000E+00 -0.00000000000E+00 -0.41915485796E+03  0.41915485796E+03  0.00000000000E+00 0. -1.
          6    2    1    2  501    0  0.19802109679E+03 -0.11594436201E+03 -0.20843649931E+03  0.35359725152E+03  0.17008760150E+03 0.  0.
         24    2    3    3    0    0  0.57793853139E+02 -0.87821619281E+02 -0.14879568145E+03  0.19856923575E+03  0.78973541732E+02 0.  0.
         -6    2    1    2    0  502 -0.19802109679E+03  0.11594436201E+03  0.10608517404E+02  0.28688448250E+03  0.17185667228E+03 0.  0.
        -24    2    5    5    0    0 -0.13385445750E+03  0.43645165674E+01 -0.18812789283E+02  0.15476664573E+03  0.75251104930E+02 0.  0.
          5    1    3    3  501    0  0.14022724365E+03 -0.28122742729E+02 -0.59640817864E+02  0.15502801577E+03  0.47000000000E+01 0. -1.
        -13    1    4    4    0    0  0.14293496690E+02  0.14285839719E+02 -0.27948021315E+02  0.34488855585E+02  0.00000000000E+00 0.  1.
         14    1    4    4    0    0  0.43500356450E+02 -0.10210745900E+03 -0.12084766013E+03  0.16408038016E+03  0.00000000000E+00 0. -1.
         -5    1    5    5    0  502 -0.64166639285E+02  0.11157984544E+03  0.29421306687E+02  0.13211783677E+03  0.47000000000E+01 0.  1.
         11    1    6    6    0    0 -0.80055199088E+02  0.36052459092E+02  0.50024573087E+01  0.87941112608E+02  0.00000000000E+00 0. -1.
        -12    1    6    6    0    0 -0.53799258413E+02 -0.31687942525E+02 -0.23815246591E+02  0.66825533125E+02  0.00000000000E+00 0.  1.
</event>
<event>
12    1  0.8493057E-002  0.2313384E+03  0.7818608E-02  0.1125788E+00
         21   -1    0    0  501  502  0.00000000000E+00  0.00000000000E+00  0.20305719512E+03  0.20305719512E+03  0.00000000000E+00 0.  1.
         21   -1    0    0  502  503 -0.00000000000E+00 -0.00000000000E+00 -0.26375530663E+03  0.26375530663E+03  0.00000000000E+00 0.  1.
         -6    2    1    2    0  503  0.11975565015E+03  0.95947701218E+02 -0.42946092206E+02  0.23529094605E+03  0.17311870304E+03 0.  0.
        -24    2    3    3    0    0  0.85443476381E+02 -0.11850657762E+02 -0.18333286757E+02  0.11942165909E+03  0.80525756819E+02 0.  0.
          6    2    1    2  501    0 -0.11975565015E+03 -0.95947701218E+02 -0.17752019306E+02  0.23152155571E+03  0.17245207872E+03 0.  0.
         24    2    5    5    0    0 -0.13509994996E+03 -0.11332669081E+03  0.11245220684E+02  0.19409954691E+03  0.80332084454E+02 0.  0.
          5    1    5    5  501    0  0.15344299804E+02  0.17378989592E+02 -0.28997239990E+02  0.37422008802E+02  0.47000000000E+01 0. -1.
        -11    1    6    6    0    0 -0.75780446485E+02 -0.29341893418E+02 -0.25088410553E+02  0.85047346360E+02  0.00000000000E+00 0.  1.
         12    1    6    6    0    0 -0.59319503472E+02 -0.83984797392E+02  0.36333631237E+02  0.10905220055E+03  0.00000000000E+00 0. -1.
         -5    1    3    3    0  503  0.34312173772E+02  0.10779835898E+03 -0.24612805449E+02  0.11586928696E+03  0.47000000000E+01 0.  1.
         11    1    4    4    0    0  0.85147519491E+01 -0.34356997103E+02  0.54515839600E+01  0.35813740637E+02  0.00000000000E+00 0. -1.
        -12    1    4    4    0    0  0.76928724432E+02  0.22506339342E+02 -0.23784870717E+02  0.83607918454E+02  0.00000000000E+00 0.  1.
</event>
<event>
12    1  0.8493057E-002  0.2102397E+03  0.7818608E-02  0.1141740E+00
         21   -1    0    0  503  502  0.00000000000E+00  0.00000000000E+00  0.56625735780E+02  0.56625735780E+02  0.00000000000E+00 0. -1.
         21   -1    0    0  501  503 -0.00000000000E+00 -0.00000000000E+00 -0.25722171718E+04  0.25722171718E+04  0.00000000000E+00 0. -1.
          6    2    1    2  501    0  0.23896448073E+02 -0.11535428109E+03 -0.23585226021E+04  0.23678744887E+04  0.17413523287E+03 0.  0.
         24    2    3    3    0    0 -0.45677069898E+01 -0.88579447504E+02 -0.78789859912E+03  0.79675738660E+03  0.78555382642E+02 0.  0.
         -6    2    1    2    0  502 -0.23896448073E+02  0.11535428109E+03 -0.15706883391E+03  0.26096841885E+03  0.17191930274E+03 0.  0.
        -24    2    5    5    0    0 -0.12502227522E+02  0.27896949214E+02 -0.55071793771E+01  0.85549952645E+02  0.79711479126E+02 0.  0.
          5    1    3    3  501    0  0.28464155063E+02 -0.26774833581E+02 -0.15706240030E+04  0.15711171021E+04  0.47000000000E+01 0. -1.
        -11    1    4    4    0    0  0.79651156298E+01  0.26291798836E+00 -0.66667507469E+01  0.10390272296E+02  0.00000000000E+00 0.  1.
         12    1    4    4    0    0 -0.12532822620E+02 -0.88842365492E+02 -0.78123184837E+03  0.78636711430E+03  0.00000000000E+00 0. -1.
         -5    1    5    5    0  502 -0.11394220551E+02  0.87457331871E+02 -0.15156165453E+03  0.17541846620E+03  0.47000000000E+01 0.  1.
         13    1    6    6    0    0  0.32219169257E+02  0.18900117361E+02  0.75324579950E+01  0.38105475031E+02  0.00000000000E+00 0. -1.
        -14    1    6    6    0    0 -0.44721396779E+02  0.89968318530E+01 -0.13039637372E+02  0.47444477614E+02  0.00000000000E+00 0.  1.
</event>
<event>
12    1  0.8493057E-002  0.1819433E+03  0.7818608E-02  0.1166337E+00
         21   -1    0    0  503  502  0.00000000000E+00  0.00000000000E+00  0.16949683044E+03  0.16949683044E+03  0.00000000000E+00 0. -1.
         21   -1    0    0  501  503 -0.00000000000E+00 -0.00000000000E+00 -0.20496817847E+03  0.20496817847E+03  0.00000000000E+00 0. -1.
          6    2    1    2  501    0  0.33135509150E+02  0.45767119649E+02  0.26450577830E+02  0.18385587610E+03  0.17294727203E+03 0.  0.
         24    2    3    3    0    0  0.80498326468E+02  0.46979366771E+02 -0.12355187997E+02  0.12243370202E+03  0.78423971171E+02 0.  0.
         -6    2    1    2    0  502 -0.33135509150E+02 -0.45767119649E+02 -0.61921925862E+02  0.19060913280E+03  0.17118681432E+03 0.  0.
        -24    2    5    5    0    0  0.43854464521E+02 -0.46791349078E+02 -0.33042800281E+02  0.10824045558E+03  0.80694021884E+02 0.  0.
          5    1    3    3  501    0 -0.47362817318E+02 -0.12122471222E+01  0.38805765827E+02  0.61422174081E+02  0.47000000000E+01 0. -1.
        -11    1    4    4    0    0  0.46858436962E+01 -0.19836691159E+02  0.14833440060E+01  0.20436529958E+02  0.00000000000E+00 0.  1.
         12    1    4    4    0    0  0.75812482772E+02  0.66816057930E+02 -0.13838532003E+02  0.10199717207E+03  0.00000000000E+00 0. -1.
         -5    1    5    5    0  502 -0.76989973671E+02  0.10242294289E+01 -0.28879125581E+02  0.82368677215E+02  0.47000000000E+01 0.  1.
         11    1    6    6    0    0  0.33727070073E+02 -0.12396355601E+01 -0.48496333816E+02  0.59084230939E+02  0.00000000000E+00 0. -1.
        -12    1    6    6    0    0  0.10127394448E+02 -0.45551713518E+02  0.15453533535E+02  0.49156224646E+02  0.00000000000E+00 0.  1.
</event>
<event>
12    1  0.8493057E-002  0.2141358E+03  0.7818608E-02  0.1138820E+00
         21   -1    0    0  501  502  0.00000000000E+00  0.00000000000E+00  0.83910337890E+03  0.83910337890E+03  0.00000000000E+00 0. -1.
         21   -1    0    0  502  503 -0.00000000000E+00 -0.00000000000E+00 -0.91183530778E+02  0.91183530778E+02  0.00000000000E+00 0.  1.
         -6    2    1    2    0  503  0.12072344748E+03 -0.26067774700E+02  0.75650469522E+02  0.22473728097E+03  0.17184345280E+03 0.  0.
        -24    2    3    3    0    0  0.11889437082E+03  0.40095560771E+02  0.46885957628E+02  0.15241564088E+03  0.72723511701E+02 0.  0.
          6    2    1    2  501    0 -0.12072344748E+03  0.26067774700E+02  0.67226937860E+03  0.70554962871E+03  0.17492993315E+03 0.  0.
         24    2    5    5    0    0 -0.11960177811E+03 -0.25551532395E+01  0.30772646849E+03  0.33985282333E+03  0.80580692380E+02 0.  0.
          5    1    5    5  501    0 -0.11216693721E+01  0.28622927939E+02  0.36454291011E+03  0.36569680537E+03  0.47000000000E+01 0. -1.
        -11    1    6    6    0    0 -0.82668323894E+02  0.36601212807E+02  0.19200545134E+03  0.21222580874E+03  0.00000000000E+00 0.  1.
         12    1    6    6    0    0 -0.36933454215E+02 -0.39156366046E+02  0.11572101715E+03  0.12762701459E+03  0.00000000000E+00 0. -1.
         -5    1    3    3    0  503  0.18290766581E+01 -0.66163335470E+02  0.28764511895E+02  0.72321640098E+02  0.47000000000E+01 0.  1.
         11    1    4    4    0    0  0.50633816826E+02 -0.52719711243E+01  0.48676772496E+02  0.70434403998E+02  0.00000000000E+00 0. -1.
        -12    1    4    4    0    0  0.68260553996E+02  0.45367531895E+02 -0.17908148686E+01  0.81981236878E+02  0.00000000000E+00 0.  1.
</event>
<event>
12    1  0.8493057E-002  0.1862834E+03  0.7818608E-02  0.1162835E+00
         21   -1    0    0  503  502  0.00000000000E+00  0.00000000000E+00  0.66742117981E+03  0.66742117981E+03  0.00000000000E+00 0. -1.
         21   -1    0    0  501  503 -0.00000000000E+00 -0.00000000000E+00 -0.52781639913E+02  0.52781639913E+02  0.00000000000E+00 0.  1.
          6    2    1    2  501    0 -0.55135216221E+02 -0.12095386839E+02  0.23480316581E+03  0.29714588299E+03  0.17313855334E+03 0.  0.
         24    2    3    3    0    0 -0.68862222107E+02  0.44607091154E+02  0.19565389986E+03  0.22673028297E+03  0.79964832723E+02 0.  0.
         -6    2    1    2    0  502  0.55135216221E+02  0.12095386839E+02  0.37983637409E+03  0.42305693673E+03  0.17752551982E+03 0.  0.
        -24    2    5    5    0    0 -0.80618705866E+01  0.28443666866E+02  0.81136998546E+02  0.11727180794E+03  0.79343736128E+02 0.  0.
          5    1    3    3  501    0  0.13727005886E+02 -0.56702477992E+02  0.39149265946E+02  0.70415600013E+02  0.47000000000E+01 0. -1.
        -13    1    4    4    0    0 -0.26686733414E+02  0.28441894402E+02  0.17158936201E+02  0.42609296979E+02  0.00000000000E+00 0.  1.
         14    1    4    4    0    0 -0.42175488694E+02  0.16165196752E+02  0.17849496366E+03  0.18412098600E+03  0.00000000000E+00 0. -1.
         -5    1    5    5    0  502  0.63197086808E+02 -0.16348280028E+02  0.29869937554E+03  0.30578512879E+03  0.47000000000E+01 0.  1.
         13    1    6    6    0    0 -0.14967516546E+02 -0.21267386617E+02  0.54651351389E+02  0.60523536692E+02  0.00000000000E+00 0. -1.
        -14    1    6    6    0    0  0.69056459598E+01  0.49711053483E+02  0.26485647158E+02  0.56748271250E+02  0.00000000000E+00 0.  1.
</event>
<event>
12    1  0.8493057E-002  0.4203569E+03  0.7818608E-02  0.1036950E+00
         21   -1    0    0  503  502  0.00000000000E+00  0.00000000000E+00  0.16884770569E+04  0.16884770569E+04  0.00000000000E+00 0. -1.
         21   -1    0    0  501  503 -0.00000000000E+00 -0.00000000000E+00 -0.17945899782E+03  0.17945899782E+03  0.00000000000E+00 0.  1.
          6    2    1    2  501    0 -0.15327740618E+02 -0.38323477661E+03  0.15149297000E+03  0.44681877523E+03  0.17202634771E+03 0.  0.
         24    2    3    3    0    0 -0.85869658088E+01 -0.13553243741E+03  0.10463298431E+03  0.19458904830E+03  0.92054650841E+02 0.  0.
         -6    2    1    2    0  502  0.15327740618E+02  0.38323477661E+03  0.13575250890E+04  0.14211172795E+04  0.17203523172E+03 0.  0.
        -24    2    5    5    0    0 -0.11130736805E+02  0.72015367707E+02  0.34598300213E+03  0.36244024887E+03  0.79678038045E+02 0.  0.
          5    1    3    3  501    0 -0.67407748093E+01 -0.24770233920E+03  0.46859985691E+02  0.25222972693E+03  0.47000000000E+01 0. -1.
        -11    1    4    4    0    0 -0.18186967943E+01 -0.11458011104E+03  0.12137799529E+03  0.16692671220E+03  0.00000000000E+00 0.  1.
         12    1    4    4    0    0 -0.67682690145E+01 -0.20952326364E+02 -0.16745010986E+02  0.27662336098E+02  0.00000000000E+00 0. -1.
         -5    1    5    5    0  502  0.26458477423E+02  0.31121940890E+03  0.10115420869E+04  0.10586770306E+04  0.47000000000E+01 0.  1.
         13    1    6    6    0    0 -0.27793439341E+02  0.78402580220E+02  0.32185281499E+03  0.33242845000E+03  0.00000000000E+00 0. -1.
        -14    1    6    6    0    0  0.16662702536E+02 -0.63872125123E+01  0.24130187144E+02  0.30011798865E+02  0.00000000000E+00 0.  1.
</event>
<event>
12    1  0.8493057E-002  0.1854643E+03  0.7818608E-02  0.1162642E+00
         21   -1    0    0  501  502  0.00000000000E+00  0.00000000000E+00  0.58805882974E+02  0.58805882974E+02  0.00000000000E+00 0.  1.
         21   -1    0    0  502  503 -0.00000000000E+00 -0.00000000000E+00 -0.63052833022E+03  0.63052833022E+03  0.00000000000E+00 0.  1.
         -6    2    1    2    0  503 -0.50708393471E+02  0.42314861686E+02 -0.19275493991E+03  0.26741789367E+03  0.17319345920E+03 0.  0.
        -24    2    3    3    0    0 -0.22326085538E+02 -0.48450847772E+01 -0.19509861651E+03  0.21212595236E+03  0.80075093240E+02 0.  0.
          6    2    1    2  501    0  0.50708393471E+02 -0.42314861686E+02 -0.37896750734E+03  0.42191631952E+03  0.17330643489E+03 0.  0.
         24    2    5    5    0    0 -0.12654144419E+02  0.92443339731E+01 -0.28908999492E+03  0.30037118756E+03  0.80026496065E+02 0.  0.
          5    1    5    5  501    0  0.63362537891E+02 -0.51559195659E+02 -0.89877512422E+02  0.12154513196E+03  0.47000000000E+01 0. -1.
        -11    1    6    6    0    0  0.77950144059E+01 -0.30462944556E+02 -0.69461568525E+02  0.76247378594E+02  0.00000000000E+00 0.  1.
         12    1    6    6    0    0 -0.20449158825E+02  0.39707278529E+02 -0.21962842639E+03  0.22412380897E+03  0.00000000000E+00 0. -1.
         -5    1    3    3    0  503 -0.28382307933E+02  0.47159946463E+02  0.23436766058E+01  0.55291941312E+02  0.47000000000E+01 0.  1.
         13    1    4    4    0    0 -0.52680571959E+02 -0.12557726911E+01 -0.12496080488E+03  0.13561719059E+03  0.00000000000E+00 0. -1.
        -14    1    4    4    0    0  0.30354486420E+02 -0.35893120861E+01 -0.70137811636E+02  0.76508761774E+02  0.00000000000E+00 0.  1.
</event>
<event>
12    1  0.8493057E-002  0.1758019E+03  0.7818608E-02  0.1172091E+00
         21   -1    0    0  501  502  0.00000000000E+00  0.00000000000E+00  0.61632159922E+03  0.61632159922E+03  0.00000000000E+00 0.  1.
         21   -1    0    0  502  503 -0.00000000000E+00 -0.00000000000E+00 -0.11673400087E+03  0.11673400087E+03  0.00000000000E+00 0.  1.
         -6    2    1    2    0  503  0.31153402304E+02 -0.15431138689E+02 -0.27217345985E+02  0.17789626176E+03  0.17233003659E+03 0.  0.
        -24    2    3    3    0    0 -0.52167780697E+01  0.30512866278E+02  0.35262854186E+02  0.92108692582E+02  0.79260914592E+02 0.  0.
          6    2    1    2  501    0 -0.31153402304E+02  0.15431138689E+02  0.52680494434E+03  0.55515933832E+03  0.17166766450E+03 0.  0.
         24    2    5    5    0    0 -0.67961541747E+02 -0.36375521171E+02  0.31110584500E+03  0.33024388623E+03  0.79575297074E+02 0.  0.
          5    1    5    5  501    0  0.36808139443E+02  0.51806659860E+02  0.21569909934E+03  0.22491545209E+03  0.47000000000E+01 0. -1.
        -13    1    6    6    0    0  0.12331059066E+02 -0.26238675789E+02  0.10141288963E+03  0.10547557683E+03  0.00000000000E+00 0.  1.
         14    1    6    6    0    0 -0.80292600813E+02 -0.10136845382E+02  0.20969295537E+03  0.22476830940E+03  0.00000000000E+00 0. -1.
         -5    1    3    3    0  503  0.36370180374E+02 -0.45944004967E+02 -0.62480200172E+02  0.85787569183E+02  0.47000000000E+01 0.  1.
         11    1    4    4    0    0  0.26457209155E+02 -0.12107982289E+02  0.14021778412E+01  0.29129937420E+02  0.00000000000E+00 0. -1.
        -12    1    4    4    0    0 -0.31673987225E+02  0.42620848567E+02  0.33860676345E+02  0.62978755162E+02  0.00000000000E+00 0.  1.
</event>
<event>
12    1  0.8493057E-002  0.2132481E+03  0.7818608E-02  0.1139140E+00
         21   -1    0    0  503  502  0.00000000000E+00  0.00000000000E+00  0.86941988691E+02  0.86941988691E+02  0.00000000000E+00 0. -1.
         21   -1    0    0  501  503 -0.00000000000E+00 -0.00000000000E+00 -0.52349048796E+03  0.52349048796E+03  0.00000000000E+00 0.  1.
          6    2    1    2  501    0  0.85638804019E+02  0.89790957107E+02 -0.23730772630E+03  0.31904502049E+03  0.17343110276E+03 0.  0.
         24    2    3    3    0    0  0.19718870268E+02 -0.15330955761E+02 -0.72195977430E+02  0.11245355444E+03  0.82520728905E+02 0.  0.
         -6    2    1    2    0  502 -0.85638804019E+02 -0.89790957107E+02 -0.19924077296E+03  0.29138745616E+03  0.17266540841E+03 0.  0.
        -24    2    5    5    0    0 -0.27596193383E+02 -0.96291603626E+02 -0.19500214699E+03  0.23264003915E+03  0.77858382126E+02 0.  0.
          5    1    3    3  501    0  0.65919933751E+02  0.10512191287E+03 -0.16511174887E+03  0.20659146606E+03  0.47000000000E+01 0. -1.
        -13    1    4    4    0    0 -0.39624191823E+01  0.23218032588E+02  0.39487319285E+01  0.23882426319E+02  0.00000000000E+00 0.  1.
         14    1    4    4    0    0  0.23681289450E+02 -0.38548988348E+02 -0.76144709358E+02  0.88571128117E+02  0.00000000000E+00 0. -1.
         -5    1    5    5    0  502 -0.58042610636E+02  0.65006465184E+01 -0.42386259701E+01  0.58747417004E+02  0.47000000000E+01 0.  1.
         13    1    6    6    0    0 -0.32007190570E+02 -0.13985605155E+02 -0.22754563771E+02  0.41687259110E+02  0.00000000000E+00 0. -1.
        -14    1    6    6    0    0  0.44109971864E+01 -0.82305998471E+02 -0.17224758322E+03  0.19095278004E+03  0.00000000000E+00 0.  1.
</event>
<event>
12    1  0.8493057E-002  0.1790273E+03  0.7818608E-02  0.1168989E+00
         21   -1    0    0  503  502  0.00000000000E+00  0.00000000000E+00  0.85563451963E+02  0.85563451963E+02  0.00000000000E+00 0. -1.
         21   -1    0    0  501  503 -0.00000000000E+00 -0.00000000000E+00 -0.87136908456E+03  0.87136908456E+03  0.00000000000E+00 0. -1.
          6    2    1    2  501    0 -0.41010440653E+02 -0.24194329988E+02 -0.75538631882E+03  0.77631131347E+03  0.17257909180E+03 0.  0.
         24    2    3    3    0    0 -0.44837861004E+02  0.47627481045E+02 -0.49585048242E+03  0.50695288673E+03  0.82793222630E+02 0.  0.
         -6    2    1    2    0  502  0.41010440653E+02  0.24194329988E+02 -0.30419313785E+02  0.18062122305E+03  0.17155602502E+03 0.  0.
        -24    2    5    5    0    0  0.79451876799E+02  0.15744189011E+02 -0.67144095685E+02  0.12658467523E+03  0.70390838907E+02 0.  0.
          5    1    3    3  501    0  0.38274203507E+01 -0.71821811034E+02 -0.25953583640E+03  0.26935842675E+03  0.47000000000E+01 0. -1.
        -11    1    4    4    0    0 -0.45729408046E+01 -0.12424559689E+02 -0.12444820063E+02  0.18170168338E+02  0.00000000000E+00 0.  1.
         12    1    4    4    0    0 -0.40264920199E+02  0.60052040734E+02 -0.48340566236E+03  0.48878271839E+03  0.00000000000E+00 0. -1.
         -5    1    5    5    0  502 -0.38441436146E+02  0.84501409772E+01  0.36724781900E+02  0.54036547828E+02  0.47000000000E+01 0.  1.
         13    1    6    6    0    0  0.32332787874E+02  0.41480257350E+02 -0.24496330283E+02  0.58018024086E+02  0.00000000000E+00 0. -1.
        -14    1    6    6    0    0  0.47119088925E+02 -0.25736068339E+02 -0.42647765402E+02  0.68566651139E+02  0.00000000000E+00 0.  1.
</event>
<event>
12    1  0.8493057E-002  0.1846951E+03  0.7818608E-02  0.1163384E+00
         21   -1    0    0  501  502  0.00000000000E+00  0.00000000000E+00  0.10163948045E+03  0.10163948045E+03  0.00000000000E+00 0.  1.
         21   -1    0    0  502  503 -0.00000000000E+00 -0.00000000000E+00 -0.37909712766E+03  0.37909712766E+03  0.00000000000E+00 0.  1.
         -6    2    1    2    0  503 -0.66469907483E+02 -0.93530276258E+00 -0.56905265369E+02  0.19306378956E+03  0.17209385294E+03 0.  0.
        -24    2    3    3    0    0 -0.34511104992E+02  0.15126742506E+02 -0.10238900593E+03  0.13501023661E+03  0.79526226785E+02 0.  0.
          6    2    1    2  501    0  0.66469907483E+02  0.93530276258E+00 -0.22055238184E+03  0.28767281855E+03  0.17231707404E+03 0.  0.
         24    2    5    5    0    0  0.10718610502E+03  0.23445821460E+02 -0.18310308770E+03  0.22776395589E+03  0.79442502631E+02 0.  0.
          5    1    5    5  501    0 -0.40716197536E+02 -0.22510518698E+02 -0.37449294142E+02  0.59908862662E+02  0.47000000000E+01 0. -1.
        -11    1    6    6    0    0  0.90058858726E+01  0.19387761870E+02 -0.89626282773E+02  0.92140446354E+02  0.00000000000E+00 0.  1.
         12    1    6    6    0    0  0.98180219146E+02  0.40580595901E+01 -0.93476804923E+02  0.13562350953E+03  0.00000000000E+00 0. -1.
         -5    1    3    3    0  503 -0.31958802491E+02 -0.16062045268E+02  0.45483740560E+02  0.58053552951E+02  0.47000000000E+01 0.  1.
         13    1    4    4    0    0 -0.57954102773E+02  0.25721993455E+01 -0.51415071740E+02  0.77516474634E+02  0.00000000000E+00 0. -1.
        -14    1    4    4    0    0  0.23442997781E+02  0.12554543160E+02 -0.50973934189E+02  0.57493761972E+02  0.00000000000E+00 0.  1.
</event>
<event>
12    1  0.8493057E-002  0.2714942E+03  0.7818608E-02  0.1101047E+00
         21   -1    0    0  501  502  0.00000000000E+00  0.00000000000E+00  0.70461567828E+02  0.70461567828E+02  0.00000000000E+00 0. -1.
         21   -1    0    0  502  503 -0.00000000000E+00 -0.00000000000E+00 -0.13167379100E+04  0.13167379100E+04  0.00000000000E+00 0.  1.
         -6    2    1    2    0  503  0.15798060921E+03 -0.13046957953E+03 -0.95098594580E+03  0.98898096446E+03  0.17812606457E+03 0.  0.
        -24    2    3    3    0    0  0.17529023180E+03 -0.87648490190E+02 -0.62893540182E+03  0.66360132219E+03  0.79987823739E+02 0.  0.
          6    2    1    2  501    0 -0.15798060921E+03  0.13046957953E+03 -0.29529039634E+03  0.39821851334E+03  0.17146831231E+03 0.  0.
         24    2    5    5    0    0 -0.24829708050E+02  0.17945096081E+02 -0.14294422077E+03  0.16665347050E+03  0.80011174859E+02 0.  0.
          5    1    5    5  501    0 -0.13315090116E+03  0.11252448345E+03 -0.15234617557E+03  0.23156504284E+03  0.47000000000E+01 0. -1.
        -11    1    6    6    0    0  0.16069099221E+02 -0.12602427205E+02 -0.72422615293E+01  0.21667659617E+02  0.00000000000E+00 0.  1.
         12    1    6    6    0    0 -0.40898807271E+02  0.30547523286E+02 -0.13570195924E+03  0.14498581088E+03  0.00000000000E+00 0. -1.
         -5    1    3    3    0  503 -0.17309622593E+02 -0.42821089340E+02 -0.32205054398E+03  0.32537964227E+03  0.47000000000E+01 0.  1.
         11    1    4    4    0    0  0.13904536597E+02 -0.40803335316E+02 -0.14811525869E+03  0.15426074733E+03  0.00000000000E+00 0. -1.
        -12    1    4    4    0    0  0.16138569520E+03 -0.46845154874E+02 -0.48082014313E+03  0.50934057485E+03  0.00000000000E+00 0.  1.
</event>
<event>
12    1  0.8493057E-002  0.2114968E+03  0.7818608E-02  0.1141140E+00
         21   -1    0    0  503  502  0.00000000000E+00  0.00000000000E+00  0.61567187323E+02  0.61567187323E+02  0.00000000000E+00 0.  1.
         21   -1    0    0  501  503 -0.00000000000E+00 -0.00000000000E+00 -0.10834133532E+04  0.10834133532E+04  0.00000000000E+00 0.  1.
          6    2    1    2  501    0 -0.33590453249E+02 -0.11169247681E+03 -0.84847222462E+03  0.87443467509E+03  0.17642946785E+03 0.  0.
         24    2    3    3    0    0 -0.53998017685E+02 -0.98865655609E+02 -0.36121584022E+03  0.38655982417E+03  0.79129075946E+02 0.  0.
         -6    2    1    2    0  502  0.33590453249E+02  0.11169247681E+03 -0.17337394121E+03  0.27054586539E+03  0.17185172056E+03 0.  0.
        -24    2    5    5    0    0  0.44137945772E+02 -0.41217042328E+01 -0.75957209717E+02  0.11876877982E+03  0.79820916106E+02 0.  0.
          5    1    3    3  501    0  0.20407564436E+02 -0.12826821202E+02 -0.48725638440E+03  0.48787485093E+03  0.47000000000E+01 0. -1.
        -13    1    4    4    0    0 -0.27280064526E+02 -0.67632302984E+02 -0.32054798518E+03  0.32873901675E+03  0.00000000000E+00 0.  1.
         14    1    4    4    0    0 -0.26717953159E+02 -0.31233352625E+02 -0.40667855040E+02  0.57820807421E+02  0.00000000000E+00 0. -1.
         -5    1    5    5    0  502 -0.10547492523E+02  0.11581418104E+03 -0.97416731495E+02  0.15177708557E+03  0.47000000000E+01 0.  1.
         11    1    6    6    0    0  0.60315568607E+02 -0.17904725563E+02 -0.74432101861E+02  0.97461196387E+02  0.00000000000E+00 0. -1.
        -12    1    6    6    0    0 -0.16177622835E+02  0.13783021330E+02 -0.15251078563E+01  0.21307583428E+02  0.00000000000E+00 0.  1.
</event>
<event>
12    1  0.8493057E-002  0.1742473E+03  0.7818608E-02  0.1174377E+00
         21   -1    0    0  503  502  0.00000000000E+00  0.00000000000E+00  0.16623047287E+03  0.16623047287E+03  0.00000000000E+00 0. -1.
         21   -1    0    0  501  503 -0.00000000000E+00 -0.00000000000E+00 -0.20098866072E+03  0.20098866072E+03  0.00000000000E+00 0. -1.
          6    2    1    2  501    0 -0.61179893125E+01 -0.47748540502E+01 -0.77919641261E+02  0.18770580886E+03  0.17059241238E+03 0.  0.
         24    2    3    3    0    0  0.14766404860E+02  0.93563640211E+01 -0.11589446191E+03  0.14187976553E+03  0.79954695337E+02 0.  0.
         -6    2    1    2    0  502  0.61179893125E+01  0.47748540502E+01  0.43161453410E+02  0.17951332473E+03  0.17407439120E+03 0.  0.
        -24    2    5    5    0    0 -0.60242652859E+02 -0.12873383246E+02  0.44617750044E+02  0.11066998149E+03  0.80387809800E+02 0.  0.
          5    1    3    3  501    0 -0.20884394172E+02 -0.14131218071E+02  0.37974820645E+02  0.45826043328E+02  0.47000000000E+01 0. -1.
        -11    1    4    4    0    0 -0.18832612200E+02  0.18554644219E+02 -0.67141197868E+01  0.27276757668E+02  0.00000000000E+00 0.  1.
         12    1    4    4    0    0  0.33599017060E+02 -0.91982801981E+01 -0.10918034212E+03  0.11460300786E+03  0.00000000000E+00 0. -1.
         -5    1    5    5    0  502  0.66360642172E+02  0.17648237296E+02 -0.14562966339E+01  0.68843343244E+02  0.47000000000E+01 0.  1.
         13    1    6    6    0    0 -0.43742003041E+02  0.12893227047E+02 -0.11252249353E+02  0.46970323070E+02  0.00000000000E+00 0. -1.
        -14    1    6    6    0    0 -0.16500649818E+02 -0.25766610292E+02  0.55869999397E+02  0.63699658421E+02  0.00000000000E+00 0.  1.
</event>
<event>
12    1  0.8493057E-002  0.1898593E+03  0.7818608E-02  0.1159007E+00
         21   -1    0    0  501  502  0.00000000000E+00  0.00000000000E+00  0.87924223038E+02  0.87924223038E+02  0.00000000000E+00 0. -1.
         21   -1    0    0  502  503 -0.00000000000E+00 -0.00000000000E+00 -0.42693950481E+03  0.42693950481E+03  0.00000000000E+00 0. -1.
         -6    2    1    2    0  503  0.77148289210E+02  0.82897008654E-01 -0.22731174352E+03  0.29617089903E+03  0.17347826172E+03 0.  0.
        -24    2    3    3    0    0 -0.16264464768E+02  0.27580068448E+02 -0.76197328922E+02  0.11633849555E+03  0.81874413719E+02 0.  0.
          6    2    1    2  501    0 -0.77148289210E+02 -0.82897008654E-01 -0.11170353825E+03  0.21869282881E+03  0.17145555552E+03 0.  0.
         24    2    5    5    0    0 -0.25368396627E+02 -0.55157569433E+02 -0.92561790129E+02  0.14057193955E+03  0.86642207862E+02 0.  0.
          5    1    5    5  501    0 -0.51779892583E+02  0.55074672425E+02 -0.19141748118E+02  0.78120889265E+02  0.47000000000E+01 0. -1.
        -13    1    6    6    0    0  0.32326760306E+02 -0.16018327687E+02 -0.31653920103E+02  0.47995592627E+02  0.00000000000E+00 0.  1.
         14    1    6    6    0    0 -0.57695156933E+02 -0.39139241746E+02 -0.60907870027E+02  0.92576346921E+02  0.00000000000E+00 0. -1.
         -5    1    3    3    0  503  0.93412753978E+02 -0.27497171439E+02 -0.15111441460E+03  0.17983240348E+03  0.47000000000E+01 0.  1.
         11    1    4    4    0    0  0.33216414003E+02  0.16158180914E+02 -0.28313262141E+02  0.46540925890E+02  0.00000000000E+00 0. -1.
        -12    1    4    4    0    0 -0.49480878770E+02  0.11421887535E+02 -0.47884066781E+02  0.69797569658E+02  0.00000000000E+00 0.  1.
</event>
<event>
12    1  0.8493057E-002  0.1801338E+03  0.7818608E-02  0.1168339E+00
         21   -1    0    0  501  502  0.00000000000E+00  0.00000000000E+00  0.10007616060E+03  0.10007616060E+03  0.00000000000E+00 0. -1.
         21   -1    0    0  502  503 -0.00000000000E+00 -0.00000000000E+00 -0.64875982755E+03  0.64875982755E+03  0.00000000000E+00 0. -1.
         -6    2    1    2    0  503  0.48737964145E+02 -0.60976518152E+01 -0.54217319444E+03  0.57131425030E+03  0.17330790323E+03 0.  0.
        -24    2    3    3    0    0  0.96150244179E+02  0.74407720056E+01 -0.44911811387E+03  0.46589816406E+03  0.77806069996E+02 0.  0.
          6    2    1    2  501    0 -0.48737964145E+02  0.60976518152E+01 -0.65104725091E+01  0.17752173785E+03  0.17046703685E+03 0.  0.
         24    2    5    5    0    0 -0.58585392958E+02 -0.57599839337E+02 -0.62169312880E+01  0.11289574927E+03  0.77180374512E+02 0.  0.
          5    1    5    5  501    0  0.98474288133E+01  0.63697491153E+02 -0.29354122113E+00  0.64625988579E+02  0.47000000000E+01 0. -1.
        -13    1    6    6    0    0 -0.54125660660E+02 -0.17770888299E+02 -0.31903005512E+02  0.65293134199E+02  0.00000000000E+00 0.  1.
         14    1    6    6    0    0 -0.44597322978E+01 -0.39828951038E+02  0.25686074224E+02  0.47602615075E+02  0.00000000000E+00 0. -1.
         -5    1    3    3    0  503 -0.47412280034E+02 -0.13538423821E+02 -0.93055080570E+02  0.10541608624E+03  0.47000000000E+01 0.  1.
         11    1    4    4    0    0  0.10395870056E+02  0.33215192254E+01 -0.23437685819E+03  0.23463081268E+03  0.00000000000E+00 0. -1.
        -12    1    4    4    0    0  0.85754374123E+02  0.41192527802E+01 -0.21474125568E+03  0.23126735138E+03  0.00000000000E+00 0.  1.
</event>
<event>
12    1  0.8493057E-002  0.1959865E+03  0.7818608E-02  0.1153624E+00
         21   -1    0    0  501  502  0.00000000000E+00  0.00000000000E+00  0.20969820993E+03  0.20969820993E+03  0.00000000000E+00 0. -1.
         21   -1    0    0  502  503 -0.00000000000E+00 -0.00000000000E+00 -0.18422659358E+03  0.18422659358E+03  0.00000000000E+00 0. -1.
         -6    2    1    2    0  503  0.93179967754E+02  0.16224170430E+02 -0.12448255148E+02  0.19430355354E+03  0.16927250742E+03 0.  0.
        -24    2    3    3    0    0  0.81058119510E+02  0.65649213398E+02 -0.26982646786E+02  0.14117058245E+03  0.91218595488E+02 0.  0.
          6    2    1    2  501    0 -0.93179967754E+02 -0.16224170430E+02  0.37919871499E+02  0.19962124996E+03  0.17165371153E+03 0.  0.
         24    2    5    5    0    0 -0.88312737084E+02  0.43636546933E+01 -0.34262311295E+02  0.12425609892E+03  0.80296270961E+02 0.  0.
          5    1    5    5  501    0 -0.48672306704E+01 -0.20587825123E+02  0.72182182794E+02  0.75365151036E+02  0.47000000000E+01 0. -1.
        -13    1    6    6    0    0  0.10299307080E+02 -0.10045306629E+02  0.74715417470E+01  0.16211349348E+02  0.00000000000E+00 0.  1.
         14    1    6    6    0    0 -0.98612044164E+02  0.14408961322E+02 -0.41733853042E+02  0.10804474957E+03  0.00000000000E+00 0. -1.
         -5    1    3    3    0  503  0.12121848245E+02 -0.49425042968E+02  0.14534391638E+02  0.53132971097E+02  0.47000000000E+01 0.  1.
         11    1    4    4    0    0  0.66865883636E+02  0.49939534027E+02  0.23270293361E+02  0.86640117765E+02  0.00000000000E+00 0. -1.
        -12    1    4    4    0    0  0.14192235874E+02  0.15709679371E+02 -0.50252940147E+02  0.54530464683E+02  0.00000000000E+00 0.  1.
</event>
<event>
12    1  0.8493057E-002  0.2535368E+03  0.7818608E-02  0.1111339E+00
         21   -1    0    0  503  502  0.00000000000E+00  0.00000000000E+00  0.60279903832E+03  0.60279903832E+03  0.00000000000E+00 0.  1.
         21   -1    0    0  501  503 -0.00000000000E+00 -0.00000000000E+00 -0.38140226891E+03  0.38140226891E+03  0.00000000000E+00 0.  1.
          6    2    1    2  501    0  0.18453014205E+03  0.16854019404E+02 -0.30739315142E+03  0.39846135848E+03  0.17304760435E+03 0.  0.
         24    2    3    3    0    0  0.16317887079E+03  0.40791658230E+02 -0.31502194908E+03  0.36515706611E+03  0.76220412442E+02 0.  0.
         -6    2    1    2    0  502 -0.18453014205E+03 -0.16854019404E+02  0.52878992083E+03  0.58573994874E+03  0.17069585785E+03 0.  0.
        -24    2    5    5    0    0 -0.15072017814E+03 -0.46110674076E+02  0.26869555967E+03  0.32178875589E+03  0.80671762520E+02 0.  0.
          5    1    3    3  501    0  0.21351271257E+02 -0.23937638826E+02  0.76287976620E+01  0.33304292375E+02  0.47000000000E+01 0. -1.
        -13    1    4    4    0    0  0.11318765699E+03  0.10203311333E+02 -0.13848987142E+03  0.17915076819E+03  0.00000000000E+00 0.  1.
         14    1    4    4    0    0  0.49991213804E+02  0.30588346897E+02 -0.17653207766E+03  0.18600629792E+03  0.00000000000E+00 0. -1.
         -5    1    5    5    0  502 -0.33809963907E+02  0.29256654672E+02  0.26009436116E+03  0.26395119285E+03  0.47000000000E+01 0.  1.
         11    1    6    6    0    0 -0.58579877462E+02 -0.27308209248E+02  0.18476138332E+03  0.19573990166E+03  0.00000000000E+00 0. -1.
        -12    1    6    6    0    0 -0.92140300678E+02 -0.18802464828E+02  0.83934176349E+02  0.12604885423E+03  0.00000000000E+00 0.  1.
</event>
<event>
12    1  0.8493057E-002  0.1928960E+03  0.7818608E-02  0.1156395E+00
         21   -1    0    0  501  502  0.00000000000E+00  0.00000000000E+00  0.76228517650E+03  0.76228517650E+03  0.00000000000E+00 0. -1.
         21   -1    0    0  502  503 -0.00000000000E+00 -0.00000000000E+00 -0.51858543452E+02  0.51858543452E+02  0.00000000000E+00 0.  1.
         -6    2    1    2    0  503  0.58642210553E+01  0.81594941719E+02  0.24944358318E+03  0.31532675091E+03  0.17469039769E+03 0.  0.
        -24    2    3    3    0    0 -0.51284016251E+02  0.75783853478E+02  0.10812491351E+03  0.16270713824E+03  0.80058560702E+02 0.  0.
          6    2    1    2  501    0 -0.58642210553E+01 -0.81594941719E+02  0.46098304987E+03  0.49881696904E+03  0.17210715482E+03 0.  0.
         24    2    5    5    0    0 -0.43885925587E+02 -0.28520027447E+02  0.39338142721E+03  0.40471773459E+03  0.79423743186E+02 0.  0.
          5    1    5    5  501    0  0.38021704531E+02 -0.53074914272E+02  0.67601622654E+02  0.94099234460E+02  0.47000000000E+01 0. -1.
        -13    1    6    6    0    0  0.59322162333E+01  0.18488753642E+02  0.36710675436E+02  0.41529494237E+02  0.00000000000E+00 0.  1.
         14    1    6    6    0    0 -0.49818141820E+02 -0.47008781088E+02  0.35667075178E+03  0.36318824035E+03  0.00000000000E+00 0. -1.
         -5    1    3    3    0  503  0.57148237306E+02  0.58110882407E+01  0.14131866967E+03  0.15261961266E+03  0.47000000000E+01 0.  1.
         13    1    4    4    0    0 -0.58217151661E+02  0.32016989194E+02  0.96029837778E+02  0.11677351621E+03  0.00000000000E+00 0. -1.
        -14    1    4    4    0    0  0.69331354102E+01  0.43766864284E+02  0.12095075736E+02  0.45933622031E+02  0.00000000000E+00 0.  1.
</event>
<event>
12    1  0.8493057E-002  0.1935959E+03  0.7818608E-02  0.1155475E+00
         21   -1    0    0  501  502  0.00000000000E+00  0.00000000000E+00  0.54533730163E+03  0.54533730163E+03  0.00000000000E+00 0.  1.
         21   -1    0    0  502  503 -0.00000000000E+00 -0.00000000000E+00 -0.11743129026E+03  0.11743129026E+03  0.00000000000E+00 0.  1.
         -6    2    1    2    0  503  0.22647382061E+02  0.86673462050E+02 -0.54148327579E+00  0.19261262056E+03  0.17051139393E+03 0.  0.
        -24    2    3    3    0    0  0.15550964243E+02  0.58085934241E+02  0.60214235399E+02  0.12492988093E+03  0.91465363718E+02 0.  0.
          6    2    1    2  501    0 -0.22647382061E+02 -0.86673462050E+02  0.42844749465E+03  0.47015597133E+03  0.17162222689E+03 0.  0.
         24    2    5    5    0    0 -0.67414456366E+02 -0.80312212963E+02  0.38742349980E+03  0.40892187473E+03  0.78264749163E+02 0.  0.
          5    1    5    5  501    0  0.44767074305E+02 -0.63612490872E+01  0.41023994856E+02  0.61234096594E+02  0.47000000000E+01 0. -1.
        -11    1    6    6    0    0  0.64777597358E+01 -0.96928597564E+01  0.14973894862E+03  0.15019209578E+03  0.00000000000E+00 0.  1.
         12    1    6    6    0    0 -0.73892216102E+02 -0.70619353206E+02  0.23768455118E+03  0.25872977895E+03  0.00000000000E+00 0. -1.
         -5    1    3    3    0  503  0.70964178174E+01  0.28587527810E+02 -0.60755718675E+02  0.67682739630E+02  0.47000000000E+01 0.  1.
         13    1    4    4    0    0  0.76135452670E+01 -0.22185972763E+02 -0.12930223346E+01  0.23491602026E+02  0.00000000000E+00 0. -1.
        -14    1    4    4    0    0  0.79374189765E+01  0.80271907004E+02  0.61507257733E+02  0.10143827891E+03  0.00000000000E+00 0.  1.
</event>
<event>
12    1  0.8493057E-002  0.1762239E+03  0.7818608E-02  0.1171584E+00
         21   -1    0    0  501  502  0.00000000000E+00  0.00000000000E+00  0.45793871185E+02  0.45793871185E+02  0.00000000000E+00 0. -1.
         21   -1    0    0  502  503 -0.00000000000E+00 -0.00000000000E+00 -0.68545786432E+03  0.68545786432E+03  0.00000000000E+00 0. -1.
         -6    2    1    2    0  503 -0.16552818427E+02 -0.31842992117E+02 -0.27888195065E+03  0.32973143620E+03  0.17221993403E+03 0.  0.
        -24    2    3    3    0    0 -0.22338706839E+02 -0.41990159489E+02 -0.65439567132E+02  0.11591800680E+03  0.83020816889E+02 0.  0.
          6    2    1    2  501    0  0.16552818427E+02  0.31842992117E+02 -0.36078204249E+03  0.40152029931E+03  0.17253085703E+03 0.  0.
         24    2    5    5    0    0 -0.56804604921E+02  0.28743317246E+02 -0.19234254937E+03  0.21771368249E+03  0.79690964466E+02 0.  0.
          5    1    5    5  501    0  0.73357423349E+02  0.30996748712E+01 -0.16843949312E+03  0.18380661682E+03  0.47000000000E+01 0. -1.
        -13    1    6    6    0    0 -0.41209712594E+02  0.29906232447E+02 -0.19527386105E+03  0.20180313169E+03  0.00000000000E+00 0.  1.
         14    1    6    6    0    0 -0.15594892327E+02 -0.11629152017E+01  0.29313116797E+01  0.15910550796E+02  0.00000000000E+00 0. -1.
         -5    1    3    3    0  503  0.57858884120E+01  0.10147167372E+02 -0.21344238352E+03  0.21381342940E+03  0.47000000000E+01 0.  1.
         13    1    4    4    0    0 -0.69817139151E+01 -0.63243865543E+02 -0.63069859818E+02  0.89589832434E+02  0.00000000000E+00 0. -1.
        -14    1    4    4    0    0 -0.15356992924E+02  0.21253706054E+02 -0.23697073141E+01  0.26328174366E+02  0.00000000000E+00 0.  1.
</event>
<event>
12    1  0.8493057E-002  0.2222547E+03  0.7818608E-02  0.1132931E+00
         21   -1    0    0  501  502  0.00000000000E+00  0.00000000000E+00  0.46712212603E+03  0.46712212603E+03  0.00000000000E+00 0. -1.
         21   -1    0    0  502  503 -0.00000000000E+00 -0.00000000000E+00 -0.13714540686E+03  0.13714540686E+03  0.00000000000E+00 0.  1.
         -6    2    1    2    0  503 -0.13823521304E+03 -0.64702247388E+00  0.15176186232E+02  0.21891506973E+03  0.16906832455E+03 0.  0.
        -24    2    3    3    0    0 -0.14967019313E+03 -0.43863054774E+02  0.14091308890E+02  0.17395229428E+03  0.75734413662E+02 0.  0.
          6    2    1    2  501    0  0.13823521304E+03  0.64702247388E+00  0.31480053294E+03  0.38535246316E+03  0.17403376845E+03 0.  0.
         24    2    5    5    0    0  0.12372746977E+03 -0.44422327101E+02  0.29780355663E+03  0.33482813150E+03  0.78365103104E+02 0.  0.
          5    1    5    5  501    0  0.14507743272E+02  0.45069349575E+02  0.16996976316E+02  0.50524331662E+02  0.47000000000E+01 0. -1.
        -11    1    6    6    0    0  0.10079017670E+03 -0.38396314971E+02  0.14784400543E+03  0.18300488153E+03  0.00000000000E+00 0.  1.
         12    1    6    6    0    0  0.22937293062E+02 -0.60260121297E+01  0.14995955120E+03  0.15182324997E+03  0.00000000000E+00 0. -1.
         -5    1    3    3    0  503  0.11434980094E+02  0.43216032300E+02  0.10848773419E+01  0.44962775452E+02  0.47000000000E+01 0.  1.
         11    1    4    4    0    0 -0.11306165817E+03 -0.53911190461E+01  0.32470805610E+02  0.11775549214E+03  0.00000000000E+00 0. -1.
        -12    1    4    4    0    0 -0.36608534961E+02 -0.38471935728E+02 -0.18379496720E+02  0.56196802136E+02  0.00000000000E+00 0.  1.
</event>
<event>
12    1  0.8493057E-002  0.2097191E+03  0.7818608E-02  0.1143169E+00
         21   -1    0    0  501  502  0.00000000000E+00  0.00000000000E+00  0.37764035268E+02  0.37764035268E+02  0.00000000000E+00 0.  1.
         21   -1    0    0  502  503 -0.00000000000E+00 -0.00000000000E+00 -0.23260434565E+04  0.23260434565E+04  0.00000000000E+00 0. -1.
         -6    2    1    2    0  503 -0.81437673264E+02  0.68660480439E+02 -0.28643362993E+03  0.35100628624E+03  0.17266972063E+03 0.  0.
        -24    2    3    3    0    0 -0.15680449366E+02  0.10440728030E+03 -0.19399577530E+03  0.23197396641E+03  0.70928157903E+02 0.  0.
          6    2    1    2  501    0  0.81437673264E+02 -0.68660480439E+02 -0.20018457913E+04  0.20128012056E+04  0.18065371471E+03 0.  0.
         24    2    5    5    0    0 -0.22751557749E+02 -0.62296271445E+02 -0.11123818218E+04  0.11172208674E+04  0.79941792936E+02 0.  0.
          5    1    5    5  501    0  0.10418923101E+03 -0.63642089944E+01 -0.88946396958E+03  0.89558033821E+03  0.47000000000E+01 0. -1.
        -11    1    6    6    0    0 -0.26605532143E+02 -0.51130733829E+02 -0.10930320155E+04  0.10945506810E+04  0.00000000000E+00 0.  1.
         12    1    6    6    0    0  0.38539743942E+01 -0.11165537616E+02 -0.19349806253E+02  0.22670186389E+02  0.00000000000E+00 0. -1.
         -5    1    3    3    0  503 -0.65757223897E+02 -0.35746799866E+02 -0.92437854633E+02  0.11903231983E+03  0.47000000000E+01 0.  1.
         11    1    4    4    0    0  0.18759622093E+02  0.85973871548E+02 -0.12941208727E+03  0.15649574544E+03  0.00000000000E+00 0. -1.
        -12    1    4    4    0    0 -0.34440071459E+02  0.18433408757E+02 -0.64583688027E+02  0.75478220963E+02  0.00000000000E+00 0.  1.
</event>
<event>
12    1  0.8493057E-002  0.2478949E+03  0.7818608E-02  0.1114737E+00
         21   -1    0    0  501  502  0.00000000000E+00  0.00000000000E+00  0.81935173032E+02  0.81935173032E+02  0.00000000000E+00 0.  1.
         21   -1    0    0  502  503 -0.00000000000E+00 -0.00000000000E+00 -0.16219616209E+04  0.16219616209E+04  0.00000000000E+00 0. -1.
         -6    2    1    2    0  503  0.83892804866E+02  0.15701035073E+03 -0.13948829583E+04  0.14166364661E+04  0.17166874134E+03 0.  0.
        -24    2    3    3    0    0  0.10675924480E+02  0.52576446136E+02 -0.32067084759E+03  0.33486897684E+03  0.80182174474E+02 0.  0.
          6    2    1    2  501    0 -0.83892804866E+02 -0.15701035073E+03 -0.14514348956E+03  0.28726032784E+03  0.17251553681E+03 0.  0.
         24    2    5    5    0    0 -0.12124200735E+03 -0.14389323777E+03 -0.99221507220E+02  0.22644963765E+03  0.77650773836E+02 0.  0.
          5    1    5    5  501    0  0.37349202480E+02 -0.13117112963E+02 -0.45921982342E+02  0.60810690183E+02  0.47000000000E+01 0. -1.
        -11    1    6    6    0    0 -0.10736285547E+03 -0.73245729039E+02 -0.50095423695E+02  0.13928844543E+03  0.00000000000E+00 0.  1.
         12    1    6    6    0    0 -0.13879151881E+02 -0.70647508730E+02 -0.49126083525E+02  0.87161192220E+02  0.00000000000E+00 0. -1.
         -5    1    3    3    0  503  0.73216880386E+02  0.10443390460E+03 -0.10742121107E+04  0.10817674892E+04  0.47000000000E+01 0.  1.
         11    1    4    4    0    0  0.23448841287E+02  0.70009680351E+02 -0.26672353606E+03  0.27675376816E+03  0.00000000000E+00 0. -1.
        -12    1    4    4    0    0 -0.12772916807E+02 -0.17433234214E+02 -0.53947311531E+02  0.58115208683E+02  0.00000000000E+00 0.  1.
</event>
<event>
12    1  0.8493057E-002  0.1838826E+03  0.7818608E-02  0.1164180E+00
         21   -1    0    0  503  502  0.00000000000E+00  0.00000000000E+00  0.10958529475E+03  0.10958529475E+03  0.00000000000E+00 0.  1.
         21   -1    0    0  501  503 -0.00000000000E+00 -0.00000000000E+00 -0.41541730110E+03  0.41541730110E+03  0.00000000000E+00 0. -1.
          6    2    1    2  501    0  0.53519882615E+02  0.33325475288E+02 -0.28652984094E+03  0.34045875409E+03  0.17273635502E+03 0.  0.
         24    2    3    3    0    0  0.28792682558E+01  0.63863877392E+02 -0.95072753143E+02  0.14002180067E+03  0.80500877339E+02 0.  0.
         -6    2    1    2    0  502 -0.53519882615E+02 -0.33325475288E+02 -0.19302165413E+02  0.18454384176E+03  0.17236267230E+03 0.  0.
        -24    2    5    5    0    0  0.29738696811E+02 -0.61072857296E+00  0.18028251234E+02  0.87497998430E+02  0.80287725148E+02 0.  0.
          5    1    3    3  501    0  0.50640614359E+02 -0.30538402104E+02 -0.19145708780E+03  0.20043695341E+03  0.47000000000E+01 0. -1.
        -13    1    4    4    0    0  0.31212198203E+02  0.28590974927E+02 -0.97353595859E+01  0.43432964327E+02  0.00000000000E+00 0.  1.
         14    1    4    4    0    0 -0.28332929947E+02  0.35272902465E+02 -0.85337393557E+02  0.96588836347E+02  0.00000000000E+00 0. -1.
         -5    1    5    5    0  502 -0.83258579425E+02 -0.32714746715E+02 -0.37330416647E+02  0.97045843330E+02  0.47000000000E+01 0.  1.
         11    1    6    6    0    0 -0.20607473862E+02  0.18267693128E+02 -0.66588513099E+01  0.28332258857E+02  0.00000000000E+00 0. -1.
        -12    1    6    6    0    0  0.50346170672E+02 -0.18878421701E+02  0.24687102544E+02  0.59165739573E+02  0.00000000000E+00 0.  1.
</event>
<event>
12    1  0.8493057E-002  0.2081771E+03  0.7818608E-02  0.1143036E+00
         21   -1    0    0  501  502  0.00000000000E+00  0.00000000000E+00  0.11359470586E+04  0.11359470586E+04  0.00000000000E+00 0. -1.
         21   -1    0    0  502  503 -0.00000000000E+00 -0.00000000000E+00 -0.15309379026E+03  0.15309379026E+03  0.00000000000E+00 0. -1.
         -6    2    1    2    0  503 -0.78627874669E+02  0.87569321153E+02 -0.67055466125E+02  0.21871020016E+03  0.17171775515E+03 0.  0.
        -24    2    3    3    0    0 -0.17403968778E+02  0.97916048589E+02 -0.87316095102E+02  0.15322734356E+03  0.77227376302E+02 0.  0.
          6    2    1    2  501    0  0.78627874669E+02 -0.87569321153E+02  0.10499087344E+04  0.10703306487E+04  0.17160599684E+03 0.  0.
         24    2    5    5    0    0  0.82501786289E+02 -0.12063792409E+03  0.93932615102E+03  0.95474891376E+03  0.88610478217E+02 0.  0.
          5    1    5    5  501    0 -0.38739116203E+01  0.33068602937E+02  0.11058258340E+03  0.11558173490E+03  0.47000000000E+01 0. -1.
        -13    1    6    6    0    0 -0.25868001895E+01 -0.18931728802E+02  0.28450237579E+02  0.34271240260E+02  0.00000000000E+00 0.  1.
         14    1    6    6    0    0  0.85088586479E+02 -0.10170619529E+03  0.91087591345E+03  0.92047767350E+03  0.00000000000E+00 0. -1.
         -5    1    3    3    0  503 -0.61223905891E+02 -0.10346727436E+02  0.20260628977E+02  0.65482856595E+02  0.47000000000E+01 0.  1.
         11    1    4    4    0    0 -0.20219639132E+02  0.32589742156E+02 -0.78343732322E+02  0.87227664732E+02  0.00000000000E+00 0. -1.
        -12    1    4    4    0    0  0.28156703544E+01  0.65326306433E+02 -0.89723627799E+01  0.65999678829E+02  0.00000000000E+00 0.  1.
</event>
<event>
12    1  0.8493057E-002  0.2237012E+03  0.7818608E-02  0.1133572E+00
         21   -1    0    0  501  502  0.00000000000E+00  0.00000000000E+00  0.38041819725E+03  0.38041819725E+03  0.00000000000E+00 0.  1.
         21   -1    0    0  502  503 -0.00000000000E+00 -0.00000000000E+00 -0.12812029752E+03  0.12812029752E+03  0.00000000000E+00 0.  1.
         -6    2    1    2    0  503 -0.49025432767E+02  0.13351711206E+03  0.16755873237E+03  0.26932533953E+03  0.15565955623E+03 0.  0.
        -24    2    3    3    0    0 -0.90067160568E+02  0.11215421546E+03  0.13673205371E+03  0.21352954319E+03  0.78794351599E+02 0.  0.
          6    2    1    2  501    0  0.49025432767E+02 -0.13351711206E+03  0.84739167351E+02  0.23921315524E+03  0.17266121418E+03 0.  0.
         24    2    5    5    0    0 -0.28501987290E+02 -0.11133756913E+03  0.73936017696E+02  0.15771940684E+03  0.78742993348E+02 0.  0.
          5    1    5    5  501    0  0.77527420058E+02 -0.22179542930E+02  0.10803149655E+02  0.81493748397E+02  0.47000000000E+01 0. -1.
        -11    1    6    6    0    0  0.82295195471E+01 -0.10029535540E+03  0.48617116805E+02  0.11176093840E+03  0.00000000000E+00 0.  1.
         12    1    6    6    0    0 -0.36731506838E+02 -0.11042213735E+02  0.25318900891E+02  0.45958468437E+02  0.00000000000E+00 0. -1.
         -5    1    3    3    0  503  0.41041727801E+02  0.21362896605E+02  0.30826678664E+02  0.55795796344E+02  0.47000000000E+01 0.  1.
         11    1    4    4    0    0 -0.58278209020E+02  0.30068089083E+02  0.96673048270E+02  0.11681659938E+03  0.00000000000E+00 0. -1.
        -12    1    4    4    0    0 -0.31788951547E+02  0.82086126376E+02  0.40059005441E+02  0.96712943812E+02  0.00000000000E+00 0.  1.
</event>
<event>
12    1  0.8493057E-002  0.1789950E+03  0.7818608E-02  0.1168844E+00
         21   -1    0    0  503  502  0.00000000000E+00  0.00000000000E+00  0.15222398620E+03  0.15222398620E+03  0.00000000000E+00 0. -1.
         21   -1    0    0  501  503 -0.00000000000E+00 -0.00000000000E+00 -0.21759401819E+03  0.21759401819E+03  0.00000000000E+00 0.  1.
          6    2    1    2  501    0  0.43415210668E+02 -0.20762061612E+02 -0.66836595377E+02  0.19081702190E+03  0.17212803853E+03 0.  0.
         24    2    3    3    0    0 -0.41325276325E+02 -0.24281975525E+02 -0.24679199917E+02  0.95987301237E+02  0.79417292145E+02 0.  0.
         -6    2    1    2    0  502 -0.43415210668E+02  0.20762061612E+02  0.14665633875E+01  0.17900098249E+03  0.17240434219E+03 0.  0.
        -24    2    5    5    0    0 -0.75622063464E+02 -0.30692539078E+02 -0.20637411677E+02  0.11422804823E+03  0.77210205313E+02 0.  0.
          5    1    3    3  501    0  0.84740486993E+02  0.35199139131E+01 -0.42157395460E+02  0.94829720667E+02  0.47000000000E+01 0. -1.
        -11    1    4    4    0    0 -0.15573489865E+02 -0.51516425357E+02 -0.22827520961E+02  0.58459998130E+02  0.00000000000E+00 0.  1.
         12    1    4    4    0    0 -0.25751786460E+02  0.27234449832E+02 -0.18516789554E+01  0.37527303107E+02  0.00000000000E+00 0. -1.
         -5    1    5    5    0  502  0.32206852796E+02  0.51454600690E+02  0.22103975065E+02  0.64772934262E+02  0.47000000000E+01 0.  1.
         13    1    6    6    0    0 -0.49480029112E+02 -0.22246492131E+02  0.25954303454E+02  0.60139883279E+02  0.00000000000E+00 0. -1.
        -14    1    6    6    0    0 -0.26142034352E+02 -0.84460469470E+01 -0.46591715131E+02  0.54088164953E+02  0.00000000000E+00 0.  1.
</event>
<event>
12    1  0.8493057E-002  0.1967475E+03  0.7818608E-02  0.1152562E+00
         21   -1    0    0  501  502  0.00000000000E+00  0.00000000000E+00  0.53532299361E+03  0.53532299361E+03  0.00000000000E+00 0.  1.
         21   -1    0    0  502  503 -0.00000000000E+00 -0.00000000000E+00 -0.73695923015E+02  0.73695923015E+02  0.00000000000E+00 0.  1.
         -6    2    1    2    0  503 -0.60574070679E+02  0.73382858191E+02  0.18767057066E+03  0.27173308875E+03  0.17194291644E+03 0.  0.
        -24    2    3    3    0    0 -0.13667910799E+02 -0.35709965637E+01  0.19509167143E+02  0.80886471729E+02  0.77216901673E+02 0.  0.
          6    2    1    2  501    0  0.60574070679E+02 -0.73382858191E+02  0.27395649994E+03  0.33728582788E+03  0.17220715407E+03 0.  0.
         24    2    5    5    0    0  0.84823971737E+01 -0.76420336082E+02  0.26084910810E+03  0.28327969451E+03  0.79329120116E+02 0.  0.
          5    1    5    5  501    0  0.52091673505E+02  0.30374778913E+01  0.13107391846E+02  0.54006133369E+02  0.47000000000E+01 0. -1.
        -13    1    6    6    0    0  0.31897925376E+02 -0.45170876328E+01  0.52100307360E+02  0.61256213978E+02  0.00000000000E+00 0.  1.
         14    1    6    6    0    0 -0.23415528202E+02 -0.71903248449E+02  0.20874880074E+03  0.22202348053E+03  0.00000000000E+00 0. -1.
         -5    1    3    3    0  503 -0.46906159880E+02  0.76953854754E+02  0.16816140351E+03  0.19084661702E+03  0.47000000000E+01 0.  1.
         13    1    4    4    0    0  0.24058034581E+02  0.16488080009E+02  0.24205602738E+02  0.37901939452E+02  0.00000000000E+00 0. -1.
        -14    1    4    4    0    0 -0.37725945381E+02 -0.20059076573E+02 -0.46964355944E+01  0.42984532277E+02  0.00000000000E+00 0.  1.
</event>
<event>
12    1  0.8493057E-002  0.1877673E+03  0.7818608E-02  0.1163203E+00
         21   -1    0    0  503  502  0.00000000000E+00  0.00000000000E+00  0.73349362505E+02  0.73349362505E+02  0.00000000000E+00 0.  1.
         21   -1    0    0  501  503 -0.00000000000E+00 -0.00000000000E+00 -0.46731916909E+03  0.46731916909E+03  0.00000000000E+00 0.  1.
          6    2    1    2  501    0  0.12261203505E+02  0.34985829107E+02 -0.25222882989E+03  0.31444545766E+03  0.18407123042E+03 0.  0.
         24    2    3    3    0    0  0.16315561614E+02  0.94908547041E+02 -0.19439252086E+03  0.23093319158E+03  0.79169798249E+02 0.  0.
         -6    2    1    2    0  502 -0.12261203505E+02 -0.34985829107E+02 -0.14174097670E+03  0.22622307393E+03  0.17237177656E+03 0.  0.
        -24    2    5    5    0    0 -0.48506043257E+01 -0.58474886342E+02 -0.20647126679E+02  0.10256037421E+03  0.81544379473E+02 0.  0.
          5    1    3    3  501    0 -0.40543581092E+01 -0.59922717934E+02 -0.57836309035E+02  0.83512266088E+02  0.47000000000E+01 0. -1.
        -13    1    4    4    0    0  0.37761594683E+02  0.56984645180E+02 -0.16438138557E+03  0.17802928900E+03  0.00000000000E+00 0.  1.
         14    1    4    4    0    0 -0.21446033070E+02  0.37923901861E+02 -0.30011135285E+02  0.52903902577E+02  0.00000000000E+00 0. -1.
         -5    1    5    5    0  502 -0.74105991789E+01  0.23489057235E+02 -0.12109385002E+03  0.12366269972E+03  0.47000000000E+01 0.  1.
         11    1    6    6    0    0 -0.20481648449E+02 -0.70420379534E+01 -0.39950685637E+02  0.45443872025E+02  0.00000000000E+00 0. -1.
        -12    1    6    6    0    0  0.15631044123E+02 -0.51432848388E+02  0.19303558958E+02  0.57116502188E+02  0.00000000000E+00 0.  1.
</event>
<event>
12    1  0.8493057E-002  0.2048688E+03  0.7818608E-02  0.1145734E+00
         21   -1    0    0  501  502  0.00000000000E+00  0.00000000000E+00  0.20327497488E+04  0.20327497488E+04  0.00000000000E+00 0. -1.
         21   -1    0    0  502  503 -0.00000000000E+00 -0.00000000000E+00 -0.20933147495E+02  0.20933147495E+02  0.00000000000E+00 0.  1.
         -6    2    1    2    0  503  0.80633896070E+02  0.75444712950E+02  0.11302504242E+04  0.11486675951E+04  0.17256156213E+03 0.  0.
        -24    2    3    3    0    0  0.98432986489E+02  0.25552997033E+02  0.99455939854E+03  0.10029276370E+04  0.79833823616E+02 0.  0.
          6    2    1    2  501    0 -0.80633896070E+02 -0.75444712950E+02  0.88156617709E+03  0.90501530118E+03  0.17233699798E+03 0.  0.
         24    2    5    5    0    0 -0.41445817553E+02 -0.40602326988E+02  0.22196574627E+03  0.24331709527E+03  0.81043886797E+02 0.  0.
          5    1    5    5  501    0 -0.39188078517E+02 -0.34842385962E+02  0.65960043083E+03  0.66169820591E+03  0.47000000000E+01 0. -1.
        -13    1    6    6    0    0 -0.38120555694E+02 -0.45956407526E+02  0.73405096684E+02  0.94622811089E+02  0.00000000000E+00 0.  1.
         14    1    6    6    0    0 -0.33252618593E+01  0.53540805383E+01  0.14856064958E+03  0.14869428418E+03  0.00000000000E+00 0. -1.
         -5    1    3    3    0  503 -0.17799090419E+02  0.49891715917E+02  0.13569102571E+03  0.14573995812E+03  0.47000000000E+01 0.  1.
         11    1    4    4    0    0  0.87021948346E+02  0.42700576321E+02  0.93282299918E+03  0.93784588633E+03  0.00000000000E+00 0. -1.
        -12    1    4    4    0    0  0.11411038143E+02 -0.17147579287E+02  0.61736399357E+02  0.65081750687E+02  0.00000000000E+00 0.  1.
</event>
<event>
12    1  0.8493057E-002  0.2297676E+03  0.7818608E-02  0.1126891E+00
         21   -1    0    0  503  502  0.00000000000E+00  0.00000000000E+00  0.10002852153E+03  0.10002852153E+03  0.00000000000E+00 0. -1.
         21   -1    0    0  501  503 -0.00000000000E+00 -0.00000000000E+00 -0.66101126390E+03  0.66101126390E+03  0.00000000000E+00 0.  1.
          6    2    1    2  501    0  0.13654875463E+03 -0.66277371894E+02 -0.45229117749E+03  0.50730705447E+03  0.17249604594E+03 0.  0.
         24    2    3    3    0    0  0.11542620034E+03  0.98793523871E+01 -0.35271444628E+03  0.38009217975E+03  0.81497086823E+02 0.  0.
         -6    2    1    2    0  502 -0.13654875463E+03  0.66277371894E+02 -0.10869156488E+03  0.25373273095E+03  0.17183768523E+03 0.  0.
        -24    2    5    5    0    0 -0.12586303320E+03  0.10827718699E+03 -0.75345443196E+02  0.19884900895E+03  0.79363342930E+02 0.  0.
          5    1    3    3  501    0  0.21122554291E+02 -0.76156724282E+02 -0.99576731209E+02  0.12721487473E+03  0.47000000000E+01 0. -1.
        -11    1    4    4    0    0 -0.27226655841E+01  0.20296698437E+01 -0.10982357897E+03  0.10987607095E+03  0.00000000000E+00 0.  1.
         12    1    4    4    0    0  0.11814886592E+03  0.78496825434E+01 -0.24289086731E+03  0.27021610880E+03  0.00000000000E+00 0. -1.
         -5    1    5    5    0  502 -0.10685721430E+02 -0.41999815091E+02 -0.33346121683E+02  0.54883722008E+02  0.47000000000E+01 0.  1.
         13    1    6    6    0    0 -0.45514904616E+02  0.86347306990E+02 -0.22362463868E+02  0.10013762408E+03  0.00000000000E+00 0. -1.
        -14    1    6    6    0    0 -0.80348128581E+02  0.21929879996E+02 -0.52982979329E+02  0.98711384863E+02  0.00000000000E+00 0.  1.
</event>
<event>
12    1  0.8493057E-002  0.2267621E+03  0.7818608E-02  0.1130114E+00
         21   -1    0    0  501  502  0.00000000000E+00  0.00000000000E+00  0.54292252778E+02  0.54292252778E+02  0.00000000000E+00 0.  1.
         21   -1    0    0  502  503 -0.00000000000E+00 -0.00000000000E+00 -0.18024968541E+04  0.18024968541E+04  0.00000000000E+00 0.  1.
         -6    2    1    2    0  503 -0.13198804476E+03 -0.48862365400E+02 -0.15299780865E+04  0.15466913006E+04  0.17779949260E+03 0.  0.
        -24    2    3    3    0    0 -0.85557617151E+02 -0.90926285559E+02 -0.77443154254E+03  0.78853707616E+03  0.80366729115E+02 0.  0.
          6    2    1    2  501    0  0.13198804476E+03  0.48862365400E+02 -0.21822651485E+03  0.31009780627E+03  0.16949767833E+03 0.  0.
         24    2    5    5    0    0  0.86720082876E+02 -0.30629867138E+02 -0.84376498009E+02  0.14790618992E+03  0.79361741824E+02 0.  0.
          5    1    5    5  501    0  0.45267961883E+02  0.79492232538E+02 -0.13385001684E+03  0.16219161635E+03  0.47000000000E+01 0. -1.
        -13    1    6    6    0    0  0.71850746501E+02  0.48085311232E+01 -0.82388185293E+02  0.10942332850E+03  0.00000000000E+00 0.  1.
         14    1    6    6    0    0  0.14869336375E+02 -0.35438398261E+02 -0.19883127165E+01  0.38482861419E+02  0.00000000000E+00 0. -1.
         -5    1    3    3    0  503 -0.46430427608E+02  0.42063920159E+02 -0.75554654394E+03  0.75815422445E+03  0.47000000000E+01 0.  1.
         11    1    4    4    0    0 -0.73898006691E+02 -0.81700797242E+02 -0.43340459788E+03  0.44718618173E+03  0.00000000000E+00 0. -1.
        -12    1    4    4    0    0 -0.11659610459E+02 -0.92254883175E+01 -0.34102694466E+03  0.34135089444E+03  0.00000000000E+00 0.  1.
</event>
<event>
12    1  0.8493057E-002  0.2053875E+03  0.7818608E-02  0.1145651E+00
         21   -1    0    0  501  502  0.00000000000E+00  0.00000000000E+00  0.24030894838E+04  0.24030894838E+04  0.00000000000E+00 0. -1.
         21   -1    0    0  502  503 -0.00000000000E+00 -0.00000000000E+00 -0.17590521361E+02  0.17590521361E+02  0.00000000000E+00 0. -1.
         -6    2    1    2    0  503 -0.89524097627E+02  0.65318082569E+02  0.13253563634E+04  0.13411761622E+04  0.17292481607E+03 0.  0.
        -24    2    3    3    0    0 -0.97314556241E+02  0.10665234877E+03  0.10899720103E+04  0.11020170174E+04  0.74549830425E+02 0.  0.
          6    2    1    2  501    0  0.89524097627E+02 -0.65318082569E+02  0.10601425991E+04  0.10795038430E+04  0.17071965546E+03 0.  0.
         24    2    5    5    0    0  0.12930975380E+02  0.12394965048E+01  0.71930654819E+03  0.72385272002E+03  0.79950631889E+02 0.  0.
          5    1    5    5  501    0  0.76593122247E+02 -0.66557579074E+02  0.34083605087E+03  0.35565112298E+03  0.47000000000E+01 0. -1.
        -11    1    6    6    0    0  0.39551833210E+02 -0.21703677657E+02  0.45197522678E+03  0.45422131473E+03  0.00000000000E+00 0.  1.
         12    1    6    6    0    0 -0.26620857830E+02  0.22943174162E+02  0.26733132141E+03  0.26963140529E+03  0.00000000000E+00 0. -1.
         -5    1    3    3    0  503  0.77904586144E+01 -0.41334266205E+02  0.23538435314E+03  0.23915914473E+03  0.47000000000E+01 0.  1.
         13    1    4    4    0    0 -0.98659068855E+02  0.59285383755E+02  0.77040518109E+03  0.77895603960E+03  0.00000000000E+00 0. -1.
        -14    1    4    4    0    0  0.13445126139E+01  0.47366965018E+02  0.31956682918E+03  0.32306097784E+03  0.00000000000E+00 0.  1.
</event>
<event>
12    1  0.8493057E-002  0.1898255E+03  0.7818608E-02  0.1158901E+00
         21   -1    0    0  503  502  0.00000000000E+00  0.00000000000E+00  0.24198633756E+02  0.24198633756E+02  0.00000000000E+00 0. -1.
         21   -1    0    0  501  503 -0.00000000000E+00 -0.00000000000E+00 -0.19483074783E+04  0.19483074783E+04  0.00000000000E+00 0. -1.
          6    2    1    2  501    0 -0.62090772367E+02  0.50405301483E+02 -0.48058349434E+03  0.51671483296E+03  0.17215622306E+03 0.  0.
         24    2    3    3    0    0 -0.78495562519E+02 -0.16229197841E+02 -0.36246520561E+03  0.38002798731E+03  0.81334529360E+02 0.  0.
         -6    2    1    2    0  502  0.62090772367E+02 -0.50405301483E+02 -0.14435253502E+04  0.14557912791E+04  0.17078305883E+03 0.  0.
        -24    2    5    5    0    0  0.62127422679E+02 -0.63289962179E+02 -0.14343086629E+04  0.14392669592E+04  0.79891196472E+02 0.  0.
          5    1    3    3  501    0  0.16404790152E+02  0.66634499324E+02 -0.11811828873E+03  0.13668684564E+03  0.47000000000E+01 0. -1.
        -13    1    4    4    0    0 -0.55714945547E+02  0.24845393763E+02 -0.26368597113E+03  0.27065058677E+03  0.00000000000E+00 0.  1.
         14    1    4    4    0    0 -0.22780616972E+02 -0.41074591604E+02 -0.98779234476E+02  0.10937740054E+03  0.00000000000E+00 0. -1.
         -5    1    5    5    0  502 -0.36650312225E-01  0.12884660695E+02 -0.92166872822E+01  0.16524319924E+02  0.47000000000E+01 0.  1.
         13    1    6    6    0    0  0.23255754693E+01 -0.17796590826E+02 -0.84458228940E+03  0.84477296980E+03  0.00000000000E+00 0. -1.
        -14    1    6    6    0    0  0.59801847210E+02 -0.45493371353E+02 -0.58972637351E+03  0.59449398936E+03  0.00000000000E+00 0.  1.
</event>
<event>
12    1  0.8493057E-002  0.1741622E+03  0.7818608E-02  0.1173650E+00
         21   -1    0    0  501  502  0.00000000000E+00  0.00000000000E+00  0.56159884319E+02  0.56159884319E+02  0.00000000000E+00 0.  1.
         21   -1    0    0  502  503 -0.00000000000E+00 -0.00000000000E+00 -0.58540848278E+03  0.58540848278E+03  0.00000000000E+00 0.  1.
         -6    2    1    2    0  503 -0.17040644647E+02  0.21854273586E+02 -0.35496123555E+03  0.39538580515E+03  0.17194319796E+03 0.  0.
        -24    2    3    3    0    0 -0.71354503802E+02  0.91987806605E+01 -0.28901243391E+03  0.30889019118E+03  0.81907755893E+02 0.  0.
          6    2    1    2  501    0  0.17040644647E+02 -0.21854273586E+02 -0.17428736291E+03  0.24618256195E+03  0.17164433021E+03 0.  0.
         24    2    5    5    0    0  0.75230479934E+02 -0.67894333708E+01 -0.87301503704E+02  0.14034478021E+03  0.79808416017E+02 0.  0.
          5    1    5    5  501    0 -0.58189835288E+02 -0.15064840215E+02 -0.86985859208E+02  0.10583778174E+03  0.47000000000E+01 0. -1.
        -13    1    6    6    0    0  0.17284904007E+02 -0.25529454952E+02 -0.70840721053E+02  0.77258842445E+02  0.00000000000E+00 0.  1.
         14    1    6    6    0    0  0.57945575927E+02  0.18740021581E+02 -0.16460782651E+02  0.63085937766E+02  0.00000000000E+00 0. -1.
         -5    1    3    3    0  503  0.54313859156E+02  0.12655492926E+02 -0.65948801644E+02  0.86495613969E+02  0.47000000000E+01 0.  1.
         11    1    4    4    0    0 -0.13673325062E+02 -0.26570126585E+02 -0.16344047490E+03  0.16614969239E+03  0.00000000000E+00 0. -1.
        -12    1    4    4    0    0 -0.57681178741E+02  0.35768907245E+02 -0.12557195900E+03  0.14274049879E+03  0.00000000000E+00 0.  1.
</event>
<event>
12    1  0.8493057E-002  0.2736998E+03  0.7818608E-02  0.1099297E+00
         21   -1    0    0  503  502  0.00000000000E+00  0.00000000000E+00  0.35281299340E+03  0.35281299340E+03  0.00000000000E+00 0. -1.
         21   -1    0    0  501  503 -0.00000000000E+00 -0.00000000000E+00 -0.31562835800E+03  0.31562835800E+03  0.00000000000E+00 0.  1.
          6    2    1    2  501    0 -0.21214219513E+03  0.15898488761E+02 -0.17318699299E+03  0.32389091944E+03  0.17220487873E+03 0.  0.
         24    2    3    3    0    0 -0.47649570572E+02 -0.28550147465E+02 -0.33285632783E+02  0.10337337959E+03  0.80576235712E+02 0.  0.
         -6    2    1    2    0  502  0.21214219513E+03 -0.15898488761E+02  0.21037162840E+03  0.34455043195E+03  0.17088506438E+03 0.  0.
        -24    2    5    5    0    0  0.21063049487E+03 -0.43090031817E+02  0.21819690103E+03  0.31582779031E+03  0.76911307989E+02 0.  0.
          5    1    3    3  501    0 -0.16449262455E+03  0.44448636226E+02 -0.13990136021E+03  0.22051753985E+03  0.47000000000E+01 0. -1.
        -11    1    4    4    0    0 -0.23887015522E+02  0.27607834827E+02 -0.80797711147E+01  0.37390704134E+02  0.00000000000E+00 0.  1.
         12    1    4    4    0    0 -0.23762555051E+02 -0.56157982291E+02 -0.25205861668E+02  0.65982675453E+02  0.00000000000E+00 0. -1.
         -5    1    5    5    0  502  0.15117002526E+01  0.27191543056E+02 -0.78252726377E+01  0.28722641649E+02  0.47000000000E+01 0.  1.
         11    1    6    6    0    0  0.19741513166E+03 -0.20298330883E+02  0.17187224820E+03  0.26253538075E+03  0.00000000000E+00 0. -1.
        -12    1    6    6    0    0  0.13215363217E+02 -0.22791700934E+02  0.46324652830E+02  0.53292409555E+02  0.00000000000E+00 0.  1.
</event>
<event>
12    1  0.8493057E-002  0.2493445E+03  0.7818608E-02  0.1113774E+00
         21   -1    0    0  503  502  0.00000000000E+00  0.00000000000E+00  0.19167253301E+03  0.19167253301E+03  0.00000000000E+00 0.  1.
         21   -1    0    0  501  503 -0.00000000000E+00 -0.00000000000E+00 -0.50405550582E+03  0.50405550582E+03  0.00000000000E+00 0. -1.
          6    2    1    2  501    0 -0.17637338018E+02 -0.17962171038E+03 -0.36407362645E+03  0.44108201306E+03  0.17154795898E+03 0.  0.
         24    2    3    3    0    0 -0.72108378099E+02 -0.14716352477E+03 -0.30207488874E+03  0.35227569853E+03  0.77409354446E+02 0.  0.
         -6    2    1    2    0  502  0.17637338018E+02  0.17962171038E+03  0.51690653646E+02  0.25464602577E+03  0.17203964727E+03 0.  0.
        -24    2    5    5    0    0 -0.87702995477E+01  0.56367956819E+02 -0.31440572933E+02  0.10357735952E+03  0.80532571476E+02 0.  0.
          5    1    3    3  501    0  0.54471040081E+02 -0.32458185616E+02 -0.61998737714E+02  0.88806314523E+02  0.47000000000E+01 0. -1.
        -11    1    4    4    0    0 -0.87995690875E+01 -0.38393752033E+02 -0.21748693549E+02  0.44994647264E+02  0.00000000000E+00 0.  1.
         12    1    4    4    0    0 -0.63308809012E+02 -0.10876977274E+03 -0.28032619519E+03  0.30728105127E+03  0.00000000000E+00 0. -1.
         -5    1    5    5    0  502  0.26407637566E+02  0.12325375357E+03  0.83131226579E+02  0.15106866625E+03  0.47000000000E+01 0.  1.
         13    1    6    6    0    0  0.24003612608E+02  0.54269765657E+02 -0.37478942566E+02  0.70185839160E+02  0.00000000000E+00 0. -1.
        -14    1    6    6    0    0 -0.32773912155E+02  0.20981911613E+01  0.60383696324E+01  0.33391520360E+02  0.00000000000E+00 0.  1.
</event>
<event>
12    1  0.8493057E-002  0.2051789E+03  0.7818608E-02  0.1145758E+00
         21   -1    0    0  503  502  0.00000000000E+00  0.00000000000E+00  0.19982559558E+03  0.19982559558E+03  0.00000000000E+00 0. -1.
         21   -1    0    0  501  503 -0.00000000000E+00 -0.00000000000E+00 -0.25584405545E+03  0.25584405545E+03  0.00000000000E+00 0. -1.
          6    2    1    2  501    0 -0.66575800627E+02  0.89774944519E+02 -0.12531756210E+03  0.23910383008E+03  0.17021830776E+03 0.  0.
         24    2    3    3    0    0 -0.84145141116E+02  0.19111935363E+01 -0.69083969891E+02  0.13321224706E+03  0.76738845687E+02 0.  0.
         -6    2    1    2    0  502  0.66575800627E+02 -0.89774944519E+02  0.69299102228E+02  0.21656582095E+03  0.17206542751E+03 0.  0.
        -24    2    5    5    0    0  0.11066098345E+03 -0.82381751919E+02  0.64470585196E+02  0.17135998927E+03  0.78582334267E+02 0.  0.
          5    1    3    3  501    0  0.17569340490E+02  0.87863750983E+02 -0.56233592210E+02  0.10589158302E+03  0.47000000000E+01 0. -1.
        -13    1    4    4    0    0 -0.55083603188E+02 -0.36145551093E+02 -0.36846686188E+02  0.75487631351E+02  0.00000000000E+00 0.  1.
         14    1    4    4    0    0 -0.29061537929E+02  0.38056744629E+02 -0.32237283702E+02  0.57724615711E+02  0.00000000000E+00 0. -1.
         -5    1    5    5    0  502 -0.44085182825E+02 -0.73931926000E+01  0.48285170316E+01  0.45205831684E+02  0.47000000000E+01 0.  1.
         11    1    6    6    0    0  0.11023687760E+03 -0.61203051598E+02  0.76021932458E+02  0.14723218712E+03  0.00000000000E+00 0. -1.
        -12    1    6    6    0    0  0.42410584713E+00 -0.21178700321E+02 -0.11551347262E+02  0.24127802150E+02  0.00000000000E+00 0.  1.
</event>
<event>
12    1  0.8493057E-002  0.2121234E+03  0.7818608E-02  0.1140195E+00
         21   -1    0    0  503  502  0.00000000000E+00  0.00000000000E+00  0.11259359745E+03  0.11259359745E+03  0.00000000000E+00 0.  1.
         21   -1    0    0  501  503 -0.00000000000E+00 -0.00000000000E+00 -0.54266175381E+03  0.54266175381E+03  0.00000000000E+00 0.  1.
          6    2    1    2  501    0 -0.11219628877E+03 -0.47243617521E+02 -0.38548283534E+03  0.43999243796E+03  0.17371344941E+03 0.  0.
         24    2    3    3    0    0 -0.83002796472E+02  0.29541677491E+01 -0.35861412352E+03  0.37583563541E+03  0.75829703439E+02 0.  0.
         -6    2    1    2    0  502  0.11219628877E+03  0.47243617521E+02 -0.44585321020E+02  0.21526291330E+03  0.17184383719E+03 0.  0.
        -24    2    5    5    0    0  0.66852024255E+02 -0.38063469675E+02 -0.30347199797E+02  0.11749678651E+03  0.83465690167E+02 0.  0.
          5    1    3    3  501    0 -0.29193492295E+02 -0.50197785270E+02 -0.26868711817E+02  0.64156802547E+02  0.47000000000E+01 0. -1.
        -13    1    4    4    0    0 -0.51889975584E+02 -0.28903737771E+02 -0.13002100123E+03  0.14294564136E+03  0.00000000000E+00 0.  1.
         14    1    4    4    0    0 -0.31112820888E+02  0.31857905520E+02 -0.22859312230E+03  0.23288999405E+03  0.00000000000E+00 0. -1.
         -5    1    5    5    0  502  0.45344264512E+02  0.85307087195E+02 -0.14238121223E+02  0.97766126781E+02  0.47000000000E+01 0.  1.
         13    1    6    6    0    0  0.17037677374E+02 -0.27415432180E+01 -0.50360013575E+02  0.53234664241E+02  0.00000000000E+00 0. -1.
        -14    1    6    6    0    0  0.49814346881E+02 -0.35321926457E+02  0.20012813778E+02  0.64262122274E+02  0.00000000000E+00 0.  1.
</event>
<event>
12    1  0.8493057E-002  0.1759708E+03  0.7818608E-02  0.1171828E+00
         21   -1    0    0  501  502  0.00000000000E+00  0.00000000000E+00  0.86989193887E+03  0.86989193887E+03  0.00000000000E+00 0. -1.
         21   -1    0    0  502  503 -0.00000000000E+00 -0.00000000000E+00 -0.42774124651E+02  0.42774124651E+02  0.00000000000E+00 0. -1.
         -6    2    1    2    0  503  0.33360882889E+02  0.15198974518E+02  0.22565522150E+03  0.28598993030E+03  0.17183132400E+03 0.  0.
        -24    2    3    3    0    0  0.51311679996E+02  0.44565538013E+01  0.50117351041E+02  0.10914744478E+03  0.82150267501E+02 0.  0.
          6    2    1    2  501    0 -0.33360882889E+02 -0.15198974518E+02  0.60146259271E+03  0.62667613322E+03  0.17210975619E+03 0.  0.
         24    2    5    5    0    0 -0.54603261772E+01  0.18875863865E+02  0.13525164269E+03  0.15836611240E+03  0.80004408051E+02 0.  0.
          5    1    5    5  501    0 -0.27900556712E+02 -0.34074838383E+02  0.46621095003E+03  0.46831002082E+03  0.47000000000E+01 0. -1.
        -13    1    6    6    0    0  0.18908402039E+02  0.26894718638E+02  0.12734618840E+03  0.13152150113E+03  0.00000000000E+00 0.  1.
         14    1    6    6    0    0 -0.24368728216E+02 -0.80188547731E+01  0.79054542844E+01  0.26844611269E+02  0.00000000000E+00 0. -1.
         -5    1    3    3    0  503 -0.17950797107E+02  0.10742420716E+02  0.17553787046E+03  0.17684248552E+03  0.47000000000E+01 0.  1.
         11    1    4    4    0    0  0.32570353143E+02  0.10773934508E+02 -0.17630917786E+02  0.38571425053E+02  0.00000000000E+00 0. -1.
        -12    1    4    4    0    0  0.18741326853E+02 -0.63173807071E+01  0.67748268827E+02  0.70576019726E+02  0.00000000000E+00 0.  1.
</event>
<event>
12    1  0.8493057E-002  0.1771540E+03  0.7818608E-02  0.1171106E+00
         21   -1    0    0  503  502  0.00000000000E+00  0.00000000000E+00  0.12050131160E+04  0.12050131160E+04  0.00000000000E+00 0. -1.
         21   -1    0    0  501  503 -0.00000000000E+00 -0.00000000000E+00 -0.27513867114E+02  0.27513867114E+02  0.00000000000E+00 0.  1.
          6    2    1    2  501    0  0.36877130097E+02  0.20700021002E+02  0.43543672211E+03  0.47009432224E+03  0.17203232038E+03 0.  0.
         24    2    3    3    0    0 -0.20998832302E+02 -0.33946377534E+01  0.36932888438E+03  0.37886649857E+03  0.81752824879E+02 0.  0.
         -6    2    1    2    0  502 -0.36877130097E+02 -0.20700021002E+02  0.74206252681E+03  0.76243266090E+03  0.16987747089E+03 0.  0.
        -24    2    5    5    0    0 -0.18351862352E+02 -0.50209659245E+02  0.23614918719E+03  0.25529914643E+03  0.80953164381E+02 0.  0.
          5    1    3    3  501    0  0.57875962400E+02  0.24094658755E+02  0.66107837727E+02  0.91227823679E+02  0.47000000000E+01 0. -1.
        -13    1    4    4    0    0  0.51278636238E+01  0.29986692097E+01 -0.22227653953E+01  0.63425301241E+01  0.00000000000E+00 0.  1.
         14    1    4    4    0    0 -0.26126695926E+02 -0.63933069631E+01  0.37155164977E+03  0.37252396844E+03  0.00000000000E+00 0. -1.
         -5    1    5    5    0  502 -0.18525267746E+02  0.29509638243E+02  0.50591333962E+03  0.50713351447E+03  0.47000000000E+01 0.  1.
         13    1    6    6    0    0 -0.29756914890E+02 -0.57894196454E+00  0.27489551814E+02  0.40515239312E+02  0.00000000000E+00 0. -1.
        -14    1    6    6    0    0  0.11405052538E+02 -0.49630717280E+02  0.20865963537E+03  0.21478390712E+03  0.00000000000E+00 0.  1.
</event>
<event>
12    1  0.8493057E-002  0.2173763E+03  0.7818608E-02  0.1136163E+00
         21   -1    0    0  501  502  0.00000000000E+00  0.00000000000E+00  0.96801206723E+02  0.96801206723E+02  0.00000000000E+00 0. -1.
         21   -1    0    0  502  503 -0.00000000000E+00 -0.00000000000E+00 -0.50157597625E+03  0.50157597625E+03  0.00000000000E+00 0. -1.
         -6    2    1    2    0  503 -0.36322724765E+02  0.12782063760E+03 -0.25686306064E+03  0.33545073024E+03  0.16997383554E+03 0.  0.
        -24    2    3    3    0    0  0.30941637819E+02  0.58910638605E+02 -0.19263176184E+03  0.21960241484E+03  0.81794722592E+02 0.  0.
          6    2    1    2  501    0  0.36322724765E+02 -0.12782063760E+03 -0.14791170889E+03  0.26292645273E+03  0.17203194525E+03 0.  0.
         24    2    5    5    0    0  0.33908302042E+02 -0.92326046414E+01 -0.24754412197E+02  0.91874528662E+02  0.81198116713E+02 0.  0.
          5    1    5    5  501    0  0.24144227230E+01 -0.11858803296E+03 -0.12315729669E+03  0.17105192407E+03  0.47000000000E+01 0. -1.
        -13    1    6    6    0    0 -0.86851755355E+01  0.28037439188E+02 -0.19046696487E+02  0.34990097419E+02  0.00000000000E+00 0.  1.
         14    1    6    6    0    0  0.42593477578E+02 -0.37270043829E+02 -0.57077157101E+01  0.56884431243E+02  0.00000000000E+00 0. -1.
         -5    1    3    3    0  503 -0.67264362585E+02  0.68909998999E+02 -0.64231298802E+02  0.11584831540E+03  0.47000000000E+01 0.  1.
         13    1    4    4    0    0  0.15454873769E+02  0.41585245624E+02 -0.19124465364E+03  0.19632295669E+03  0.00000000000E+00 0. -1.
        -14    1    4    4    0    0  0.15486764051E+02  0.17325392981E+02 -0.13871081955E+01  0.23279458152E+02  0.00000000000E+00 0.  1.
</event>
<event>
12    1  0.8493057E-002  0.2533069E+03  0.7818608E-02  0.1111346E+00
         21   -1    0    0  503  502  0.00000000000E+00  0.00000000000E+00  0.76612630991E+02  0.76612630991E+02  0.00000000000E+00 0. -1.
         21   -1    0    0  501  503 -0.00000000000E+00 -0.00000000000E+00 -0.86536291034E+03  0.86536291034E+03  0.00000000000E+00 0. -1.
          6    2    1    2  501    0 -0.15836981026E+03 -0.98345220234E+02 -0.30685471151E+03  0.39789971239E+03  0.17149806997E+03 0.  0.
         24    2    3    3    0    0 -0.25050041961E+02 -0.81373621450E+02 -0.17056868936E+03  0.20643648977E+03  0.79203381543E+02 0.  0.
         -6    2    1    2    0  502  0.15836981026E+03  0.98345220234E+02 -0.48189556783E+03  0.54407582893E+03  0.17041828009E+03 0.  0.
        -24    2    5    5    0    0  0.18618830449E+03  0.82168815386E+02 -0.39476747474E+03  0.45107615527E+03  0.78806978043E+02 0.  0.
          5    1    3    3  501    0 -0.13331976830E+03 -0.16971598783E+02 -0.13628602215E+03  0.19146322263E+03  0.47000000000E+01 0. -1.
        -11    1    4    4    0    0  0.10667849538E+02  0.12140002949E+02 -0.22352748290E+02  0.27583111527E+02  0.00000000000E+00 0.  1.
         12    1    4    4    0    0 -0.35717891499E+02 -0.93513624399E+02 -0.14821594107E+03  0.17885337824E+03  0.00000000000E+00 0. -1.
         -5    1    5    5    0  502 -0.27818494235E+02  0.16176404848E+02 -0.87128093095E+02  0.92999673665E+02  0.47000000000E+01 0.  1.
         13    1    6    6    0    0  0.11443399021E+03  0.72667305585E+02 -0.31736908535E+03  0.34510695698E+03  0.00000000000E+00 0. -1.
        -14    1    6    6    0    0  0.71754314286E+02  0.95015098009E+01 -0.77398389384E+02  0.10596919829E+03  0.00000000000E+00 0.  1.
</event>
<event>
12    1  0.8493057E-002  0.1815489E+03  0.7818608E-02  0.1167383E+00
         21   -1    0    0  501  502  0.00000000000E+00  0.00000000000E+00  0.63184707550E+03  0.63184707550E+03  0.00000000000E+00 0.  1.
         21   -1    0    0  502  503 -0.00000000000E+00 -0.00000000000E+00 -0.84449953781E+02  0.84449953781E+02  0.00000000000E+00 0.  1.
         -6    2    1    2    0  503 -0.27158912285E+02  0.27560815316E+02  0.50010410965E+02  0.18831105861E+03  0.17737758745E+03 0.  0.
        -24    2    3    3    0    0 -0.75720202504E+01  0.23368346156E+02  0.10334012297E+03  0.13115013385E+03  0.76926988112E+02 0.  0.
          6    2    1    2  501    0  0.27158912285E+02 -0.27560815316E+02  0.49738671075E+03  0.52798597067E+03  0.17285381146E+03 0.  0.
         24    2    5    5    0    0  0.10257330665E+02  0.26204288565E+02  0.44070067991E+03  0.44791259214E+03  0.74944802049E+02 0.  0.
          5    1    5    5  501    0  0.16901581620E+02 -0.53765103881E+02  0.56686030838E+02  0.80073378527E+02  0.47000000000E+01 0. -1.
        -11    1    6    6    0    0  0.41770672242E+02  0.15756169706E+02  0.30270159052E+03  0.30597597757E+03  0.00000000000E+00 0.  1.
         12    1    6    6    0    0 -0.31513341577E+02  0.10448118858E+02  0.13799908939E+03  0.14193661458E+03  0.00000000000E+00 0. -1.
         -5    1    3    3    0  503 -0.19586892034E+02  0.41924691603E+01 -0.53329712002E+02  0.57160924761E+02  0.47000000000E+01 0.  1.
         11    1    4    4    0    0 -0.18187755270E+02  0.43258494957E+02  0.33220830779E+02  0.57495351337E+02  0.00000000000E+00 0. -1.
        -12    1    4    4    0    0  0.10615735020E+02 -0.19890148802E+02  0.70119292188E+02  0.73654782508E+02  0.00000000000E+00 0.  1.
</event>
<event>
12    1  0.8493057E-002  0.2077274E+03  0.7818608E-02  0.1143573E+00
         21   -1    0    0  503  502  0.00000000000E+00  0.00000000000E+00  0.22017258117E+03  0.22017258117E+03  0.00000000000E+00 0.  1.
         21   -1    0    0  501  503 -0.00000000000E+00 -0.00000000000E+00 -0.45392655355E+03  0.45392655355E+03  0.00000000000E+00 0.  1.
          6    2    1    2  501    0 -0.10471717125E+03 -0.52185114394E+02 -0.37151727533E+03  0.42564744503E+03  0.17164407789E+03 0.  0.
         24    2    3    3    0    0 -0.12719125013E+02 -0.74122144224E+02 -0.16198167821E+03  0.19570803943E+03  0.80048136866E+02 0.  0.
         -6    2    1    2    0  502  0.10471717125E+03  0.52185114394E+02  0.13776330295E+03  0.24845168970E+03  0.17047152946E+03 0.  0.
        -24    2    5    5    0    0  0.73974639575E+02  0.60421528985E+02  0.19944631463E+02  0.12631950258E+03  0.80223562267E+02 0.  0.
          5    1    3    3  501    0 -0.91998046236E+02  0.21937029830E+02 -0.20953559712E+03  0.22993940561E+03  0.47000000000E+01 0. -1.
        -11    1    4    4    0    0 -0.20398766378E+02 -0.63193513466E+02 -0.16830396408E+03  0.18093024661E+03  0.00000000000E+00 0.  1.
         12    1    4    4    0    0  0.76796413645E+01 -0.10928630759E+02  0.63222858745E+01  0.14777792813E+02  0.00000000000E+00 0. -1.
         -5    1    5    5    0  502  0.30742531675E+02 -0.82364145915E+01  0.11781867149E+03  0.12213218712E+03  0.47000000000E+01 0.  1.
         13    1    6    6    0    0  0.39729981629E+02 -0.10939123335E+02 -0.87492191347E+01  0.42127006718E+02  0.00000000000E+00 0. -1.
        -14    1    6    6    0    0  0.34244657946E+02  0.71360652320E+02  0.28693850598E+02  0.84192495863E+02  0.00000000000E+00 0.  1.
</event>
<event>
12    1  0.8493057E-002  0.2383090E+03  0.7818608E-02  0.1121041E+00
         21   -1    0    0  501  502  0.00000000000E+00  0.00000000000E+00  0.35945621925E+03  0.35945621925E+03  0.00000000000E+00 0. -1.
         21   -1    0    0  502  503 -0.00000000000E+00 -0.00000000000E+00 -0.34028957955E+03  0.34028957955E+03  0.00000000000E+00 0. -1.
         -6    2    1    2    0  503  0.14919098019E+03  0.72947504792E+02 -0.24682567727E+03  0.34261406029E+03  0.16994761640E+03 0.  0.
        -24    2    3    3    0    0  0.25061510777E+02  0.25677956651E+02 -0.17235597386E+03  0.19026458676E+03  0.72156735431E+02 0.  0.
          6    2    1    2  501    0 -0.14919098019E+03 -0.72947504792E+02  0.26599231697E+03  0.35713173852E+03  0.17091482949E+03 0.  0.
         24    2    5    5    0    0 -0.16900096548E+03 -0.32086906780E+02  0.20016130826E+03  0.27702034298E+03  0.84171403560E+02 0.  0.
          5    1    5    5  501    0  0.19809985293E+02 -0.40860598012E+02  0.65831008712E+02  0.80111395539E+02  0.47000000000E+01 0. -1.
        -11    1    6    6    0    0  0.93928180034E+01 -0.32621586384E+01  0.53112374222E+01  0.11272796990E+02  0.00000000000E+00 0.  1.
         12    1    6    6    0    0 -0.17839378349E+03 -0.28824748142E+02  0.19485007084E+03  0.26574754599E+03  0.00000000000E+00 0. -1.
         -5    1    3    3    0  503  0.12412946941E+03  0.47269548141E+02 -0.74469703411E+02  0.15234947353E+03  0.47000000000E+01 0.  1.
         11    1    4    4    0    0  0.12664109458E+02  0.40765646394E+02 -0.47386096814E+02  0.63778207607E+02  0.00000000000E+00 0. -1.
        -12    1    4    4    0    0  0.12397401319E+02 -0.15087689743E+02 -0.12496987705E+03  0.12648637915E+03  0.00000000000E+00 0.  1.
</event>
<event>
12    1  0.8493057E-002  0.2276867E+03  0.7818608E-02  0.1128560E+00
         21   -1    0    0  501  502  0.00000000000E+00  0.00000000000E+00  0.85174154514E+03  0.85174154514E+03  0.00000000000E+00 0. -1.
         21   -1    0    0  502  503 -0.00000000000E+00 -0.00000000000E+00 -0.61254443650E+02  0.61254443650E+02  0.00000000000E+00 0.  1.
         -6    2    1    2    0  503 -0.46473221555E+02  0.13885426423E+03  0.34141528253E+03  0.40950146624E+03  0.17229854525E+03 0.  0.
        -24    2    3    3    0    0  0.39324527513E+02  0.87485739874E+02  0.17763951058E+03  0.21755206531E+03  0.81073622453E+02 0.  0.
          6    2    1    2  501    0  0.46473221555E+02 -0.13885426423E+03  0.44907181896E+03  0.50349452255E+03  0.17435873546E+03 0.  0.
         24    2    5    5    0    0  0.36613302830E+02 -0.15754567480E+03  0.28014125356E+03  0.33318241859E+03  0.79813711357E+02 0.  0.
          5    1    5    5  501    0  0.98599187249E+01  0.18691410568E+02  0.16893056541E+03  0.17031210396E+03  0.47000000000E+01 0. -1.
        -13    1    6    6    0    0  0.53506022252E+02 -0.11534125358E+03  0.24387116157E+03  0.27502662170E+03  0.00000000000E+00 0.  1.
         14    1    6    6    0    0 -0.16892719421E+02 -0.42204421216E+02  0.36270091984E+02  0.58155796892E+02  0.00000000000E+00 0. -1.
         -5    1    3    3    0  503 -0.85797749068E+02  0.51368524356E+02  0.16377577195E+03  0.19194940093E+03  0.47000000000E+01 0.  1.
         11    1    4    4    0    0  0.14129943599E+02 -0.14606566657E+02  0.32285314578E+02  0.38149031876E+02  0.00000000000E+00 0. -1.
        -12    1    4    4    0    0  0.25194583915E+02  0.10209230653E+03  0.14535419600E+03  0.17940303344E+03  0.00000000000E+00 0.  1.
</event>
<event>
12    1  0.8493057E-002  0.2340903E+03  0.7818608E-02  0.1124897E+00
         21   -1    0    0  501  502  0.00000000000E+00  0.00000000000E+00  0.10964334375E+04  0.10964334375E+04  0.00000000000E+00 0. -1.
         21   -1    0    0  502  503 -0.00000000000E+00 -0.00000000000E+00 -0.16503369424E+03  0.16503369424E+03  0.00000000000E+00 0. -1.
         -6    2    1    2    0  503 -0.15038315255E+03 -0.86568720467E+01 -0.65861922458E+02  0.23709948164E+03  0.17084594627E+03 0.  0.
        -24    2    3    3    0    0 -0.49632050616E+02  0.51973653842E+02 -0.51170709034E+02  0.11850451141E+03  0.79121909860E+02 0.  0.
          6    2    1    2  501    0  0.15038315255E+03  0.86568720467E+01  0.99726166573E+03  0.10243676501E+04  0.17918766320E+03 0.  0.
         24    2    5    5    0    0  0.22201663557E+02 -0.28638947502E+02  0.23404701376E+03  0.24955143496E+03  0.78643568461E+02 0.  0.
          5    1    5    5  501    0  0.12818148899E+03  0.37295819548E+02  0.76321465197E+03  0.77481621515E+03  0.47000000000E+01 0. -1.
        -11    1    6    6    0    0 -0.91583022585E+01 -0.21077256187E+02  0.20455933965E+03  0.20584617719E+03  0.00000000000E+00 0.  1.
         12    1    6    6    0    0  0.31359965816E+02 -0.75616913151E+01  0.29487674113E+02  0.43705257762E+02  0.00000000000E+00 0. -1.
         -5    1    3    3    0  503 -0.10075110193E+03 -0.60630525889E+02 -0.14691213425E+02  0.11859497022E+03  0.47000000000E+01 0.  1.
         11    1    4    4    0    0 -0.64484642368E+02  0.25720739391E+02 -0.54357512955E+02  0.88173492337E+02  0.00000000000E+00 0. -1.
        -12    1    4    4    0    0  0.14852591752E+02  0.26252914451E+02  0.31868039211E+01  0.30331019075E+02  0.00000000000E+00 0.  1.
</event>
<event>
12    1  0.8493057E-002  0.2178401E+03  0.7818608E-02  0.1135828E+00
         21   -1    0    0  501  502  0.00000000000E+00  0.00000000000E+00  0.36362132378E+03  0.36362132378E+03  0.00000000000E+00 0. -1.
         21   -1    0    0  502  503 -0.00000000000E+00 -0.00000000000E+00 -0.19844856912E+03  0.19844856912E+03  0.00000000000E+00 0. -1.
         -6    2    1    2    0  503  0.79294791268E+02  0.10441773327E+03 -0.82875217930E+02  0.23307212152E+03  0.17396432145E+03 0.  0.
        -24    2    3    3    0    0  0.66823299100E+02  0.74493717040E+01 -0.86105396494E+02  0.13513885181E+03  0.79545732271E+02 0.  0.
          6    2    1    2  501    0 -0.79294791268E+02 -0.10441773327E+03  0.24804797259E+03  0.32899777139E+03  0.17181679176E+03 0.  0.
         24    2    5    5    0    0 -0.70299155651E+01 -0.56354391313E+01  0.43667161576E+02  0.90725322695E+02  0.79013196942E+02 0.  0.
          5    1    5    5  501    0 -0.72264875703E+02 -0.98782294135E+02  0.20438081101E+03  0.23827244869E+03  0.47000000000E+01 0. -1.
        -13    1    6    6    0    0 -0.17695705508E+02  0.32957115396E+02  0.10831877583E+02  0.38944049874E+02  0.00000000000E+00 0.  1.
         14    1    6    6    0    0  0.10665789943E+02 -0.38592554527E+02  0.32835283993E+02  0.51781272821E+02  0.00000000000E+00 0. -1.
         -5    1    3    3    0  503  0.12471492168E+02  0.96968361562E+02  0.32301785648E+01  0.97933269702E+02  0.47000000000E+01 0.  1.
         13    1    4    4    0    0 -0.12251529074E+02  0.13520037346E+02 -0.23298717112E+00  0.18246798554E+02  0.00000000000E+00 0. -1.
        -14    1    4    4    0    0  0.79074828174E+02 -0.60706656416E+01 -0.85872409323E+02  0.11689205326E+03  0.00000000000E+00 0.  1.
</event>
<event>
12    1  0.8493057E-002  0.2537535E+03  0.7818608E-02  0.1110958E+00
         21   -1    0    0  503  502  0.00000000000E+00  0.00000000000E+00  0.58973664023E+02  0.58973664023E+02  0.00000000000E+00 0. -1.
         21   -1    0    0  501  503 -0.00000000000E+00 -0.00000000000E+00 -0.17416829068E+04  0.17416829068E+04  0.00000000000E+00 0.  1.
          6    2    1    2  501    0  0.18568763113E+03  0.22117349106E+02 -0.13913083125E+04  0.14142560608E+04  0.17150017964E+03 0.  0.
         24    2    3    3    0    0  0.20461010448E+03  0.38299785722E+02 -0.12743100559E+04  0.12945455212E+04  0.93004405196E+02 0.  0.
         -6    2    1    2    0  502 -0.18568763113E+03 -0.22117349106E+02 -0.29140093028E+03  0.38640051002E+03  0.17152777759E+03 0.  0.
        -24    2    5    5    0    0 -0.11434427796E+03  0.51138596830E+02 -0.20286120771E+03  0.25105768557E+03  0.78660802827E+02 0.  0.
          5    1    3    3  501    0 -0.18922473341E+02 -0.16182436615E+02 -0.11699825660E+03  0.11971053963E+03  0.47000000000E+01 0. -1.
        -11    1    4    4    0    0  0.18694597729E+03  0.31231903239E+02 -0.12466371776E+04  0.12609633154E+04  0.00000000000E+00 0.  1.
         12    1    4    4    0    0  0.17664127182E+02  0.70678824822E+01 -0.27672878345E+02  0.33582205821E+02  0.00000000000E+00 0. -1.
         -5    1    5    5    0  502 -0.71343353171E+02 -0.73255945937E+02 -0.88539722571E+02  0.13534282445E+03  0.47000000000E+01 0.  1.
         11    1    6    6    0    0 -0.83005926598E+02  0.10395354528E+01 -0.82828457961E+02  0.11726729268E+03  0.00000000000E+00 0. -1.
        -12    1    6    6    0    0 -0.31338351365E+02  0.50099061378E+02 -0.12003274975E+03  0.13379039289E+03  0.00000000000E+00 0.  1.
</event>
<event>
12    1  0.8493057E-002  0.2433897E+03  0.7818608E-02  0.1117812E+00
         21   -1    0    0  503  502  0.00000000000E+00  0.00000000000E+00  0.12283309234E+04  0.12283309234E+04  0.00000000000E+00 0. -1.
         21   -1    0    0  501  503 -0.00000000000E+00 -0.00000000000E+00 -0.14029751849E+03  0.14029751849E+03  0.00000000000E+00 0.  1.
          6    2    1    2  501    0 -0.16232269076E+03 -0.54753868390E+02 -0.11871324513E+02  0.24211659281E+03  0.17068354968E+03 0.  0.
         24    2    3    3    0    0 -0.18043961900E+03 -0.26057720676E+02 -0.32551662360E+02  0.20209836751E+03  0.80911547493E+02 0.  0.
         -6    2    1    2    0  502  0.16232269076E+03  0.54753868390E+02  0.10999047294E+04  0.11265118490E+04  0.17289271315E+03 0.  0.
        -24    2    5    5    0    0  0.36556251278E+02  0.55017506647E+01  0.68195229698E+03  0.68725190988E+03  0.76743882515E+02 0.  0.
          5    1    3    3  501    0  0.18116928242E+02 -0.28696147713E+02  0.20680337847E+02  0.40018225298E+02  0.47000000000E+01 0. -1.
        -13    1    4    4    0    0 -0.92545934113E+02 -0.54102737164E+02 -0.17477177272E+02  0.10861541242E+03  0.00000000000E+00 0.  1.
         14    1    4    4    0    0 -0.87893684885E+02  0.28045016487E+02 -0.15074485088E+02  0.93482955094E+02  0.00000000000E+00 0. -1.
         -5    1    5    5    0  502  0.12576643948E+03  0.49252117725E+02  0.41795243239E+03  0.43925993915E+03  0.47000000000E+01 0.  1.
         13    1    6    6    0    0  0.43849173964E+02 -0.25228064015E+02  0.32608016310E+03  0.32998102679E+03  0.00000000000E+00 0. -1.
        -14    1    6    6    0    0 -0.72929226854E+01  0.30729814679E+02  0.35587213388E+03  0.35727088309E+03  0.00000000000E+00 0.  1.
</event>
<event>
12    1  0.8493057E-002  0.2170050E+03  0.7818608E-02  0.1136288E+00
         21   -1    0    0  503  502  0.00000000000E+00  0.00000000000E+00  0.56765535741E+02  0.56765535741E+02  0.00000000000E+00 0. -1.
         21   -1    0    0  501  503 -0.00000000000E+00 -0.00000000000E+00 -0.21556734657E+04  0.21556734657E+04  0.00000000000E+00 0. -1.
          6    2    1    2  501    0  0.49973230751E+02  0.12140195343E+03 -0.19188354088E+04  0.19310671894E+04  0.17278716929E+03 0.  0.
         24    2    3    3    0    0  0.49868923562E+02  0.40234244899E+02 -0.63384134846E+03  0.64350358598E+03  0.90754097122E+02 0.  0.
         -6    2    1    2    0  502 -0.49973230751E+02 -0.12140195343E+03 -0.18007252119E+03  0.28137181206E+03  0.17177958449E+03 0.  0.
        -24    2    5    5    0    0 -0.31484812034E+02 -0.59997258784E+02 -0.18452931108E+03  0.21691786628E+03  0.91713301165E+02 0.  0.
          5    1    3    3  501    0  0.10430718953E+00  0.81167708528E+02 -0.12849940604E+04  0.12875636034E+04  0.47000000000E+01 0. -1.
        -13    1    4    4    0    0 -0.25306296613E+02  0.37921834523E+01 -0.20589653405E+03  0.20748053411E+03  0.00000000000E+00 0.  1.
         14    1    4    4    0    0  0.75175220175E+02  0.36442061447E+02 -0.42794481441E+03  0.43602305186E+03  0.00000000000E+00 0. -1.
         -5    1    5    5    0  502 -0.18488418718E+02 -0.61404694643E+02  0.44567898944E+01  0.64453945784E+02  0.47000000000E+01 0.  1.
         11    1    6    6    0    0  0.73515054728E+01 -0.41840522179E+02 -0.20109270782E+02  0.47000603191E+02  0.00000000000E+00 0. -1.
        -12    1    6    6    0    0 -0.38836317507E+02 -0.18156736605E+02 -0.16442004030E+03  0.16991726308E+03  0.00000000000E+00 0.  1.
</event>
<event>
12    1  0.8493057E-002  0.2672388E+03  0.7818608E-02  0.1103151E+00
         21   -1    0    0  501  502  0.00000000000E+00  0.00000000000E+00  0.47013810671E+03  0.47013810671E+03  0.00000000000E+00 0.  1.
         21   -1    0    0  502  503 -0.00000000000E+00 -0.00000000000E+00 -0.46727796527E+03  0.46727796527E+03  0.00000000000E+00 0.  1.
         -6    2    1    2    0  503  0.12575802300E+03  0.16249015443E+03 -0.38429717204E+03  0.46698291071E+03  0.16784097182E+03 0.  0.
        -24    2    3    3    0    0  0.21796510642E+02  0.62929206808E+02 -0.24680574068E+03  0.26786896836E+03  0.80034602690E+02 0.  0.
          6    2    1    2  501    0 -0.12575802300E+03 -0.16249015443E+03  0.38715731349E+03  0.47043316127E+03  0.17087551959E+03 0.  0.
         24    2    5    5    0    0 -0.90866416708E+02 -0.22993739671E+02  0.18947574600E+03  0.22594028602E+03  0.79765511192E+02 0.  0.
          5    1    5    5  501    0 -0.34891606294E+02 -0.13949641476E+03  0.19768156748E+03  0.24449287524E+03  0.47000000000E+01 0. -1.
        -13    1    6    6    0    0  0.30579011697E+00 -0.18470938919E+02  0.85968494396E+02  0.87930945184E+02  0.00000000000E+00 0.  1.
         14    1    6    6    0    0 -0.91172206825E+02 -0.45228007513E+01  0.10350725161E+03  0.13800934084E+03  0.00000000000E+00 0. -1.
         -5    1    3    3    0  503  0.10396151236E+03  0.99560947624E+02 -0.13749143136E+03  0.19911394236E+03  0.47000000000E+01 0.  1.
         11    1    4    4    0    0 -0.60393067495E+01  0.15729056187E+02 -0.19552382851E+01  0.16961703667E+02  0.00000000000E+00 0. -1.
        -12    1    4    4    0    0  0.27835817391E+02  0.47200150622E+02 -0.24485050240E+03  0.25090726469E+03  0.00000000000E+00 0.  1.
</event>
<event>
12    1  0.8493057E-002  0.3417818E+03  0.7818608E-02  0.1066046E+00
         21   -1    0    0  501  502  0.00000000000E+00  0.00000000000E+00  0.15081193572E+03  0.15081193572E+03  0.00000000000E+00 0.  1.
         21   -1    0    0  502  503 -0.00000000000E+00 -0.00000000000E+00 -0.80649259055E+03  0.80649259055E+03  0.00000000000E+00 0.  1.
         -6    2    1    2    0  503 -0.20643690401E+03 -0.21111333422E+03 -0.42329229289E+03  0.54405071115E+03  0.17213301793E+03 0.  0.
        -24    2    3    3    0    0 -0.64289370512E+02 -0.14956740224E+03 -0.26141262952E+03  0.31995042459E+03  0.86765087162E+02 0.  0.
          6    2    1    2  501    0  0.20643690401E+03  0.21111333422E+03 -0.23238836195E+03  0.41325381512E+03  0.17201549267E+03 0.  0.
         24    2    5    5    0    0  0.14190279157E+03  0.56897828381E+02 -0.10041036854E+03  0.20021073344E+03  0.81414559772E+02 0.  0.
          5    1    5    5  501    0  0.64534112440E+02  0.15421550584E+03 -0.13197799341E+03  0.21304308168E+03  0.47000000000E+01 0. -1.
        -11    1    6    6    0    0  0.47446912611E+02  0.62399543473E+02 -0.40652145033E+02  0.88303507505E+02  0.00000000000E+00 0.  1.
         12    1    6    6    0    0  0.94455878959E+02 -0.55017150914E+01 -0.59758223509E+02  0.11190722593E+03  0.00000000000E+00 0. -1.
         -5    1    3    3    0  503 -0.14214753350E+03 -0.61545931979E+02 -0.16187966337E+03  0.22410028656E+03  0.47000000000E+01 0.  1.
         11    1    4    4    0    0  0.83813888946E+01 -0.34147119095E+02 -0.14830562879E+02  0.38160437859E+02  0.00000000000E+00 0. -1.
        -12    1    4    4    0    0 -0.72670759406E+02 -0.11542028314E+03 -0.24658206664E+03  0.28178998673E+03  0.00000000000E+00 0.  1.
</event>
<event>
12    1  0.8493057E-002  0.1723610E+03  0.7818608E-02  0.1175815E+00
         21   -1    0    0  503  502  0.00000000000E+00  0.00000000000E+00  0.37406294854E+03  0.37406294854E+03  0.00000000000E+00 0. -1.
         21   -1    0    0  501  503 -0.00000000000E+00 -0.00000000000E+00 -0.22852594618E+03  0.22852594618E+03  0.00000000000E+00 0. -1.
          6    2    1    2  501    0 -0.32895838457E+01 -0.12871475929E+01 -0.17131039309E+03  0.24189432027E+03  0.17074288648E+03 0.  0.
         24    2    3    3    0    0 -0.16561742409E+02  0.99936505816E+01 -0.11519846432E+02  0.81088488896E+02  0.77900396700E+02 0.  0.
         -6    2    1    2    0  502  0.32895838457E+01  0.12871475929E+01  0.31684739546E+03  0.36069457445E+03  0.17232476873E+03 0.  0.
        -24    2    5    5    0    0  0.31131578523E+02 -0.51987035631E+02  0.25855537206E+03  0.27682941328E+03  0.78178108066E+02 0.  0.
          5    1    3    3  501    0  0.13272158564E+02 -0.11280798174E+02 -0.15979054666E+03  0.16080583137E+03  0.47000000000E+01 0. -1.
        -11    1    4    4    0    0 -0.47147070385E+02 -0.18700792824E+01 -0.34816787043E+01  0.47312424679E+02  0.00000000000E+00 0.  1.
         12    1    4    4    0    0  0.30585327975E+02  0.11863729864E+02 -0.80381677274E+01  0.33776064218E+02  0.00000000000E+00 0. -1.
         -5    1    5    5    0  502 -0.27841994677E+02  0.53274183224E+02  0.58292023397E+02  0.83865161167E+02  0.47000000000E+01 0.  1.
         13    1    6    6    0    0  0.28053684776E+02  0.14746989389E+02  0.71755854746E+02  0.78443518635E+02  0.00000000000E+00 0. -1.
        -14    1    6    6    0    0  0.30778937474E+01 -0.66734025020E+02  0.18679951731E+03  0.19838589465E+03  0.00000000000E+00 0.  1.
</event>
<event>
12    1  0.8493057E-002  0.1996776E+03  0.7818608E-02  0.1150354E+00
         21   -1    0    0  501  502  0.00000000000E+00  0.00000000000E+00  0.58018697426E+02  0.58018697426E+02  0.00000000000E+00 0.  1.
         21   -1    0    0  502  503 -0.00000000000E+00 -0.00000000000E+00 -0.68170650827E+03  0.68170650827E+03  0.00000000000E+00 0.  1.
         -6    2    1    2    0  503 -0.96071475183E+02  0.37565447400E+01 -0.31060263118E+03  0.36924943190E+03  0.17500659558E+03 0.  0.
        -24    2    3    3    0    0 -0.40884042111E+02  0.50956231070E+02 -0.89178680123E+02  0.13617408087E+03  0.79514155522E+02 0.  0.
          6    2    1    2  501    0  0.96071475183E+02 -0.37565447400E+01 -0.31308517967E+03  0.37047577379E+03  0.17316503477E+03 0.  0.
         24    2    5    5    0    0  0.99600500827E+02  0.47011420460E+02 -0.27591006989E+03  0.30727831261E+03  0.78506441247E+02 0.  0.
          5    1    5    5  501    0 -0.35290256441E+01 -0.50767965200E+02 -0.37175109781E+02  0.63197461181E+02  0.47000000000E+01 0. -1.
        -11    1    6    6    0    0  0.11183972726E+03  0.41028081996E+02 -0.22516771466E+03  0.25473894055E+03  0.00000000000E+00 0.  1.
         12    1    6    6    0    0 -0.12239226433E+02  0.59833384643E+01 -0.50742355230E+02  0.52539372066E+02  0.00000000000E+00 0. -1.
         -5    1    3    3    0  503 -0.55187433072E+02 -0.47199686330E+02 -0.22142395105E+03  0.23307535103E+03  0.47000000000E+01 0.  1.
         13    1    4    4    0    0  0.28513354107E+01  0.58172358279E+02 -0.56089826973E+02  0.80859273255E+02  0.00000000000E+00 0. -1.
        -14    1    4    4    0    0 -0.43735377522E+02 -0.72161272088E+01 -0.33088853150E+02  0.55314807617E+02  0.00000000000E+00 0.  1.
</event>
<event>
12    1  0.8493057E-002  0.2311368E+03  0.7818608E-02  0.1126714E+00
         21   -1    0    0  503  502  0.00000000000E+00  0.00000000000E+00  0.81152780613E+03  0.81152780613E+03  0.00000000000E+00 0. -1.
         21   -1    0    0  501  503 -0.00000000000E+00 -0.00000000000E+00 -0.66996281425E+02  0.66996281425E+02  0.00000000000E+00 0. -1.
          6    2    1    2  501    0  0.10392309487E+03 -0.10459247309E+03  0.29023664378E+03  0.37102764559E+03  0.17800171157E+03 0.  0.
         24    2    3    3    0    0 -0.18897620420E+02 -0.59413364083E+02  0.14501979590E+03  0.17548710528E+03  0.76667561773E+02 0.  0.
         -6    2    1    2    0  502 -0.10392309487E+03  0.10459247309E+03  0.45429488093E+03  0.50749644197E+03  0.17154942349E+03 0.  0.
        -24    2    5    5    0    0 -0.10437568665E+03  0.28080352502E+02  0.36933920642E+03  0.39306800989E+03  0.80051363774E+02 0.  0.
          5    1    3    3  501    0  0.12282071529E+03 -0.45179109010E+02  0.14521684788E+03  0.19554054031E+03  0.47000000000E+01 0. -1.
        -13    1    4    4    0    0 -0.78071868795E+01 -0.69679441306E+01 -0.81142120951E+01  0.13241784257E+02  0.00000000000E+00 0.  1.
         14    1    4    4    0    0 -0.11090433540E+02 -0.52445419952E+02  0.15313400799E+03  0.16224532102E+03  0.00000000000E+00 0. -1.
         -5    1    5    5    0  502  0.45259177966E+00  0.76512120590E+02  0.84955674504E+02  0.11442843207E+03  0.47000000000E+01 0.  1.
         13    1    6    6    0    0 -0.10474715465E+03  0.36322648737E+02  0.36845140166E+03  0.38476971893E+03  0.00000000000E+00 0. -1.
        -14    1    6    6    0    0  0.37146800240E+00 -0.82422962346E+01  0.88780476370E+00  0.82982909683E+01  0.00000000000E+00 0.  1.
</event>
<event>
12    1  0.8493057E-002  0.2066715E+03  0.7818608E-02  0.1144933E+00
         21   -1    0    0  501  502  0.00000000000E+00  0.00000000000E+00  0.33511962856E+03  0.33511962856E+03  0.00000000000E+00 0. -1.
         21   -1    0    0  502  503 -0.00000000000E+00 -0.00000000000E+00 -0.12902300603E+03  0.12902300603E+03  0.00000000000E+00 0. -1.
         -6    2    1    2    0  503 -0.10688680130E+03  0.36620765670E+02  0.64663556792E+02  0.21655137012E+03  0.17305274212E+03 0.  0.
        -24    2    3    3    0    0 -0.59067782583E+02 -0.20550959105E+02  0.95726337366E+02  0.13566718748E+03  0.73011706141E+02 0.  0.
          6    2    1    2  501    0  0.10688680130E+03 -0.36620765670E+02  0.14143306573E+03  0.24759126447E+03  0.16891492944E+03 0.  0.
         24    2    5    5    0    0  0.13844423131E+02  0.16653550196E+02  0.19875229738E+02  0.85438761070E+02  0.80223116058E+02 0.  0.
          5    1    5    5  501    0  0.93042378168E+02 -0.53274315866E+02  0.12155783599E+03  0.16215250340E+03  0.47000000000E+01 0. -1.
        -11    1    6    6    0    0 -0.22429822892E+02  0.20225696933E+02  0.34776600536E+02  0.46060696002E+02  0.00000000000E+00 0.  1.
         12    1    6    6    0    0  0.36274246022E+02 -0.35721467367E+01 -0.14901370798E+02  0.39378065067E+02  0.00000000000E+00 0. -1.
         -5    1    3    3    0  503 -0.47819018716E+02  0.57171724775E+02 -0.31062780574E+02  0.80884182643E+02  0.47000000000E+01 0.  1.
         13    1    4    4    0    0 -0.11148706170E+02  0.78808873930E+01 -0.94768444812E+01  0.16619645504E+02  0.00000000000E+00 0. -1.
        -14    1    4    4    0    0 -0.47919076413E+02 -0.28431846498E+02  0.10520318185E+03  0.11904754198E+03  0.00000000000E+00 0.  1.
</event>
<event>
12    1  0.8493057E-002  0.1938772E+03  0.7818608E-02  0.1155104E+00
         21   -1    0    0  501  502  0.00000000000E+00  0.00000000000E+00  0.32328274550E+02  0.32328274550E+02  0.00000000000E+00 0. -1.
         21   -1    0    0  502  503 -0.00000000000E+00 -0.00000000000E+00 -0.23622013262E+04  0.23622013262E+04  0.00000000000E+00 0. -1.
         -6    2    1    2    0  503  0.65766358909E+02 -0.58175647048E+02 -0.20183749012E+04  0.20276243712E+04  0.17237670644E+03 0.  0.
        -24    2    3    3    0    0  0.69404819857E+02 -0.10345522603E+03 -0.15803799823E+04  0.15872550742E+04  0.79106065174E+02 0.  0.
          6    2    1    2  501    0 -0.65766358909E+02  0.58175647048E+02 -0.31149815041E+03  0.36690522954E+03  0.17285464957E+03 0.  0.
         24    2    5    5    0    0  0.84612489913E+00 -0.12292983529E+02 -0.64138434663E+02  0.10117610078E+03  0.77272447847E+02 0.  0.
          5    1    5    5  501    0 -0.66612483808E+02  0.70468630576E+02 -0.24735971575E+03  0.26572912876E+03  0.47000000000E+01 0. -1.
        -11    1    6    6    0    0  0.31675409786E+01  0.30848704909E+02 -0.43166488377E+02  0.53150932534E+02  0.00000000000E+00 0.  1.
         12    1    6    6    0    0 -0.23214160795E+01 -0.43141688438E+02 -0.20971946286E+02  0.48025168244E+02  0.00000000000E+00 0. -1.
         -5    1    3    3    0  503 -0.36384609481E+01  0.45279578983E+02 -0.43799491892E+03  0.44036929692E+03  0.47000000000E+01 0.  1.
         13    1    4    4    0    0  0.28012624174E+02 -0.41661546663E+02 -0.26124889411E+03  0.26602890117E+03  0.00000000000E+00 0. -1.
        -14    1    4    4    0    0  0.41392195683E+02 -0.61793679368E+02 -0.13191310882E+04  0.13212261731E+04  0.00000000000E+00 0.  1.
</event>
<event>
12    1  0.8493057E-002  0.1895836E+03  0.7818608E-02  0.1158938E+00
         21   -1    0    0  503  502  0.00000000000E+00  0.00000000000E+00  0.17150353776E+03  0.17150353776E+03  0.00000000000E+00 0. -1.
         21   -1    0    0  501  503 -0.00000000000E+00 -0.00000000000E+00 -0.20975175512E+03  0.20975175512E+03  0.00000000000E+00 0. -1.
          6    2    1    2  501    0  0.80699847434E+02  0.49352107600E+01 -0.29883764775E+02  0.19148727750E+03  0.17098981363E+03 0.  0.
         24    2    3    3    0    0  0.91696792645E+02  0.40957829610E+02 -0.63028897500E+02  0.14109628926E+03  0.76483170265E+02 0.  0.
         -6    2    1    2    0  502 -0.80699847434E+02 -0.49352107600E+01 -0.83644525811E+01  0.18976801538E+03  0.17147919382E+03 0.  0.
        -24    2    5    5    0    0  0.95201454630E+01  0.95062528486E+00 -0.43988273200E+02  0.92477539072E+02  0.80781125243E+02 0.  0.
          5    1    3    3  501    0 -0.10996945211E+02 -0.36022618850E+02  0.33145132725E+02  0.50390988243E+02  0.47000000000E+01 0. -1.
        -11    1    4    4    0    0  0.57241821509E+02  0.21649716741E+02  0.60768366095E+01  0.61500116324E+02  0.00000000000E+00 0.  1.
         12    1    4    4    0    0  0.34454971136E+02  0.19308112870E+02 -0.69105734110E+02  0.79596172932E+02  0.00000000000E+00 0. -1.
         -5    1    5    5    0  502 -0.90219992897E+02 -0.58858360449E+01  0.35623820619E+02  0.97290476306E+02  0.47000000000E+01 0.  1.
         11    1    6    6    0    0  0.10303344812E+02  0.48127599084E+01  0.22849890212E+02  0.25523304154E+02  0.00000000000E+00 0. -1.
        -12    1    6    6    0    0 -0.78319934874E+00 -0.38621346235E+01 -0.66838163412E+02  0.66954234918E+02  0.00000000000E+00 0.  1.
</event>
<event>
12    1  0.8493057E-002  0.2911251E+03  0.7818608E-02  0.1089896E+00
         21   -1    0    0  501  502  0.00000000000E+00  0.00000000000E+00  0.56078367833E+03  0.56078367833E+03  0.00000000000E+00 0.  1.
         21   -1    0    0  502  503 -0.00000000000E+00 -0.00000000000E+00 -0.15823851452E+03  0.15823851452E+03  0.00000000000E+00 0.  1.
         -6    2    1    2    0  503  0.19285629919E+03 -0.13152025676E+03  0.12197608912E+03  0.31470448955E+03  0.17224871363E+03 0.  0.
        -24    2    3    3    0    0  0.26261405246E+02 -0.14222565268E+02  0.44217925228E+02  0.96573727917E+02  0.80494206276E+02 0.  0.
          6    2    1    2  501    0 -0.19285629919E+03  0.13152025676E+03  0.28056907468E+03  0.40431770330E+03  0.17396168962E+03 0.  0.
         24    2    5    5    0    0 -0.11230382400E+03  0.38351697225E+02  0.67777134986E+02  0.15840800169E+03  0.80102143593E+02 0.  0.
          5    1    5    5  501    0 -0.80552475199E+02  0.93168559533E+02  0.21279193969E+03  0.24590970161E+03  0.47000000000E+01 0. -1.
        -11    1    6    6    0    0 -0.10119277453E+03  0.84964012265E+01  0.74379906082E+02  0.12587508443E+03  0.00000000000E+00 0.  1.
         12    1    6    6    0    0 -0.11111049464E+02  0.29855295998E+02 -0.66027710953E+01  0.32532917260E+02  0.00000000000E+00 0. -1.
         -5    1    3    3    0  503  0.16659489395E+03 -0.11729769149E+03  0.77758163896E+02  0.21813076163E+03  0.47000000000E+01 0.  1.
         11    1    4    4    0    0 -0.24807718949E+02 -0.12711141240E+02 -0.16365288465E+01  0.27922647757E+02  0.00000000000E+00 0. -1.
        -12    1    4    4    0    0  0.51069124195E+02 -0.15114240285E+01  0.45854454075E+02  0.68651080160E+02  0.00000000000E+00 0.  1.
</event>
<event>
12    1  0.8493057E-002  0.1810303E+03  0.7818608E-02  0.1168547E+00
         21   -1    0    0  503  502  0.00000000000E+00  0.00000000000E+00  0.27876056384E+03  0.27876056384E+03  0.00000000000E+00 0. -1.
         21   -1    0    0  501  503 -0.00000000000E+00 -0.00000000000E+00 -0.12422415540E+03  0.12422415540E+03  0.00000000000E+00 0. -1.
          6    2    1    2  501    0 -0.33458385102E+02  0.44590770324E+02  0.13639714126E+03  0.22104788356E+03  0.16477313601E+03 0.  0.
         24    2    3    3    0    0 -0.62214154335E+02 -0.16524436032E+02  0.62824024160E+02  0.12106260328E+03  0.81028624055E+02 0.  0.
         -6    2    1    2    0  502  0.33458385102E+02 -0.44590770324E+02  0.18139267175E+02  0.18193683568E+03  0.17223292029E+03 0.  0.
        -24    2    5    5    0    0  0.24284308057E+02  0.41852039791E+02  0.63038368691E+01  0.94080757226E+02  0.80437116237E+02 0.  0.
          5    1    3    3  501    0  0.28755769233E+02  0.61115206356E+02  0.73573117100E+02  0.99985280276E+02  0.47000000000E+01 0. -1.
        -13    1    4    4    0    0 -0.59262402512E+02  0.10038189328E+02  0.87442931759E+01  0.60739281026E+02  0.00000000000E+00 0.  1.
         14    1    4    4    0    0 -0.29517518240E+01 -0.26562625360E+02  0.54079730984E+02  0.60323322257E+02  0.00000000000E+00 0. -1.
         -5    1    5    5    0  502  0.91740770460E+01 -0.86442810115E+02  0.11835430306E+02  0.87856078451E+02  0.47000000000E+01 0.  1.
         13    1    6    6    0    0 -0.29074917892E+02  0.74284742021E+01 -0.18181941656E+01  0.30063913741E+02  0.00000000000E+00 0. -1.
        -14    1    6    6    0    0  0.53359225949E+02  0.34423565589E+02  0.81220310347E+01  0.64016843485E+02  0.00000000000E+00 0.  1.
</event>
<event>
12    1  0.8493057E-002  0.1993705E+03  0.7818608E-02  0.1150355E+00
         21   -1    0    0  501  502  0.00000000000E+00  0.00000000000E+00  0.49649114346E+03  0.49649114346E+03  0.00000000000E+00 0. -1.
         21   -1    0    0  502  503 -0.00000000000E+00 -0.00000000000E+00 -0.81021571217E+02  0.81021571217E+02  0.00000000000E+00 0. -1.
         -6    2    1    2    0  503  0.37872840966E+02 -0.92659750558E+02  0.24149352754E+03  0.31290685401E+03  0.17196335071E+03 0.  0.
        -24    2    3    3    0    0 -0.38433090344E+02 -0.82750186428E+02  0.16222606921E+03  0.20233463976E+03  0.79355611824E+02 0.  0.
          6    2    1    2  501    0 -0.37872840966E+02  0.92659750558E+02  0.17397604470E+03  0.26460586066E+03  0.17241930261E+03 0.  0.
         24    2    5    5    0    0 -0.32959951916E+02  0.91052518349E+02  0.42449160941E+02  0.13289355742E+03  0.80509917471E+02 0.  0.
          5    1    5    5  501    0 -0.49128890504E+01  0.16072322093E+01  0.13152688376E+03  0.13171230324E+03  0.47000000000E+01 0. -1.
        -11    1    6    6    0    0  0.19094394350E+02  0.27181613564E+02 -0.10633752935E+02  0.34878542301E+02  0.00000000000E+00 0.  1.
         12    1    6    6    0    0 -0.52054346266E+02  0.63870904785E+02  0.53082913876E+02  0.98015015119E+02  0.00000000000E+00 0. -1.
         -5    1    3    3    0  503  0.76305931311E+02 -0.99095641300E+01  0.79267458328E+02  0.11057221425E+03  0.47000000000E+01 0.  1.
         11    1    4    4    0    0 -0.41436004324E+00  0.14353897885E+02  0.88585835307E+01  0.16872479987E+02  0.00000000000E+00 0. -1.
        -12    1    4    4    0    0 -0.38018730301E+02 -0.97104084313E+02  0.15336748568E+03  0.18546215978E+03  0.00000000000E+00 0.  1.
</event>
<event>
12    1  0.8493057E-002  0.2351703E+03  0.7818608E-02  0.1123086E+00
         21   -1    0    0  501  502  0.00000000000E+00  0.00000000000E+00  0.21152216350E+03  0.21152216350E+03  0.00000000000E+00 0. -1.
         21   -1    0    0  502  503 -0.00000000000E+00 -0.00000000000E+00 -0.45540960506E+03  0.45540960506E+03  0.00000000000E+00 0.  1.
         -6    2    1    2    0  503  0.16025185979E+03 -0.22904118531E+02 -0.33965279692E+03  0.41301036211E+03  0.17031817152E+03 0.  0.
        -24    2    3    3    0    0  0.11330649488E+03 -0.77613232466E+02 -0.27500589736E+03  0.31606570751E+03  0.73533069067E+02 0.  0.
          6    2    1    2  501    0 -0.16025185979E+03  0.22904118531E+02  0.95765355355E+02  0.25392140645E+03  0.17058669396E+03 0.  0.
         24    2    5    5    0    0  0.15648137849E+02  0.15154986319E+02  0.16605719323E+02  0.60817299306E+02  0.54299688325E+02 0.  0.
          5    1    5    5  501    0 -0.17589999763E+03  0.77491322119E+01  0.79159636032E+02  0.19310410714E+03  0.47000000000E+01 0. -1.
        -11    1    6    6    0    0  0.16701899842E+01  0.28554362950E+02  0.26570932245E+02  0.39040435685E+02  0.00000000000E+00 0.  1.
         12    1    6    6    0    0  0.13977947865E+02 -0.13399376631E+02 -0.99652129218E+01  0.21776863621E+02  0.00000000000E+00 0. -1.
         -5    1    3    3    0  503  0.46945364901E+02  0.54709113935E+02 -0.64646899561E+02  0.96944654603E+02  0.47000000000E+01 0.  1.
         13    1    4    4    0    0 -0.77808357028E+01 -0.18379755337E+02 -0.49058303341E+02  0.52962948720E+02  0.00000000000E+00 0. -1.
        -14    1    4    4    0    0  0.12108733059E+03 -0.59233477129E+02 -0.22594759402E+03  0.26310275879E+03  0.00000000000E+00 0.  1.
</event>
<event>
12    1  0.8493057E-002  0.1960300E+03  0.7818608E-02  0.1154377E+00
         21   -1    0    0  503  502  0.00000000000E+00  0.00000000000E+00  0.83091328425E+03  0.83091328425E+03  0.00000000000E+00 0. -1.
         21   -1    0    0  501  503 -0.00000000000E+00 -0.00000000000E+00 -0.15658977383E+03  0.15658977383E+03  0.00000000000E+00 0.  1.
          6    2    1    2  501    0 -0.62744908295E+01  0.80637762775E+02 -0.78364649577E+02  0.21111322921E+03  0.17856640004E+03 0.  0.
         24    2    3    3    0    0  0.41643229489E+01  0.11789983031E+03 -0.24023039830E+02  0.14423624468E+03  0.79430952806E+02 0.  0.
         -6    2    1    2    0  502  0.62744908295E+01 -0.80637762775E+02  0.75268816000E+03  0.77638982887E+03  0.17233653747E+03 0.  0.
        -24    2    5    5    0    0  0.26515021611E+02 -0.52357847560E+02  0.20489198057E+03  0.22747073020E+03  0.79484708099E+02 0.  0.
          5    1    3    3  501    0 -0.10438813778E+02 -0.37262067534E+02 -0.54341609747E+02  0.66876984531E+02  0.47000000000E+01 0. -1.
        -13    1    4    4    0    0  0.11928050265E+02  0.27763604503E+02  0.26867980194E+02  0.40434941298E+02  0.00000000000E+00 0.  1.
         14    1    4    4    0    0 -0.77637273157E+01  0.90136225806E+02 -0.50891020023E+02  0.10380130338E+03  0.00000000000E+00 0. -1.
         -5    1    5    5    0  502 -0.20240530781E+02 -0.28279915215E+02  0.54779617942E+03  0.54891909867E+03  0.47000000000E+01 0.  1.
         13    1    6    6    0    0  0.77224318496E+01  0.32729531351E+01  0.13883530481E+03  0.13908842524E+03  0.00000000000E+00 0. -1.
        -14    1    6    6    0    0  0.18792589761E+02 -0.55630800695E+02  0.66056675769E+02  0.88382304958E+02  0.00000000000E+00 0.  1.
</event>
<event>
12    1  0.8493057E-002  0.2174555E+03  0.7818608E-02  0.1135967E+00
         21   -1    0    0  503  502  0.00000000000E+00  0.00000000000E+00  0.10345220710E+03  0.10345220710E+03  0.00000000000E+00 0.  1.
         21   -1    0    0  501  503 -0.00000000000E+00 -0.00000000000E+00 -0.52462061304E+03  0.52462061304E+03  0.00000000000E+00 0.  1.
          6    2    1    2  501    0 -0.64529522743E+02 -0.11584633403E+03 -0.32522466570E+03  0.39122625278E+03  0.17234403173E+03 0.  0.
         24    2    3    3    0    0 -0.58290522027E+02 -0.14681789814E+03 -0.22808954310E+03  0.28897418700E+03  0.80795797600E+02 0.  0.
         -6    2    1    2    0  502  0.64529522743E+02  0.11584633403E+03 -0.95943740238E+02  0.23684656735E+03  0.17119188871E+03 0.  0.
        -24    2    5    5    0    0 -0.31379492531E+02  0.49176103659E+02 -0.34128920757E+02  0.10460958033E+03  0.79846223094E+02 0.  0.
          5    1    3    3  501    0 -0.62390007159E+01  0.30971564111E+02 -0.97135122607E+02  0.10225206579E+03  0.47000000000E+01 0. -1.
        -11    1    4    4    0    0 -0.61222118548E+02 -0.13986138168E+03 -0.23398959205E+03  0.27939306196E+03  0.00000000000E+00 0.  1.
         12    1    4    4    0    0  0.29315965205E+01 -0.69565164607E+01  0.59000489503E+01  0.95811250405E+01  0.00000000000E+00 0. -1.
         -5    1    5    5    0  502  0.95909015274E+02  0.66670230368E+02 -0.61814819481E+02  0.13223698702E+03  0.47000000000E+01 0.  1.
         13    1    6    6    0    0 -0.18368102046E+02  0.32568880809E+02 -0.60325559600E+02  0.70973884711E+02  0.00000000000E+00 0. -1.
        -14    1    6    6    0    0 -0.13011390484E+02  0.16607222849E+02  0.26196638843E+02  0.33635695619E+02  0.00000000000E+00 0.  1.
</event>
<event>
12    1  0.8493057E-002  0.2468767E+03  0.7818608E-02  0.1116000E+00
         21   -1    0    0  501  502  0.00000000000E+00  0.00000000000E+00  0.59280796543E+02  0.59280796543E+02  0.00000000000E+00 0.  1.
         21   -1    0    0  502  503 -0.00000000000E+00 -0.00000000000E+00 -0.12201186870E+04  0.12201186870E+04  0.00000000000E+00 0. -1.
         -6    2    1    2    0  503 -0.56440774699E+01 -0.17713970575E+03 -0.84154793627E+03  0.87579794420E+03  0.16555596961E+03 0.  0.
        -24    2    3    3    0    0 -0.31645231095E+02 -0.27502039179E+02 -0.27985884384E+03  0.29391804440E+03  0.79429601140E+02 0.  0.
          6    2    1    2  501    0  0.56440774699E+01  0.17713970575E+03 -0.31928995420E+03  0.40360153935E+03  0.17186563574E+03 0.  0.
         24    2    5    5    0    0  0.67065375385E+02  0.13893522505E+03 -0.21404968882E+03  0.27581358358E+03  0.80343651068E+02 0.  0.
          5    1    5    5  501    0 -0.61421297915E+02  0.38204480705E+02 -0.10524026538E+03  0.12778795577E+03  0.47000000000E+01 0. -1.
        -11    1    6    6    0    0  0.10696607578E+02 -0.47444639999E+01  0.26835904971E+00  0.11704672952E+02  0.00000000000E+00 0.  1.
         12    1    6    6    0    0  0.56368767807E+02  0.14367968905E+03 -0.21431804787E+03  0.26410891063E+03  0.00000000000E+00 0. -1.
         -5    1    3    3    0  503  0.26001153626E+02 -0.14963766657E+03 -0.56168909243E+03  0.58187989981E+03  0.47000000000E+01 0.  1.
         13    1    4    4    0    0  0.15785168490E+02 -0.17842739551E+02 -0.19315008920E+03  0.19461369905E+03  0.00000000000E+00 0. -1.
        -14    1    4    4    0    0 -0.47430399586E+02 -0.96592996288E+01 -0.86708754635E+02  0.99304345345E+02  0.00000000000E+00 0.  1.
</event>
<event>
12    1  0.8493057E-002  0.2125455E+03  0.7818608E-02  0.1139953E+00
         21   -1    0    0  501  502  0.00000000000E+00  0.00000000000E+00  0.14893884974E+03  0.14893884974E+03  0.00000000000E+00 0. -1.
         21   -1    0    0  502  503 -0.00000000000E+00 -0.00000000000E+00 -0.34808115753E+03  0.34808115753E+03  0.00000000000E+00 0. -1.
         -6    2    1    2    0  503 -0.90945653329E+02  0.85757214345E+02 -0.19185183819E+03  0.28632627887E+03  0.17190171169E+03 0.  0.
        -24    2    3    3    0    0 -0.32251714089E+02  0.86426431067E+01 -0.16095958301E+03  0.18450262233E+03  0.83775664386E+02 0.  0.
          6    2    1    2  501    0  0.90945653329E+02 -0.85757214345E+02 -0.72904696077E+01  0.21069372840E+03  0.16944994709E+03 0.  0.
         24    2    5    5    0    0 -0.89203078720E+01 -0.10250533501E+02 -0.23391386413E+02  0.84377464286E+02  0.79923427050E+02 0.  0.
          5    1    5    5  501    0  0.99865961201E+02 -0.75506680844E+02  0.16100916806E+02  0.12631626412E+03  0.47000000000E+01 0. -1.
        -13    1    6    6    0    0 -0.15250287325E+02  0.32916206178E+02 -0.17746310007E+02  0.40385386113E+02  0.00000000000E+00 0.  1.
         14    1    6    6    0    0  0.63299794533E+01 -0.43166739679E+02 -0.56450764059E+01  0.43992078173E+02  0.00000000000E+00 0. -1.
         -5    1    3    3    0  503 -0.58693939240E+02  0.77114571239E+02 -0.30892255180E+02  0.10182365654E+03  0.47000000000E+01 0.  1.
         13    1    4    4    0    0 -0.39577019539E+02  0.39435389148E+02 -0.12288530799E+03  0.13498996004E+03  0.00000000000E+00 0. -1.
        -14    1    4    4    0    0  0.73253054497E+01 -0.30792746041E+02 -0.38074275020E+02  0.49512662289E+02  0.00000000000E+00 0.  1.
</event>
<event>
12    1  0.8493057E-002  0.1826132E+03  0.7818608E-02  0.1165370E+00
         21   -1    0    0  501  502  0.00000000000E+00  0.00000000000E+00  0.19829889212E+03  0.19829889212E+03  0.00000000000E+00 0.  1.
         21   -1    0    0  502  503 -0.00000000000E+00 -0.00000000000E+00 -0.20499364323E+03  0.20499364323E+03  0.00000000000E+00 0.  1.
         -6    2    1    2    0  503  0.32350720334E+02  0.50744651516E+02 -0.89142003466E+02  0.20320894153E+03  0.17241226283E+03 0.  0.
        -24    2    3    3    0    0  0.50198408698E+02  0.59394401418E+02 -0.23434274148E+00  0.11199479631E+03  0.80592830504E+02 0.  0.
          6    2    1    2  501    0 -0.32350720334E+02 -0.50744651516E+02  0.82447252352E+02  0.20008359382E+03  0.17208807725E+03 0.  0.
         24    2    5    5    0    0 -0.15737669270E+02 -0.46047929301E+02  0.12373132031E+03  0.15508896156E+03  0.79843974996E+02 0.  0.
          5    1    5    5  501    0 -0.16613051064E+02 -0.46967222148E+01 -0.41284067961E+02  0.44994632265E+02  0.47000000000E+01 0. -1.
        -11    1    6    6    0    0  0.23536755163E+01 -0.54208733769E+02  0.35942057246E+02  0.65084238372E+02  0.00000000000E+00 0.  1.
         12    1    6    6    0    0 -0.18091344786E+02  0.81608044683E+01  0.87789263067E+02  0.90004723185E+02  0.00000000000E+00 0. -1.
         -5    1    3    3    0  503 -0.17847688363E+02 -0.86497499024E+01 -0.88907660724E+02  0.91214145223E+02  0.47000000000E+01 0.  1.
         11    1    4    4    0    0 -0.13677653733E+02 -0.75672282827E+01  0.10502646761E+02  0.18832066921E+02  0.00000000000E+00 0. -1.
        -12    1    4    4    0    0  0.63876062431E+02  0.66961629701E+02 -0.10736989503E+02  0.93162729390E+02  0.00000000000E+00 0.  1.
</event>
<event>
12    1  0.8493057E-002  0.2117228E+03  0.7818608E-02  0.1140515E+00
         21   -1    0    0  503  502  0.00000000000E+00  0.00000000000E+00  0.16489324263E+04  0.16489324263E+04  0.00000000000E+00 0. -1.
         21   -1    0    0  501  503 -0.00000000000E+00 -0.00000000000E+00 -0.37427611357E+02  0.37427611357E+02  0.00000000000E+00 0.  1.
          6    2    1    2  501    0 -0.86259900002E+02  0.88353732930E+02  0.35825174532E+03  0.41534870015E+03  0.17006786064E+03 0.  0.
         24    2    3    3    0    0  0.18132665620E+02  0.61537332409E+02  0.19706778429E+03  0.22139178126E+03  0.77865090768E+02 0.  0.
         -6    2    1    2    0  502  0.86259900002E+02 -0.88353732930E+02  0.12532530696E+04  0.12710113375E+04  0.17198665960E+03 0.  0.
        -24    2    5    5    0    0 -0.83454332656E+01 -0.85118470849E+02  0.73319859480E+03  0.74239107419E+03  0.79053951747E+02 0.  0.
          5    1    3    3  501    0 -0.10439256562E+03  0.26816400521E+02  0.16118396103E+03  0.19395691889E+03  0.47000000000E+01 0. -1.
        -13    1    4    4    0    0 -0.32850332457E+01  0.11379726119E+02 -0.44282760607E+01  0.12645127078E+02  0.00000000000E+00 0.  1.
         14    1    4    4    0    0  0.21417698865E+02  0.50157606290E+02  0.20149606035E+03  0.20874665418E+03  0.00000000000E+00 0. -1.
         -5    1    5    5    0  502  0.94605333267E+02 -0.32352620809E+01  0.52005447482E+03  0.52862026331E+03  0.47000000000E+01 0.  1.
         13    1    6    6    0    0 -0.84492318704E+01 -0.10005966630E+03  0.66779196898E+03  0.67529951886E+03  0.00000000000E+00 0. -1.
        -14    1    6    6    0    0  0.10379860477E+00  0.14941195449E+02  0.65406625816E+02  0.67091555328E+02  0.00000000000E+00 0.  1.
</event>
<event>
12    1  0.8493057E-002  0.1795470E+03  0.7818608E-02  0.1168468E+00
         21   -1    0    0  503  502  0.00000000000E+00  0.00000000000E+00  0.17977264881E+03  0.17977264881E+03  0.00000000000E+00 0.  1.
         21   -1    0    0  501  503 -0.00000000000E+00 -0.00000000000E+00 -0.18162650690E+03  0.18162650690E+03  0.00000000000E+00 0.  1.
          6    2    1    2  501    0 -0.17649354132E+02 -0.47727935714E+02  0.23171515306E+02  0.18103604665E+03  0.17218500376E+03 0.  0.
         24    2    3    3    0    0  0.37635985043E+02 -0.39104924539E+02 -0.32894926114E+02  0.10168643479E+03  0.79450565531E+02 0.  0.
         -6    2    1    2    0  502  0.17649354132E+02  0.47727935714E+02 -0.25025373399E+02  0.18036310906E+03  0.17121660622E+03 0.  0.
        -24    2    5    5    0    0 -0.54561901039E+02  0.24485632519E+02  0.32346905387E+01  0.99274322873E+02  0.79173106003E+02 0.  0.
          5    1    3    3  501    0 -0.55285339174E+02 -0.86230111744E+01  0.56066441420E+02  0.79349611863E+02  0.47000000000E+01 0. -1.
        -13    1    4    4    0    0  0.55764623991E+02 -0.30309936777E+02 -0.42306004029E+00  0.63470973965E+02  0.00000000000E+00 0.  1.
         14    1    4    4    0    0 -0.18128638948E+02 -0.87949877622E+01 -0.32471866074E+02  0.38215460826E+02  0.00000000000E+00 0. -1.
         -5    1    5    5    0  502  0.72211255170E+02  0.23242303194E+02 -0.28260063937E+02  0.81088786184E+02  0.47000000000E+01 0.  1.
         13    1    6    6    0    0  0.37412385849E+01 -0.18091736568E+02 -0.16132582304E+02  0.24526883414E+02  0.00000000000E+00 0. -1.
        -14    1    6    6    0    0 -0.58303139624E+02  0.42577369087E+02  0.19367272843E+02  0.74747439459E+02  0.00000000000E+00 0.  1.
</event>
<event>
12    1  0.8493057E-002  0.2146751E+03  0.7818608E-02  0.1138049E+00
         21   -1    0    0  503  502  0.00000000000E+00  0.00000000000E+00  0.17295832039E+03  0.17295832039E+03  0.00000000000E+00 0. -1.
         21   -1    0    0  501  503 -0.00000000000E+00 -0.00000000000E+00 -0.35115593566E+03  0.35115593566E+03  0.00000000000E+00 0.  1.
          6    2    1    2  501    0 -0.12611846947E+03 -0.86173190223E+01 -0.21834142706E+03  0.30571800277E+03  0.17265686178E+03 0.  0.
         24    2    3    3    0    0 -0.86137187939E+02  0.42564347886E+02 -0.20371950425E+03  0.23898003361E+03  0.79865394248E+02 0.  0.
         -6    2    1    2    0  502  0.12611846947E+03  0.86173190223E+01  0.40143811781E+02  0.21839625328E+03  0.17350870668E+03 0.  0.
        -24    2    5    5    0    0  0.57094118132E+02  0.64824616987E+02  0.51358272814E+02  0.12855486216E+03  0.80166770588E+02 0.  0.
          5    1    3    3  501    0 -0.39981281527E+02 -0.51181666908E+02 -0.14621922810E+02  0.66737969154E+02  0.47000000000E+01 0. -1.
        -11    1    4    4    0    0 -0.45632512394E+02  0.41209070351E+02 -0.47802271095E+02  0.77881774430E+02  0.00000000000E+00 0.  1.
         12    1    4    4    0    0 -0.40504675545E+02  0.13552775356E+01 -0.15591723315E+03  0.16109825918E+03  0.00000000000E+00 0. -1.
         -5    1    5    5    0  502  0.69024351335E+02 -0.56207297965E+02 -0.11214461033E+02  0.89841391118E+02  0.47000000000E+01 0.  1.
         13    1    6    6    0    0  0.57722462072E+02  0.54800380852E+02  0.35164850829E+01  0.79670132650E+02  0.00000000000E+00 0. -1.
        -14    1    6    6    0    0 -0.62834394039E+00  0.10024236135E+02  0.47841787731E+02  0.48884729513E+02  0.00000000000E+00 0.  1.
</event>
<event>
12    1  0.8493057E-002  0.2168319E+03  0.7818608E-02  0.1136397E+00
         21   -1    0    0  501  502  0.00000000000E+00  0.00000000000E+00  0.41601007072E+03  0.41601007072E+03  0.00000000000E+00 0.  1.
         21   -1    0    0  502  503 -0.00000000000E+00 -0.00000000000E+00 -0.12214073218E+03  0.12214073218E+03  0.00000000000E+00 0. -1.
         -6    2    1    2    0  503  0.12667771894E+03  0.35279236591E+02  0.71758970845E+02  0.22774929489E+03  0.17154743488E+03 0.  0.
        -24    2    3    3    0    0  0.29116680845E+02 -0.22617664772E+02  0.71224533683E+02  0.11420378435E+03  0.81303322793E+02 0.  0.
          6    2    1    2  501    0 -0.12667771894E+03 -0.35279236591E+02  0.22211036770E+03  0.31040150801E+03  0.17240711043E+03 0.  0.
         24    2    5    5    0    0 -0.40055186944E+02 -0.78150398437E+02  0.97889547168E+02  0.15293944331E+03  0.78078211414E+02 0.  0.
          5    1    5    5  501    0 -0.86622531995E+02  0.42871161847E+02  0.12422082053E+03  0.15746206470E+03  0.47000000000E+01 0. -1.
        -11    1    6    6    0    0 -0.67770055066E+01  0.61185881894E+01  0.49284946390E+02  0.50123555996E+02  0.00000000000E+00 0.  1.
         12    1    6    6    0    0 -0.33278181437E+02 -0.84268986627E+02  0.48604600778E+02  0.10281588731E+03  0.00000000000E+00 0. -1.
         -5    1    3    3    0  503  0.97561038094E+02  0.57896901363E+02  0.53443716145E+00  0.11354551054E+03  0.47000000000E+01 0.  1.
         13    1    4    4    0    0 -0.24653091280E+02 -0.18761936020E+02  0.98333782960E+01  0.32503545677E+02  0.00000000000E+00 0. -1.
        -14    1    4    4    0    0  0.53769772125E+02 -0.38557287522E+01  0.61391155387E+02  0.81700238668E+02  0.00000000000E+00 0.  1.
</event>
<event>
12    1  0.8493057E-002  0.3502011E+03  0.7818608E-02  0.1062727E+00
         21   -1    0    0  501  502  0.00000000000E+00  0.00000000000E+00  0.26034367361E+03  0.26034367361E+03  0.00000000000E+00 0.  1.
         21   -1    0    0  502  503 -0.00000000000E+00 -0.00000000000E+00 -0.72642484792E+03  0.72642484792E+03  0.00000000000E+00 0.  1.
         -6    2    1    2    0  503 -0.26882626882E+03 -0.14258689246E+03 -0.52742104806E+03  0.63309856480E+03  0.17332699187E+03 0.  0.
        -24    2    3    3    0    0 -0.25374346236E+03 -0.17110731022E+03 -0.49241103884E+03  0.58525824681E+03  0.79969544144E+02 0.  0.
          6    2    1    2  501    0  0.26882626882E+03  0.14258689246E+03  0.61339873748E+02  0.35366995672E+03  0.16947351849E+03 0.  0.
         24    2    5    5    0    0  0.11300167754E+03  0.65094921818E+02 -0.38540362055E+02  0.15296006592E+03  0.70033522592E+02 0.  0.
          5    1    5    5  501    0  0.15582459128E+03  0.77491970641E+02  0.99880235803E+02  0.20070989080E+03  0.47000000000E+01 0. -1.
        -13    1    6    6    0    0  0.71680441241E+02  0.61860474793E+02  0.23846013555E+01  0.94712672445E+02  0.00000000000E+00 0.  1.
         14    1    6    6    0    0  0.41321236297E+02  0.32344470254E+01 -0.40924963411E+02  0.58247393477E+02  0.00000000000E+00 0. -1.
         -5    1    3    3    0  503 -0.15082806459E+02  0.28520417758E+02 -0.35010009217E+02  0.47840317988E+02  0.47000000000E+01 0.  1.
         11    1    4    4    0    0 -0.97903654910E+02 -0.55896260771E+02 -0.11526452425E+03  0.16123097768E+03  0.00000000000E+00 0. -1.
        -12    1    4    4    0    0 -0.15583980745E+03 -0.11521104945E+03 -0.37714651459E+03  0.42402726913E+03  0.00000000000E+00 0.  1.
</event>
<event>
12    1  0.8493057E-002  0.2459613E+03  0.7818608E-02  0.1116057E+00
         21   -1    0    0  503  502  0.00000000000E+00  0.00000000000E+00  0.80029462000E+03  0.80029462000E+03  0.00000000000E+00 0. -1.
         21   -1    0    0  501  503 -0.00000000000E+00 -0.00000000000E+00 -0.86034214659E+02  0.86034214659E+02  0.00000000000E+00 0. -1.
          6    2    1    2  501    0  0.17422376454E+03 -0.18766395754E+02  0.51324210186E+03  0.56867282408E+03  0.17107082740E+03 0.  0.
         24    2    3    3    0    0  0.19914089491E+03 -0.11925174771E+02  0.41440500181E+03  0.46640587910E+03  0.77483112431E+02 0.  0.
         -6    2    1    2    0  502 -0.17422376454E+03  0.18766395754E+02  0.20101830349E+03  0.31765601058E+03  0.17260036206E+03 0.  0.
        -24    2    5    5    0    0 -0.13901645685E+03 -0.53156518679E+00  0.56460114689E+02  0.16755229391E+03  0.74566539455E+02 0.  0.
          5    1    3    3  501    0 -0.24917130369E+02 -0.68412209834E+01  0.98837100045E+02  0.10226694498E+03  0.47000000000E+01 0. -1.
        -11    1    4    4    0    0  0.26136708872E+02 -0.82463425479E+01  0.15269054918E+02  0.31373137461E+02  0.00000000000E+00 0.  1.
         12    1    4    4    0    0  0.17300418603E+03 -0.36788322231E+01  0.39913594690E+03  0.43503274164E+03  0.00000000000E+00 0. -1.
         -5    1    5    5    0  502 -0.35207307685E+02  0.19297960941E+02  0.14455818880E+03  0.15010371668E+03  0.47000000000E+01 0.  1.
         11    1    6    6    0    0 -0.48859034550E+02 -0.26865338281E+01 -0.16406767104E+02  0.51610122340E+02  0.00000000000E+00 0. -1.
        -12    1    6    6    0    0 -0.90157422302E+02  0.21549686413E+01  0.72866881792E+02  0.11594217157E+03  0.00000000000E+00 0.  1.
</event>
<event>
12    1  0.8493057E-002  0.1880472E+03  0.7818608E-02  0.1160531E+00
         21   -1    0    0  501  502  0.00000000000E+00  0.00000000000E+00  0.20287965585E+02  0.20287965585E+02  0.00000000000E+00 0. -1.
         21   -1    0    0  502  503 -0.00000000000E+00 -0.00000000000E+00 -0.17728532608E+04  0.17728532608E+04  0.00000000000E+00 0. -1.
         -6    2    1    2    0  503 -0.18739615158E+02 -0.72218707590E+02 -0.10169673859E+04  0.10342071443E+04  0.17261239339E+03 0.  0.
        -24    2    3    3    0    0 -0.43060707273E+02 -0.97340867442E+02 -0.94095478714E+03  0.95040592943E+03  0.80907665036E+02 0.  0.
          6    2    1    2  501    0  0.18739615158E+02  0.72218707590E+02 -0.73559790934E+03  0.75893408215E+03  0.17120146588E+03 0.  0.
         24    2    5    5    0    0  0.41113860171E+02  0.48369344504E+02 -0.70946204179E+03  0.71680840670E+03  0.80299191699E+02 0.  0.
          5    1    5    5  501    0 -0.22374245013E+02  0.23849363086E+02 -0.26135867547E+02  0.42125675448E+02  0.47000000000E+01 0. -1.
        -13    1    6    6    0    0  0.89185329306E+01 -0.18510754038E+02 -0.67190305279E+02  0.70261834364E+02  0.00000000000E+00 0.  1.
         14    1    6    6    0    0  0.32195327241E+02  0.66880098543E+02 -0.64227173651E+03  0.64654657233E+03  0.00000000000E+00 0. -1.
         -5    1    3    3    0  503  0.24321092115E+02  0.25122159852E+02 -0.76012598757E+02  0.83801214830E+02  0.47000000000E+01 0.  1.
         13    1    4    4    0    0 -0.51985327178E+02 -0.67181512304E+02 -0.42008965558E+03  0.42859205378E+03  0.00000000000E+00 0. -1.
        -14    1    4    4    0    0  0.89246199053E+01 -0.30159355138E+02 -0.52086513156E+03  0.52181387565E+03  0.00000000000E+00 0.  1.
</event>
<event>
12    1  0.8493057E-002  0.1986107E+03  0.7818608E-02  0.1154202E+00
         21   -1    0    0  503  502  0.00000000000E+00  0.00000000000E+00  0.60153379213E+03  0.60153379213E+03  0.00000000000E+00 0.  1.
         21   -1    0    0  501  503 -0.00000000000E+00 -0.00000000000E+00 -0.18603032796E+03  0.18603032796E+03  0.00000000000E+00 0. -1.
          6    2    1    2  501    0  0.65314807597E+02  0.18473338346E+01 -0.11265581814E+03  0.22833647799E+03  0.18755473091E+03 0.  0.
         24    2    3    3    0    0  0.89914637744E+02 -0.32046820458E+02 -0.18818743572E+02  0.12547029355E+03  0.79227575192E+02 0.  0.
         -6    2    1    2    0  502 -0.65314807597E+02 -0.18473338346E+01  0.52815928231E+03  0.55922764210E+03  0.17179607523E+03 0.  0.
        -24    2    5    5    0    0 -0.52636193605E+02 -0.65782883471E+02  0.27870435678E+03  0.30135489901E+03  0.77721940474E+02 0.  0.
          5    1    3    3  501    0 -0.24599830147E+02  0.33894154293E+02 -0.93837074570E+02  0.10286618445E+03  0.47000000000E+01 0. -1.
        -11    1    4    4    0    0  0.12747291584E+02  0.14455912548E+02  0.19632753712E+02  0.27512031344E+02  0.00000000000E+00 0.  1.
         12    1    4    4    0    0  0.77167346160E+02 -0.46502733006E+02 -0.38451497284E+02  0.97958262203E+02  0.00000000000E+00 0. -1.
         -5    1    5    5    0  502 -0.12678613992E+02  0.63935549637E+02  0.24945492553E+03  0.25787274310E+03  0.47000000000E+01 0.  1.
         13    1    6    6    0    0  0.16882557645E+02 -0.82313668694E+01  0.20359933553E+02  0.27700235512E+02  0.00000000000E+00 0. -1.
        -14    1    6    6    0    0 -0.69518751249E+02 -0.57551516602E+02  0.25834442323E+03  0.27365466349E+03  0.00000000000E+00 0.  1.
</event>
<event>
12    1  0.8493057E-002  0.1781504E+03  0.7818608E-02  0.1169722E+00
         21   -1    0    0  501  502  0.00000000000E+00  0.00000000000E+00  0.19261894241E+03  0.19261894241E+03  0.00000000000E+00 0. -1.
         21   -1    0    0  502  503 -0.00000000000E+00 -0.00000000000E+00 -0.26597955722E+03  0.26597955722E+03  0.00000000000E+00 0. -1.
         -6    2    1    2    0  503 -0.52412645032E+01  0.43922884622E+02 -0.17846284544E+03  0.25216374192E+03  0.17257136173E+03 0.  0.
        -24    2    3    3    0    0  0.20649812538E+02  0.18919259640E+02 -0.19491102442E+03  0.21231199511E+03  0.79383390482E+02 0.  0.
          6    2    1    2  501    0  0.52412645032E+01 -0.43922884622E+02  0.10510223064E+03  0.20643475771E+03  0.17208178189E+03 0.  0.
         24    2    5    5    0    0 -0.56785127837E+02 -0.43364241565E+02  0.32190383943E+02  0.11059211158E+03  0.78034518864E+02 0.  0.
          5    1    5    5  501    0  0.62026392340E+02 -0.55864305764E+00  0.72911846694E+02  0.95842646130E+02  0.47000000000E+01 0. -1.
        -13    1    6    6    0    0  0.18527230274E+02 -0.89320788136E+01 -0.26757805029E+01  0.20741265507E+02  0.00000000000E+00 0.  1.
         14    1    6    6    0    0 -0.75312358111E+02 -0.34432162751E+02  0.34866164446E+02  0.89850846068E+02  0.00000000000E+00 0. -1.
         -5    1    3    3    0  503 -0.25891077041E+02  0.25003624983E+02  0.16448178973E+02  0.39851746814E+02  0.47000000000E+01 0.  1.
         13    1    4    4    0    0  0.19479059063E+02  0.48149444120E+02 -0.95808023211E+02  0.10898155818E+03  0.00000000000E+00 0. -1.
        -14    1    4    4    0    0  0.11707534752E+01 -0.29230184480E+02 -0.99103001206E+02  0.10333043693E+03  0.00000000000E+00 0.  1.
</event>
<event>
12    1  0.8493057E-002  0.2624259E+03  0.7818608E-02  0.1106102E+00
         21   -1    0    0  503  502  0.00000000000E+00  0.00000000000E+00  0.49659256368E+03  0.49659256368E+03  0.00000000000E+00 0.  1.
         21   -1    0    0  501  503 -0.00000000000E+00 -0.00000000000E+00 -0.14343772737E+03  0.14343772737E+03  0.00000000000E+00 0.  1.
          6    2    1    2  501    0  0.60066726546E+02  0.18486384979E+03  0.10918634449E+03  0.28171758084E+03  0.17222219061E+03 0.  0.
         24    2    3    3    0    0  0.89824465431E+02  0.19204582704E+03  0.83960679504E+02  0.24177352002E+03  0.80343045811E+02 0.  0.
         -6    2    1    2    0  502 -0.60066726546E+02 -0.18486384979E+03  0.24396849181E+03  0.35831271021E+03  0.17630858942E+03 0.  0.
        -24    2    5    5    0    0 -0.10348706994E+03 -0.15481483717E+03  0.15555083257E+03  0.25522031551E+03  0.79146323228E+02 0.  0.
          5    1    3    3  501    0 -0.29757738884E+02 -0.71819772516E+01  0.25225664986E+02  0.39944060819E+02  0.47000000000E+01 0. -1.
        -11    1    4    4    0    0  0.57566440924E+02  0.37359091105E+02  0.22378884914E+02  0.72183178780E+02  0.00000000000E+00 0.  1.
         12    1    4    4    0    0  0.32258024506E+02  0.15468673593E+03  0.61581794590E+02  0.16959034124E+03  0.00000000000E+00 0. -1.
         -5    1    5    5    0  502  0.43420343391E+02 -0.30049012615E+02  0.88417659241E+02  0.10309239470E+03  0.47000000000E+01 0.  1.
         13    1    6    6    0    0 -0.34526285249E+02 -0.15379910399E+02  0.39384841621E+01  0.38001548316E+02  0.00000000000E+00 0. -1.
        -14    1    6    6    0    0 -0.68960784688E+02 -0.13943492677E+03  0.15161234841E+03  0.21721876719E+03  0.00000000000E+00 0.  1.
</event>
<event>
12    1  0.8493057E-002  0.1759625E+03  0.7818608E-02  0.1172070E+00
         21   -1    0    0  503  502  0.00000000000E+00  0.00000000000E+00  0.49466135983E+03  0.49466135983E+03  0.00000000000E+00 0.  1.
         21   -1    0    0  501  503 -0.00000000000E+00 -0.00000000000E+00 -0.66513687588E+02  0.66513687588E+02  0.00000000000E+00 0. -1.
          6    2    1    2  501    0  0.32621980819E+02  0.23424125210E+01  0.14165383506E+03  0.22495857506E+03  0.17167082157E+03 0.  0.
         24    2    3    3    0    0  0.48594999487E+02  0.59452728112E+02  0.11988553450E+03  0.16161290132E+03  0.76485865596E+02 0.  0.
         -6    2    1    2    0  502 -0.32621980819E+02 -0.23424125210E+01  0.28649383719E+03  0.33621647236E+03  0.17289626084E+03 0.  0.
        -24    2    5    5    0    0 -0.48196758126E+02 -0.53490767644E+02  0.11772328814E+03  0.15911673734E+03  0.79215994679E+02 0.  0.
          5    1    3    3  501    0 -0.15973018669E+02 -0.57110315591E+02  0.21768300560E+02  0.63345673740E+02  0.47000000000E+01 0. -1.
        -11    1    4    4    0    0  0.97984780372E+01  0.46481001829E+02  0.10957109249E+03  0.11942494719E+03  0.00000000000E+00 0.  1.
         12    1    4    4    0    0  0.38796521450E+02  0.12971726283E+02  0.10314442008E+02  0.42187954126E+02  0.00000000000E+00 0. -1.
         -5    1    5    5    0  502  0.15574777308E+02  0.51148355123E+02  0.16877054905E+03  0.17709973502E+03  0.47000000000E+01 0.  1.
         13    1    6    6    0    0 -0.11322093391E+02  0.16889844055E+02  0.52565258989E+02  0.56361006765E+02  0.00000000000E+00 0. -1.
        -14    1    6    6    0    0 -0.36874664735E+02 -0.70380611699E+02  0.65158029152E+02  0.10275573057E+03  0.00000000000E+00 0.  1.
</event>
<event>
12    1  0.8493057E-002  0.1967627E+03  0.7818608E-02  0.1152997E+00
         21   -1    0    0  501  502  0.00000000000E+00  0.00000000000E+00  0.23775138667E+03  0.23775138667E+03  0.00000000000E+00 0.  1.
         21   -1    0    0  502  503 -0.00000000000E+00 -0.00000000000E+00 -0.41375608530E+03  0.41375608530E+03  0.00000000000E+00 0.  1.
         -6    2    1    2    0  503  0.10735067922E+02 -0.90726714552E+02 -0.34283329819E+03  0.39528501077E+03  0.17426701057E+03 0.  0.
        -24    2    3    3    0    0 -0.51781099188E+02 -0.73661429471E+02 -0.27719773356E+03  0.30292910977E+03  0.82584342527E+02 0.  0.
          6    2    1    2  501    0 -0.10735067922E+02  0.90726714552E+02  0.16682859955E+03  0.25622246120E+03  0.17167291452E+03 0.  0.
         24    2    5    5    0    0  0.75221841408E+01  0.23187256375E+02  0.16539771099E+03  0.18608657092E+03  0.81716442441E+02 0.  0.
          5    1    5    5  501    0 -0.18257252063E+02  0.67539458177E+02  0.14308885678E+01  0.70135890284E+02  0.47000000000E+01 0. -1.
        -13    1    6    6    0    0  0.34103747518E+01  0.50813485348E+02  0.13742023354E+03  0.14655361318E+03  0.00000000000E+00 0.  1.
         14    1    6    6    0    0  0.41118093890E+01 -0.27626228973E+02  0.27977477448E+02  0.39532957745E+02  0.00000000000E+00 0. -1.
         -5    1    3    3    0  503  0.62516167110E+02 -0.17065285081E+02 -0.65635564634E+02  0.92355901002E+02  0.47000000000E+01 0.  1.
         13    1    4    4    0    0 -0.67824598133E+02 -0.66091324915E+02 -0.17292436104E+03  0.19715748523E+03  0.00000000000E+00 0. -1.
        -14    1    4    4    0    0  0.16043498945E+02 -0.75701045558E+01 -0.10427337252E+03  0.10577162454E+03  0.00000000000E+00 0.  1.
</event>
<event>
12    1  0.8493057E-002  0.1731491E+03  0.7818608E-02  0.1175102E+00
         21   -1    0    0  503  502  0.00000000000E+00  0.00000000000E+00  0.19788083880E+03  0.19788083880E+03  0.00000000000E+00 0. -1.
         21   -1    0    0  501  503 -0.00000000000E+00 -0.00000000000E+00 -0.15082976039E+03  0.15082976039E+03  0.00000000000E+00 0. -1.
          6    2    1    2  501    0  0.96545489998E+01  0.15287389372E+02  0.92995187905E+01  0.17339869579E+03  0.17220253210E+03 0.  0.
         24    2    3    3    0    0  0.41159166082E+02 -0.13950359073E+02  0.57767612832E+02  0.10844769139E+03  0.80840059411E+02 0.  0.
         -6    2    1    2    0  502 -0.96545489998E+01 -0.15287389372E+02  0.37751559618E+02  0.17531190341E+03  0.17024150091E+03 0.  0.
        -24    2    5    5    0    0 -0.32521120861E+02 -0.16259603528E+02 -0.38549468470E+02  0.95513644051E+02  0.79465694936E+02 0.  0.
          5    1    3    3  501    0 -0.31504617082E+02  0.29237748446E+02 -0.48468094041E+02  0.64951004393E+02  0.47000000000E+01 0. -1.
        -13    1    4    4    0    0 -0.19558907982E+02 -0.14403484547E+02  0.37027110133E+02  0.44283384394E+02  0.00000000000E+00 0.  1.
         14    1    4    4    0    0  0.60718074063E+02  0.45312547350E+00  0.20740502699E+02  0.64164307001E+02  0.00000000000E+00 0. -1.
         -5    1    5    5    0  502  0.22866571862E+02  0.97221415569E+00  0.76301028088E+02  0.79798259356E+02  0.47000000000E+01 0.  1.
         11    1    6    6    0    0 -0.45465949531E+02 -0.39369815834E+02 -0.20842959784E+02  0.63651896579E+02  0.00000000000E+00 0. -1.
        -12    1    6    6    0    0  0.12944828670E+02  0.23110212306E+02 -0.17706508686E+02  0.31861747472E+02  0.00000000000E+00 0.  1.
</event>
<event>
12    1  0.8493057E-002  0.1915543E+03  0.7818608E-02  0.1157830E+00
         21   -1    0    0  501  502  0.00000000000E+00  0.00000000000E+00  0.29716323524E+03  0.29716323524E+03  0.00000000000E+00 0.  1.
         21   -1    0    0  502  503 -0.00000000000E+00 -0.00000000000E+00 -0.33282820746E+03  0.33282820746E+03  0.00000000000E+00 0.  1.
         -6    2    1    2    0  503 -0.12555888889E+02 -0.75668047750E+02 -0.26900340316E+03  0.33023609203E+03  0.17552704001E+03 0.  0.
        -24    2    3    3    0    0 -0.63113076485E+02 -0.35520604543E+02 -0.11575226037E+03  0.16387549219E+03  0.90617974983E+02 0.  0.
          6    2    1    2  501    0  0.12555888889E+02  0.75668047750E+02  0.23333843094E+03  0.29975535066E+03  0.17182299934E+03 0.  0.
         24    2    5    5    0    0  0.16483428601E+02 -0.13998730113E+02  0.17096980131E+03  0.19035931517E+03  0.80859928563E+02 0.  0.
          5    1    5    5  501    0 -0.39275397123E+01  0.89666777863E+02  0.62368629626E+02  0.10939603549E+03  0.47000000000E+01 0. -1.
        -13    1    6    6    0    0  0.43799623071E+02  0.89925994080E+01  0.12057313975E+03  0.12859687343E+03  0.00000000000E+00 0.  1.
         14    1    6    6    0    0 -0.27316194470E+02 -0.22991329521E+02  0.50396661558E+02  0.61762441740E+02  0.00000000000E+00 0. -1.
         -5    1    3    3    0  503  0.50557187597E+02 -0.40147443208E+02 -0.15325114279E+03  0.16636059984E+03  0.47000000000E+01 0.  1.
         13    1    4    4    0    0 -0.41131712300E+01  0.25651793383E+02 -0.91559897778E+01  0.27545686235E+02  0.00000000000E+00 0. -1.
        -14    1    4    4    0    0 -0.58999905255E+02 -0.61172397926E+02 -0.10659627059E+03  0.13632980596E+03  0.00000000000E+00 0.  1.
</event>
<event>
12    1  0.8493057E-002  0.2495670E+03  0.7818608E-02  0.1113968E+00
         21   -1    0    0  501  502  0.00000000000E+00  0.00000000000E+00  0.15499650080E+03  0.15499650080E+03  0.00000000000E+00 0.  1.
         21   -1    0    0  502  503 -0.00000000000E+00 -0.00000000000E+00 -0.40237071255E+03  0.40237071255E+03  0.00000000000E+00 0.  1.
         -6    2    1    2    0  503 -0.14251317748E+03 -0.10477638489E+03 -0.15362092450E+03  0.29305811389E+03  0.17605559658E+03 0.  0.
        -24    2    3    3    0    0 -0.25632769629E+01 -0.47128492361E+02 -0.81627588309E+02  0.12538466751E+03  0.82647362277E+02 0.  0.
          6    2    1    2  501    0  0.14251317748E+03  0.10477638489E+03 -0.93753287237E+02  0.26430909946E+03  0.17257324417E+03 0.  0.
         24    2    5    5    0    0  0.91184469994E+02  0.26954168655E+02  0.17210193062E+02  0.11930593566E+03  0.69975572614E+02 0.  0.
          5    1    5    5  501    0  0.51328707481E+02  0.77822216232E+02 -0.11096348030E+03  0.14500316380E+03  0.47000000000E+01 0. -1.
        -11    1    6    6    0    0  0.77053753773E+02 -0.10742835775E+02  0.11527367350E+02  0.78648392794E+02  0.00000000000E+00 0.  1.
         12    1    6    6    0    0  0.14130716221E+02  0.37697004430E+02  0.56828257117E+01  0.40657542867E+02  0.00000000000E+00 0. -1.
         -5    1    3    3    0  503 -0.13994990051E+03 -0.57647892525E+02 -0.71993336196E+02  0.16767344639E+03  0.47000000000E+01 0.  1.
         13    1    4    4    0    0 -0.12597934919E+02  0.77000750662E+01  0.10213122856E+02  0.17952910592E+02  0.00000000000E+00 0. -1.
        -14    1    4    4    0    0  0.10034657956E+02 -0.54828567428E+02 -0.91840711164E+02  0.10743175691E+03  0.00000000000E+00 0.  1.
</event>
<event>
12    1  0.8493057E-002  0.2673461E+03  0.7818608E-02  0.1102836E+00
         21   -1    0    0  501  502  0.00000000000E+00  0.00000000000E+00  0.18550132363E+03  0.18550132363E+03  0.00000000000E+00 0. -1.
         21   -1    0    0  502  503 -0.00000000000E+00 -0.00000000000E+00 -0.38736786367E+03  0.38736786367E+03  0.00000000000E+00 0.  1.
         -6    2    1    2    0  503  0.17447504117E+03 -0.10693189173E+03 -0.78606522861E+02  0.27847665156E+03  0.17173901876E+03 0.  0.
        -24    2    3    3    0    0  0.14554280749E+03 -0.83950683337E+02  0.60921404534E+01  0.18595009509E+03  0.79434864159E+02 0.  0.
          6    2    1    2  501    0 -0.17447504117E+03  0.10693189173E+03 -0.12326001718E+03  0.29439253574E+03  0.17204058766E+03 0.  0.
         24    2    5    5    0    0 -0.12964099822E+03  0.11144518581E+03 -0.15226137762E+03  0.24060006286E+03  0.74013818124E+02 0.  0.
          5    1    5    5  501    0 -0.44834042956E+02 -0.45132940867E+01  0.29001360440E+02  0.53792472881E+02  0.47000000000E+01 0. -1.
        -11    1    6    6    0    0 -0.10466473391E+03  0.75928060787E+02 -0.68678647741E+02  0.14641220439E+03  0.00000000000E+00 0.  1.
         12    1    6    6    0    0 -0.24976264311E+02  0.35517125026E+02 -0.83582729878E+02  0.94187858469E+02  0.00000000000E+00 0. -1.
         -5    1    3    3    0  503  0.28932233688E+02 -0.22981208390E+02 -0.84698663315E+02  0.92526556472E+02  0.47000000000E+01 0.  1.
         11    1    4    4    0    0  0.33022706988E+02  0.13402332448E+02 -0.79001609020E+01  0.36503893410E+02  0.00000000000E+00 0. -1.
        -12    1    4    4    0    0  0.11252010050E+03 -0.97353015784E+02  0.13992301355E+02  0.14944620168E+03  0.00000000000E+00 0.  1.
</event>
<event>
12    1  0.8493057E-002  0.2687124E+03  0.7818608E-02  0.1102118E+00
         21   -1    0    0  501  502  0.00000000000E+00  0.00000000000E+00  0.24341215375E+03  0.24341215375E+03  0.00000000000E+00 0.  1.
         21   -1    0    0  502  503 -0.00000000000E+00 -0.00000000000E+00 -0.53851983381E+03  0.53851983381E+03  0.00000000000E+00 0. -1.
         -6    2    1    2    0  503  0.79624934247E+02 -0.19016881376E+03 -0.41008842362E+03  0.49028446214E+03  0.17234277109E+03 0.  0.
        -24    2    3    3    0    0  0.54764402419E+02 -0.18966729474E+03 -0.25344286234E+03  0.33160800064E+03  0.82205590767E+02 0.  0.
          6    2    1    2  501    0 -0.79624934247E+02  0.19016881376E+03  0.11498074356E+03  0.29164752541E+03  0.17126996178E+03 0.  0.
         24    2    5    5    0    0 -0.12056053218E+03  0.14275381542E+03  0.88685327707E+02  0.22354874319E+03  0.84826054333E+02 0.  0.
          5    1    5    5  501    0  0.40935597933E+02  0.47414998337E+02  0.26295415857E+02  0.68098782225E+02  0.47000000000E+01 0. -1.
        -11    1    6    6    0    0 -0.86587417242E+02  0.13185750270E+03  0.99210971707E+02  0.18635074121E+03  0.00000000000E+00 0.  1.
         12    1    6    6    0    0 -0.33973114938E+02  0.10896312724E+02 -0.10525644001E+02  0.37198001979E+02  0.00000000000E+00 0. -1.
         -5    1    3    3    0  503  0.24860531828E+02 -0.50151902123E+00 -0.15664556129E+03  0.15867646150E+03  0.47000000000E+01 0.  1.
         11    1    4    4    0    0  0.30886695084E+02 -0.80237322465E+02 -0.17464866834E+03  0.19466425764E+03  0.00000000000E+00 0. -1.
        -12    1    4    4    0    0  0.23877707335E+02 -0.10942997227E+03 -0.78794193995E+02  0.13694374300E+03  0.00000000000E+00 0.  1.
</event>
<event>
12    1  0.8493057E-002  0.1972162E+03  0.7818608E-02  0.1152215E+00
         21   -1    0    0  503  502  0.00000000000E+00  0.00000000000E+00  0.18609188136E+03  0.18609188136E+03  0.00000000000E+00 0. -1.
         21   -1    0    0  501  503 -0.00000000000E+00 -0.00000000000E+00 -0.21169170237E+03  0.21169170237E+03  0.00000000000E+00 0.  1.
          6    2    1    2  501    0 -0.91128944213E+02  0.24015532648E+02 -0.37294509849E+02  0.20071148880E+03  0.17324257846E+03 0.  0.
         24    2    3    3    0    0 -0.67892404534E+02  0.74535129064E+02  0.82640972587E+01  0.12867092329E+03  0.79517590116E+02 0.  0.
         -6    2    1    2    0  502  0.91128944213E+02 -0.24015532648E+02  0.11694688835E+02  0.19707209493E+03  0.17268298866E+03 0.  0.
        -24    2    5    5    0    0  0.92528709207E+02 -0.28060790755E+02  0.66620085744E+02  0.14178002786E+03  0.79463013228E+02 0.  0.
          5    1    3    3  501    0 -0.23236539679E+02 -0.50519596415E+02 -0.45558607108E+02  0.72040565516E+02  0.47000000000E+01 0. -1.
        -11    1    4    4    0    0 -0.30777190771E+02  0.80758185878E+02 -0.97058888409E+01  0.86967375126E+02  0.00000000000E+00 0.  1.
         12    1    4    4    0    0 -0.37115213762E+02 -0.62230568142E+01  0.17969986100E+02  0.41703548160E+02  0.00000000000E+00 0. -1.
         -5    1    5    5    0  502 -0.13997649940E+01  0.40452581069E+01 -0.54925396909E+02  0.55292067069E+02  0.47000000000E+01 0.  1.
         11    1    6    6    0    0  0.87913601763E+02 -0.17602972089E+02  0.82750828850E+02  0.12200969501E+03  0.00000000000E+00 0. -1.
        -12    1    6    6    0    0  0.46151074435E+01 -0.10457818667E+02 -0.16130743106E+02  0.19770332853E+02  0.00000000000E+00 0.  1.
</event>
<event>
12    1  0.8493057E-002  0.1833445E+03  0.7818608E-02  0.1164781E+00
         21   -1    0    0  501  502  0.00000000000E+00  0.00000000000E+00  0.63475218717E+02  0.63475218717E+02  0.00000000000E+00 0. -1.
         21   -1    0    0  502  503 -0.00000000000E+00 -0.00000000000E+00 -0.57071374173E+03  0.57071374173E+03  0.00000000000E+00 0. -1.
         -6    2    1    2    0  503 -0.43732323789E+02  0.42354461424E+02 -0.16582854444E+03  0.24666352748E+03  0.17215508442E+03 0.  0.
        -24    2    3    3    0    0 -0.36545632997E+02  0.93392990196E+02 -0.15495118724E+03  0.19377698057E+03  0.59006896742E+02 0.  0.
          6    2    1    2  501    0  0.43732323789E+02 -0.42354461424E+02 -0.34140997858E+03  0.38752543297E+03  0.17294152533E+03 0.  0.
         24    2    5    5    0    0 -0.12849969442E+02 -0.34921681807E+02 -0.31139221935E+03  0.32287283837E+03  0.76792642297E+02 0.  0.
          5    1    5    5  501    0  0.56582293231E+02 -0.74327796172E+01 -0.30017759234E+02  0.64652594608E+02  0.47000000000E+01 0. -1.
        -13    1    6    6    0    0 -0.22579602606E+02 -0.54250239933E+02 -0.17081006546E+03  0.18063500615E+03  0.00000000000E+00 0.  1.
         14    1    6    6    0    0  0.97296331646E+01  0.19328558126E+02 -0.14058215389E+03  0.14223783221E+03  0.00000000000E+00 0. -1.
         -5    1    3    3    0  503 -0.71866907923E+01 -0.51038528772E+02 -0.10877357194E+02  0.52886546903E+02  0.47000000000E+01 0.  1.
         11    1    4    4    0    0 -0.37919907358E+02  0.32521570212E+02 -0.41191864646E+02  0.64748294310E+02  0.00000000000E+00 0. -1.
        -12    1    4    4    0    0  0.13742743612E+01  0.60871419984E+02 -0.11375932260E+03  0.12902868626E+03  0.00000000000E+00 0.  1.
</event>
<event>
12    1  0.8493057E-002  0.1752726E+03  0.7818608E-02  0.1172629E+00
         21   -1    0    0  501  502  0.00000000000E+00  0.00000000000E+00  0.46323325095E+03  0.46323325095E+03  0.00000000000E+00 0.  1.
         21   -1    0    0  502  503 -0.00000000000E+00 -0.00000000000E+00 -0.79982394842E+02  0.79982394842E+02  0.00000000000E+00 0.  1.
         -6    2    1    2    0  503 -0.30955016204E+02 -0.65087212688E+01  0.78617198968E+02  0.19209667535E+03  0.17239458294E+03 0.  0.
        -24    2    3    3    0    0 -0.48650497079E+02 -0.32644263004E+02  0.10937432797E+03  0.14777639140E+03  0.80265805065E+02 0.  0.
          6    2    1    2  501    0  0.30955016204E+02  0.65087212688E+01  0.30463365714E+03  0.35111897044E+03  0.17170407642E+03 0.  0.
         24    2    5    5    0    0 -0.44124518076E+02  0.23597862227E+02  0.20309808119E+03  0.22360215433E+03  0.79026961485E+02 0.  0.
          5    1    5    5  501    0  0.75079534280E+02 -0.17089140958E+02  0.10153557595E+03  0.12751681611E+03  0.47000000000E+01 0. -1.
        -13    1    6    6    0    0 -0.52518930934E+02  0.25706501130E+01  0.19064308031E+03  0.19776154940E+03  0.00000000000E+00 0.  1.
         14    1    6    6    0    0  0.83944128583E+01  0.21027212114E+02  0.12455000875E+02  0.25840604933E+02  0.00000000000E+00 0. -1.
         -5    1    3    3    0  503  0.17695480874E+02  0.26135541735E+02 -0.30757129005E+02  0.44320283954E+02  0.47000000000E+01 0.  1.
         11    1    4    4    0    0 -0.27539679341E+02 -0.59289094460E+02  0.72743747009E+02  0.97802266789E+02  0.00000000000E+00 0. -1.
        -12    1    4    4    0    0 -0.21110817738E+02  0.26644831457E+02  0.36630580965E+02  0.49974124612E+02  0.00000000000E+00 0.  1.
</event>
<event>
12    1  0.8493057E-002  0.3227432E+03  0.7818608E-02  0.1074534E+00
         21   -1    0    0  501  502  0.00000000000E+00  0.00000000000E+00  0.58310727413E+03  0.58310727413E+03  0.00000000000E+00 0.  1.
         21   -1    0    0  502  503 -0.00000000000E+00 -0.00000000000E+00 -0.20479170645E+03  0.20479170645E+03  0.00000000000E+00 0. -1.
         -6    2    1    2    0  503 -0.23086351995E+03 -0.14428610638E+03  0.33208309386E+03  0.46307923244E+03  0.17333998083E+03 0.  0.
        -24    2    3    3    0    0 -0.48393967805E+02 -0.80589964215E+02  0.86011529752E+02  0.15014850425E+03  0.79434700384E+02 0.  0.
          6    2    1    2  501    0  0.23086351995E+03  0.14428610638E+03  0.46232473821E+02  0.32481974813E+03  0.17103795427E+03 0.  0.
         24    2    5    5    0    0  0.15291843873E+03  0.19694822889E+02  0.26584156900E+02  0.17647363269E+03  0.81635106943E+02 0.  0.
          5    1    5    5  501    0  0.77945081229E+02  0.12459128349E+03  0.19648316921E+02  0.14834611544E+03  0.47000000000E+01 0. -1.
        -11    1    6    6    0    0  0.68032294779E+02  0.24565125894E+02  0.50419601121E+02  0.88170146423E+02  0.00000000000E+00 0.  1.
         12    1    6    6    0    0  0.84886143946E+02 -0.48703030049E+01 -0.23835444222E+02  0.88303486266E+02  0.00000000000E+00 0. -1.
         -5    1    3    3    0  503 -0.18246955215E+03 -0.63696142160E+02  0.24607156411E+03  0.31293072820E+03  0.47000000000E+01 0.  1.
         11    1    4    4    0    0 -0.66294147161E+02 -0.81608797274E+02  0.73471461129E+02  0.12826911296E+03  0.00000000000E+00 0. -1.
        -12    1    4    4    0    0  0.17900179356E+02  0.10188330593E+01  0.12540068624E+02  0.21879391282E+02  0.00000000000E+00 0.  1.
</event>
<event>
12    1  0.8493057E-002  0.1729455E+03  0.7818608E-02  0.1174950E+00
         21   -1    0    0  503  502  0.00000000000E+00  0.00000000000E+00  0.24410495176E+02  0.24410495176E+02  0.00000000000E+00 0. -1.
         21   -1    0    0  501  503 -0.00000000000E+00 -0.00000000000E+00 -0.12475710185E+04  0.12475710185E+04  0.00000000000E+00 0. -1.
          6    2    1    2  501    0 -0.42863822867E+01 -0.10815542375E+02 -0.70459665662E+03  0.72551125646E+03  0.17255371828E+03 0.  0.
         24    2    3    3    0    0 -0.11066990087E+02  0.29225847187E+02 -0.18101490144E+03  0.20033582494E+03  0.79946355726E+02 0.  0.
         -6    2    1    2    0  502  0.42863822867E+01  0.10815542375E+02 -0.51856386668E+03  0.54647025719E+03  0.17200554975E+03 0.  0.
        -24    2    5    5    0    0 -0.62502685494E+02 -0.55898387842E+01 -0.27343277515E+03  0.29183079023E+03  0.80385916703E+02 0.  0.
          5    1    3    3  501    0  0.67806077999E+01 -0.40041389562E+02 -0.52358175518E+03  0.52517543152E+03  0.47000000000E+01 0. -1.
        -13    1    4    4    0    0 -0.16778520486E+02  0.54734243187E+02 -0.14451423701E+03  0.15544040925E+03  0.00000000000E+00 0.  1.
         14    1    4    4    0    0  0.57115303991E+01 -0.25508396000E+02 -0.36500664431E+02  0.44895415689E+02  0.00000000000E+00 0. -1.
         -5    1    5    5    0  502  0.66789067780E+02  0.16405381159E+02 -0.24513109152E+03  0.25463946697E+03  0.47000000000E+01 0.  1.
         13    1    6    6    0    0 -0.35085084398E+02  0.35842845143E+02 -0.16707088938E+03  0.17443725168E+03  0.00000000000E+00 0. -1.
        -14    1    6    6    0    0 -0.27417601096E+02 -0.41432683927E+02 -0.10636188578E+03  0.11739353855E+03  0.00000000000E+00 0.  1.
</event>
<event>
12    1  0.8493057E-002  0.2592526E+03  0.7818608E-02  0.1107866E+00
         21   -1    0    0  501  502  0.00000000000E+00  0.00000000000E+00  0.77710840338E+03  0.77710840338E+03  0.00000000000E+00 0.  1.
         21   -1    0    0  502  503 -0.00000000000E+00 -0.00000000000E+00 -0.15174203195E+03  0.15174203195E+03  0.00000000000E+00 0.  1.
         -6    2    1    2    0  503  0.15719042476E+03 -0.10993255272E+03  0.73532003192E+01  0.25935689258E+03  0.17440737481E+03 0.  0.
        -24    2    3    3    0    0  0.77548144418E+02 -0.40298932060E+02 -0.61512365738E+02  0.13303868276E+03  0.79232577536E+02 0.  0.
          6    2    1    2  501    0 -0.15719042476E+03  0.10993255272E+03  0.61801317111E+03  0.66949354275E+03  0.17171874775E+03 0.  0.
         24    2    5    5    0    0 -0.15006717617E+03  0.22905801256E+02  0.41180478616E+03  0.44551054302E+03  0.76495940721E+02 0.  0.
          5    1    5    5  501    0 -0.71232485955E+01  0.87026751465E+02  0.20620838495E+03  0.22398299973E+03  0.47000000000E+01 0. -1.
        -11    1    6    6    0    0 -0.11886376792E+03  0.27483319592E+02  0.22392863985E+03  0.25500581155E+03  0.00000000000E+00 0.  1.
         12    1    6    6    0    0 -0.31203408242E+02 -0.45775183356E+01  0.18787614631E+03  0.19050473147E+03  0.00000000000E+00 0. -1.
         -5    1    3    3    0  503  0.79642280343E+02 -0.69633620661E+02  0.68865566057E+02  0.12631820982E+03  0.47000000000E+01 0.  1.
         11    1    4    4    0    0  0.50937696001E+02 -0.57157036366E+02 -0.66172660555E+02  0.10119484515E+03  0.00000000000E+00 0. -1.
        -12    1    4    4    0    0  0.26610448418E+02  0.16858104305E+02  0.46602948170E+01  0.31843837607E+02  0.00000000000E+00 0.  1.
</event>
<event>
12    1  0.8493057E-002  0.1832116E+03  0.7818608E-02  0.1165186E+00
         21   -1    0    0  503  502  0.00000000000E+00  0.00000000000E+00  0.22141543233E+03  0.22141543233E+03  0.00000000000E+00 0. -1.
         21   -1    0    0  501  503 -0.00000000000E+00 -0.00000000000E+00 -0.19856238243E+03  0.19856238243E+03  0.00000000000E+00 0. -1.
          6    2    1    2  501    0  0.16259746801E+02  0.58529437049E+02 -0.92446145088E+02  0.20350523554E+03  0.17081573927E+03 0.  0.
         24    2    3    3    0    0 -0.36540860890E+01  0.40498793834E+02  0.16097747425E+02  0.91587714851E+02  0.80471531565E+02 0.  0.
         -6    2    1    2    0  502 -0.16259746801E+02 -0.58529437049E+02  0.11529919499E+03  0.21647257923E+03  0.17284790663E+03 0.  0.
        -24    2    5    5    0    0  0.33874187589E+00 -0.79338225168E+02  0.15392979252E+02  0.11297447571E+03  0.78940608261E+02 0.  0.
          5    1    3    3  501    0  0.19913832890E+02  0.18030643215E+02 -0.10854389251E+03  0.11191752069E+03  0.47000000000E+01 0. -1.
        -13    1    4    4    0    0  0.19981669272E+02 -0.17803476418E+02  0.47882230483E+00  0.26766773251E+02  0.00000000000E+00 0.  1.
         14    1    4    4    0    0 -0.23635755361E+02  0.58302270252E+02  0.15618925120E+02  0.64820941600E+02  0.00000000000E+00 0. -1.
         -5    1    5    5    0  502 -0.16598488677E+02  0.20808788119E+02  0.99906215736E+02  0.10349810352E+03  0.47000000000E+01 0.  1.
         13    1    6    6    0    0 -0.10516066873E+02 -0.62969720134E+02  0.44528763290E+02  0.77836906904E+02  0.00000000000E+00 0. -1.
        -14    1    6    6    0    0  0.10854808749E+02 -0.16368505034E+02 -0.29135784038E+02  0.35137568805E+02  0.00000000000E+00 0.  1.
</event>
<event>
12    1  0.8493057E-002  0.2831496E+03  0.7818608E-02  0.1094165E+00
         21   -1    0    0  503  502  0.00000000000E+00  0.00000000000E+00  0.33297443489E+03  0.33297443489E+03  0.00000000000E+00 0. -1.
         21   -1    0    0  501  503 -0.00000000000E+00 -0.00000000000E+00 -0.27513844590E+03  0.27513844590E+03  0.00000000000E+00 0.  1.
          6    2    1    2  501    0 -0.21222181144E+03 -0.72841196115E+02  0.13822124924E+03  0.31508538007E+03  0.17271290019E+03 0.  0.
         24    2    3    3    0    0 -0.10872083920E+03  0.20868927927E+02  0.11505763226E+03  0.17347788820E+03  0.67827619180E+02 0.  0.
         -6    2    1    2    0  502  0.21222181144E+03  0.72841196115E+02 -0.80385260251E+02  0.29302750072E+03  0.17046814662E+03 0.  0.
        -24    2    5    5    0    0  0.13832950782E+03  0.33186959110E+02 -0.11784998775E+03  0.20105888187E+03  0.79370191997E+02 0.  0.
          5    1    3    3  501    0 -0.10350097224E+03 -0.93710124041E+02  0.23163616976E+02  0.14160749187E+03  0.47000000000E+01 0. -1.
        -11    1    4    4    0    0  0.47249223952E+01  0.15544467846E+02  0.15268416333E+02  0.22295288955E+02  0.00000000000E+00 0.  1.
         12    1    4    4    0    0 -0.11344576159E+03  0.53244600808E+01  0.99789215930E+02  0.15118259925E+03  0.00000000000E+00 0. -1.
         -5    1    5    5    0  502  0.73892303619E+02  0.39654237004E+02  0.37464727499E+02  0.91968618850E+02  0.47000000000E+01 0.  1.
         13    1    6    6    0    0 -0.71971656079E+00  0.12580995719E+02 -0.36577476389E+02  0.38687352251E+02  0.00000000000E+00 0. -1.
        -14    1    6    6    0    0  0.13904922438E+03  0.20605963392E+02 -0.81272511360E+02  0.16237152962E+03  0.00000000000E+00 0.  1.
</event>
<event>
12    1  0.8493057E-002  0.1801170E+03  0.7818608E-02  0.1168795E+00
         21   -1    0    0  503  502  0.00000000000E+00  0.00000000000E+00  0.76588985837E+03  0.76588985837E+03  0.00000000000E+00 0. -1.
         21   -1    0    0  501  503 -0.00000000000E+00 -0.00000000000E+00 -0.68381678909E+02  0.68381678909E+02  0.00000000000E+00 0. -1.
          6    2    1    2  501    0 -0.22182197130E+02 -0.40255077828E+02  0.88951569011E+02  0.20088433212E+03  0.17415398962E+03 0.  0.
         24    2    3    3    0    0 -0.74129968541E+02 -0.57496401316E+02  0.70926345039E+02  0.14306709516E+03  0.81465077770E+02 0.  0.
         -6    2    1    2    0  502  0.22182197130E+02  0.40255077828E+02  0.60855661045E+03  0.63338720517E+03  0.16948652567E+03 0.  0.
        -24    2    5    5    0    0 -0.40602996739E+02  0.15674494086E+02  0.47691244281E+03  0.48540591398E+03  0.79240962345E+02 0.  0.
          5    1    3    3  501    0  0.51947771411E+02  0.17241323488E+02  0.18025223972E+02  0.57817236958E+02  0.47000000000E+01 0. -1.
        -11    1    4    4    0    0  0.79030902393E+01 -0.84506518409E+01  0.41470496480E+02  0.43054319530E+02  0.00000000000E+00 0.  1.
         12    1    4    4    0    0 -0.82033058780E+02 -0.49045749475E+02  0.29455848559E+02  0.10001277563E+03  0.00000000000E+00 0. -1.
         -5    1    5    5    0  502  0.62785193869E+02  0.24580583742E+02  0.13164416765E+03  0.14798129119E+03  0.47000000000E+01 0.  1.
         13    1    6    6    0    0  0.13210562987E+02  0.75977290335E+00  0.29069035084E+03  0.29099136808E+03  0.00000000000E+00 0. -1.
        -14    1    6    6    0    0 -0.53813559727E+02  0.14914721183E+02  0.18622209197E+03  0.19441454590E+03  0.00000000000E+00 0.  1.
</event>
<event>
12    1  0.8493057E-002  0.1852524E+03  0.7818608E-02  0.1162971E+00
         21   -1    0    0  501  502  0.00000000000E+00  0.00000000000E+00  0.27657222255E+03  0.27657222255E+03  0.00000000000E+00 0. -1.
         21   -1    0    0  502  503 -0.00000000000E+00 -0.00000000000E+00 -0.12622821488E+03  0.12622821488E+03  0.00000000000E+00 0. -1.
         -6    2    1    2    0  503 -0.47219246936E+01  0.65874295032E+02  0.10415800257E+03  0.21252605452E+03  0.17308008271E+03 0.  0.
        -24    2    3    3    0    0 -0.41095657100E+02 -0.20859764491E+02  0.40266140472E+02  0.98727524064E+02  0.77471150322E+02 0.  0.
          6    2    1    2  501    0  0.47219246936E+01 -0.65874295032E+02  0.46186005096E+02  0.19027438291E+03  0.17236436525E+03 0.  0.
         24    2    5    5    0    0  0.63048404574E+02  0.63988818174E+01  0.33786973027E+02  0.96459584810E+02  0.64396001021E+02 0.  0.
          5    1    5    5  501    0 -0.58326479881E+02 -0.72273176849E+02  0.12399032069E+02  0.93814798104E+02  0.47000000000E+01 0. -1.
        -13    1    6    6    0    0  0.40984855093E+01 -0.17071009616E+02  0.27597249431E+02  0.32708181376E+02  0.00000000000E+00 0.  1.
         14    1    6    6    0    0  0.58949919065E+02  0.23469891433E+02  0.61897235963E+01  0.63751403434E+02  0.00000000000E+00 0. -1.
         -5    1    3    3    0  503  0.36373732407E+02  0.86734059523E+02  0.63891862102E+02  0.11379853045E+03  0.47000000000E+01 0.  1.
         13    1    4    4    0    0 -0.39469546813E+02  0.12451434960E+01  0.58120230734E+02  0.70266327131E+02  0.00000000000E+00 0. -1.
        -14    1    4    4    0    0 -0.16261102873E+01 -0.22104907987E+02 -0.17854090262E+02  0.28461196933E+02  0.00000000000E+00 0.  1.
</event>
<event>
12    1  0.8493057E-002  0.2976565E+03  0.7818608E-02  0.1086422E+00
         21   -1    0    0  503  502  0.00000000000E+00  0.00000000000E+00  0.96080244783E+02  0.96080244783E+02  0.00000000000E+00 0. -1.
         21   -1    0    0  501  503 -0.00000000000E+00 -0.00000000000E+00 -0.99767518721E+03  0.99767518721E+03  0.00000000000E+00 0.  1.
          6    2    1    2  501    0  0.17022133794E+03  0.17378706552E+03 -0.60134107764E+03  0.67096497646E+03  0.17148078593E+03 0.  0.
         24    2    3    3    0    0  0.16298014980E+03  0.14267946357E+03 -0.59466363910E+03  0.63799838897E+03  0.80604851671E+02 0.  0.
         -6    2    1    2    0  502 -0.17022133794E+03 -0.17378706552E+03 -0.30025386478E+03  0.42279045553E+03  0.17152882539E+03 0.  0.
        -24    2    5    5    0    0 -0.81613535516E+02 -0.17543160135E+03 -0.20883793988E+03  0.29538163137E+03  0.78740123732E+02 0.  0.
          5    1    3    3  501    0  0.72411881438E+01  0.31107601955E+02 -0.66774385438E+01  0.32966587489E+02  0.47000000000E+01 0. -1.
        -11    1    4    4    0    0  0.90103599844E+02  0.53113967020E+02 -0.38140081231E+03  0.39548240395E+03  0.00000000000E+00 0.  1.
         12    1    4    4    0    0  0.72876549953E+02  0.89565496545E+02 -0.21326282678E+03  0.24251598502E+03  0.00000000000E+00 0. -1.
         -5    1    5    5    0  502 -0.88607802424E+02  0.16445358301E+01 -0.91415924903E+02  0.12740882416E+03  0.47000000000E+01 0.  1.
         11    1    6    6    0    0 -0.60944413271E+01 -0.13836119430E+02  0.58958945948E+01  0.16227815288E+02  0.00000000000E+00 0. -1.
        -12    1    6    6    0    0 -0.75519094189E+02 -0.16159548192E+03 -0.21473383447E+03  0.27915381608E+03  0.00000000000E+00 0.  1.
</event>
<event>
12    1  0.8493057E-002  0.2516620E+03  0.7818608E-02  0.1112354E+00
         21   -1    0    0  501  502  0.00000000000E+00  0.00000000000E+00  0.10162279419E+03  0.10162279419E+03  0.00000000000E+00 0.  1.
         21   -1    0    0  502  503 -0.00000000000E+00 -0.00000000000E+00 -0.63535062694E+03  0.63535062694E+03  0.00000000000E+00 0. -1.
         -6    2    1    2    0  503  0.17686814152E+03 -0.42328177671E+02 -0.21321371383E+03  0.32983915851E+03  0.17395335182E+03 0.  0.
        -24    2    3    3    0    0  0.51678505501E+01 -0.16023468806E+02 -0.72659469184E+02  0.10634304374E+03  0.75802283991E+02 0.  0.
          6    2    1    2  501    0 -0.17686814152E+03  0.42328177671E+02 -0.32051411892E+03  0.40713426262E+03  0.17307510874E+03 0.  0.
         24    2    5    5    0    0 -0.11626565444E+03 -0.25838508575E+02 -0.12168807026E+03  0.18833470554E+03  0.80477598992E+02 0.  0.
          5    1    5    5  501    0 -0.60602487084E+02  0.68166686246E+02 -0.19882604866E+03  0.21879955708E+03  0.47000000000E+01 0. -1.
        -13    1    6    6    0    0  0.96654644990E+01 -0.38165943333E+01 -0.27919901908E+02  0.29791081196E+02  0.00000000000E+00 0.  1.
         14    1    6    6    0    0 -0.12593111894E+03 -0.22021914242E+02 -0.93768168351E+02  0.15854362434E+03  0.00000000000E+00 0. -1.
         -5    1    3    3    0  503  0.17170029097E+03 -0.26304708866E+02 -0.14055424465E+03  0.22349611477E+03  0.47000000000E+01 0.  1.
         11    1    4    4    0    0 -0.73545048162E+00 -0.18828891830E+02 -0.87827805750E+02  0.89826452217E+02  0.00000000000E+00 0. -1.
        -12    1    4    4    0    0  0.59033010317E+01  0.28054230246E+01  0.15168336566E+02  0.16516591525E+02  0.00000000000E+00 0.  1.
</event>
<event>
12    1  0.8493057E-002  0.2830597E+03  0.7818608E-02  0.1094195E+00
         21   -1    0    0  503  502  0.00000000000E+00  0.00000000000E+00  0.75132036139E+02  0.75132036139E+02  0.00000000000E+00 0.  1.
         21   -1    0    0  501  503 -0.00000000000E+00 -0.00000000000E+00 -0.10676029768E+04  0.10676029768E+04  0.00000000000E+00 0. -1.
          6    2    1    2  501    0  0.14655862982E+03 -0.17024384383E+03 -0.53727639571E+03  0.60670809082E+03  0.17019513431E+03 0.  0.
         24    2    3    3    0    0  0.58927491087E+02 -0.21118263924E+02 -0.13195881632E+03  0.16600174276E+03  0.78898790346E+02 0.  0.
         -6    2    1    2    0  502 -0.14655862982E+03  0.17024384383E+03 -0.45519454497E+03  0.53602692214E+03  0.17222191833E+03 0.  0.
        -24    2    5    5    0    0 -0.80561275556E+02  0.17338498397E+03 -0.27828123886E+03  0.34711973485E+03  0.80617557867E+02 0.  0.
          5    1    3    3  501    0  0.87631138731E+02 -0.14912557990E+03 -0.40531757939E+03  0.44070634806E+03  0.47000000000E+01 0. -1.
        -13    1    4    4    0    0  0.42549896579E+02  0.16017205377E+02 -0.11178691620E+03  0.12067874378E+03  0.00000000000E+00 0.  1.
         14    1    4    4    0    0  0.16377594507E+02 -0.37135469301E+02 -0.20171900120E+02  0.45322998980E+02  0.00000000000E+00 0. -1.
         -5    1    5    5    0  502 -0.65997354261E+02 -0.31411401389E+01 -0.17691330611E+03  0.18890718729E+03  0.47000000000E+01 0.  1.
         13    1    6    6    0    0 -0.23673312276E+02  0.85698794642E+01 -0.76020099962E+02  0.80080735177E+02  0.00000000000E+00 0. -1.
        -14    1    6    6    0    0 -0.56887963280E+02  0.16481510450E+03 -0.20226113890E+03  0.26703899967E+03  0.00000000000E+00 0.  1.
</event>
<event>
12    1  0.8493057E-002  0.2060033E+03  0.7818608E-02  0.1145022E+00
         21   -1    0    0  503  502  0.00000000000E+00  0.00000000000E+00  0.66047581615E+03  0.66047581615E+03  0.00000000000E+00 0.  1.
         21   -1    0    0  501  503 -0.00000000000E+00 -0.00000000000E+00 -0.71706903372E+02  0.71706903372E+02  0.00000000000E+00 0.  1.
          6    2    1    2  501    0  0.35164775047E+02 -0.11158684513E+03  0.17413215136E+03  0.26973942757E+03  0.16955579388E+03 0.  0.
         24    2    3    3    0    0  0.31396046018E+02  0.67537146970E+01  0.80787380123E+02  0.11889504506E+03  0.81105527459E+02 0.  0.
         -6    2    1    2    0  502 -0.35164775047E+02  0.11158684513E+03  0.41463676142E+03  0.46244329195E+03  0.16805347049E+03 0.  0.
        -24    2    5    5    0    0  0.25165893110E+01 -0.42030767513E+01  0.20269520112E+03  0.21796730906E+03  0.80002526131E+02 0.  0.
          5    1    3    3  501    0  0.37687290294E+01 -0.11834055982E+03  0.93344771241E+02  0.15084438251E+03  0.47000000000E+01 0. -1.
        -11    1    4    4    0    0  0.58899921425E+02  0.68253615382E+01  0.49525733409E+02  0.77256615080E+02  0.00000000000E+00 0.  1.
         12    1    4    4    0    0 -0.27503875407E+02 -0.71646841119E-01  0.31261646714E+02  0.41638429977E+02  0.00000000000E+00 0. -1.
         -5    1    5    5    0  502 -0.37681364358E+02  0.11578992188E+03  0.21194156030E+03  0.24447598289E+03  0.47000000000E+01 0.  1.
         13    1    6    6    0    0  0.37556743687E+02 -0.14631559462E+02  0.13674802186E+03  0.14256441706E+03  0.00000000000E+00 0. -1.
        -14    1    6    6    0    0 -0.35040154376E+02  0.10428482711E+02  0.65947179261E+02  0.75402892006E+02  0.00000000000E+00 0.  1.
</event>
<event>
12    1  0.8493057E-002  0.3027244E+03  0.7818608E-02  0.1083903E+00
         21   -1    0    0  501  502  0.00000000000E+00  0.00000000000E+00  0.11340405514E+04  0.11340405514E+04  0.00000000000E+00 0. -1.
         21   -1    0    0  502  503 -0.00000000000E+00 -0.00000000000E+00 -0.80785117316E+02  0.80785117316E+02  0.00000000000E+00 0. -1.
         -6    2    1    2    0  503  0.72441606340E+02  0.23786445752E+03  0.51955240197E+03  0.60131251442E+03  0.17266949680E+03 0.  0.
        -24    2    3    3    0    0 -0.23707099915E+02  0.11389492197E+03  0.26763669310E+03  0.30450174333E+03  0.86935794477E+02 0.  0.
          6    2    1    2  501    0 -0.72441606340E+02 -0.23786445752E+03  0.53370303216E+03  0.61351315434E+03  0.17243021063E+03 0.  0.
         24    2    5    5    0    0 -0.32301948915E+02 -0.24618534303E+03  0.44887021876E+03  0.51917797817E+03  0.80066601652E+02 0.  0.
          5    1    5    5  501    0 -0.40139657426E+02  0.83208855180E+01  0.84832813404E+02  0.94335176175E+02  0.47000000000E+01 0. -1.
        -11    1    6    6    0    0  0.14404620571E+02 -0.54949926900E+01  0.21214172303E+02  0.26224590463E+02  0.00000000000E+00 0.  1.
         12    1    6    6    0    0 -0.46706569486E+02 -0.24069035034E+03  0.42765604645E+03  0.49295338771E+03  0.00000000000E+00 0. -1.
         -5    1    3    3    0  503  0.96148706256E+02  0.12396953555E+03  0.25191570887E+03  0.29681077109E+03  0.47000000000E+01 0.  1.
         13    1    4    4    0    0  0.26939262800E+02  0.38631400477E+02  0.14149140736E+03  0.14912386576E+03  0.00000000000E+00 0. -1.
        -14    1    4    4    0    0 -0.50646362715E+02  0.75263521490E+02  0.12614528574E+03  0.15537787757E+03  0.00000000000E+00 0.  1.
</event>
<event>
12    1  0.8493057E-002  0.1931651E+03  0.7818608E-02  0.1155957E+00
         21   -1    0    0  501  502  0.00000000000E+00  0.00000000000E+00  0.20166814622E+03  0.20166814622E+03  0.00000000000E+00 0. -1.
         21   -1    0    0  502  503 -0.00000000000E+00 -0.00000000000E+00 -0.27797544077E+03  0.27797544077E+03  0.00000000000E+00 0.  1.
         -6    2    1    2    0  503  0.52439768193E+02  0.71481629363E+02  0.10145804423E+03  0.21818912833E+03  0.17161937057E+03 0.  0.
        -24    2    3    3    0    0  0.64041687470E+02  0.82471632542E+02  0.20199516225E+02  0.13524081264E+03  0.83541301404E+02 0.  0.
          6    2    1    2  501    0 -0.52439768193E+02 -0.71481629363E+02 -0.17776533878E+03  0.26145445867E+03  0.16999519305E+03 0.  0.
         24    2    5    5    0    0 -0.32594511864E+02  0.42325360385E+01 -0.23636325353E+02  0.88525826501E+02  0.78726294949E+02 0.  0.
          5    1    5    5  501    0 -0.19845256329E+02 -0.75714165401E+02 -0.15412901343E+03  0.17292863217E+03  0.47000000000E+01 0. -1.
        -13    1    6    6    0    0 -0.11897977879E+02  0.36989805102E+02 -0.30217731339E+02  0.49223153560E+02  0.00000000000E+00 0.  1.
         14    1    6    6    0    0 -0.20696533985E+02 -0.32757269064E+02  0.65814059859E+01  0.39302672941E+02  0.00000000000E+00 0. -1.
         -5    1    3    3    0  503 -0.11601919278E+02 -0.10990003179E+02  0.81258528010E+02  0.82948315686E+02  0.47000000000E+01 0.  1.
         11    1    4    4    0    0 -0.13083801774E+01  0.64340314353E+02  0.20108334758E+02  0.67422051559E+02  0.00000000000E+00 0. -1.
        -12    1    4    4    0    0  0.65350067648E+02  0.18131318189E+02  0.91181467105E-01  0.67818761083E+02  0.00000000000E+00 0.  1.
</event>
<event>
12    1  0.8493057E-002  0.1924506E+03  0.7818608E-02  0.1156322E+00
         21   -1    0    0  503  502  0.00000000000E+00  0.00000000000E+00  0.56824260435E+02  0.56824260435E+02  0.00000000000E+00 0. -1.
         21   -1    0    0  501  503 -0.00000000000E+00 -0.00000000000E+00 -0.68090675356E+03  0.68090675356E+03  0.00000000000E+00 0. -1.
          6    2    1    2  501    0  0.23590176628E+02  0.83643807887E+02 -0.38918677005E+03  0.43406469358E+03  0.17144396520E+03 0.  0.
         24    2    3    3    0    0 -0.63836960253E+01  0.31271845687E+02 -0.34845064286E+03  0.36110732573E+03  0.89229873211E+02 0.  0.
         -6    2    1    2    0  502 -0.23590176628E+02 -0.83643807887E+02 -0.23489572308E+03  0.30366632041E+03  0.17171036778E+03 0.  0.
        -24    2    5    5    0    0  0.20718009052E+02 -0.10580640248E+03 -0.12171683480E+03  0.18002997192E+03  0.77275948462E+02 0.  0.
          5    1    3    3  501    0  0.29973872653E+02  0.52371962200E+02 -0.40736127185E+02  0.72957367856E+02  0.47000000000E+01 0. -1.
        -11    1    4    4    0    0 -0.34505087428E+02 -0.10637404988E+01 -0.57875330605E+02  0.67389068067E+02  0.00000000000E+00 0.  1.
         12    1    4    4    0    0  0.28121391402E+02  0.32335586186E+02 -0.29057531226E+03  0.29371825766E+03  0.00000000000E+00 0. -1.
         -5    1    5    5    0  502 -0.44308185680E+02  0.22162594592E+02 -0.11317888828E+03  0.12363634850E+03  0.47000000000E+01 0.  1.
         11    1    6    6    0    0 -0.23737093834E+02 -0.31260341052E+02 -0.66314315499E+02  0.77060021973E+02  0.00000000000E+00 0. -1.
        -12    1    6    6    0    0  0.44455102886E+02 -0.74546061427E+02 -0.55402519297E+02  0.10296994994E+03  0.00000000000E+00 0.  1.
</event>
<event>
12    1  0.8493057E-002  0.1893112E+03  0.7818608E-02  0.1159297E+00
         21   -1    0    0  503  502  0.00000000000E+00  0.00000000000E+00  0.97515495029E+02  0.97515495029E+02  0.00000000000E+00 0.  1.
         21   -1    0    0  501  503 -0.00000000000E+00 -0.00000000000E+00 -0.57839488808E+03  0.57839488808E+03  0.00000000000E+00 0.  1.
          6    2    1    2  501    0  0.53204941360E+02  0.57796194996E+02 -0.44575820666E+03  0.48429238185E+03  0.17224275420E+03 0.  0.
         24    2    3    3    0    0  0.65580996180E+02  0.96000566343E+02 -0.27945752504E+03  0.31314698334E+03  0.80296631795E+02 0.  0.
         -6    2    1    2    0  502 -0.53204941360E+02 -0.57796194996E+02 -0.35121186383E+02  0.19161800125E+03  0.17120979741E+03 0.  0.
        -24    2    5    5    0    0 -0.33223152352E+02  0.19946550390E+02 -0.59243790547E+02  0.10767042008E+03  0.81126135850E+02 0.  0.
          5    1    3    3  501    0 -0.12376054820E+02 -0.38204371347E+02 -0.16630068162E+03  0.17114539851E+03  0.47000000000E+01 0. -1.
        -11    1    4    4    0    0 -0.12752315733E+02  0.25646738286E+02 -0.10979439106E+03  0.11346887260E+03  0.00000000000E+00 0.  1.
         12    1    4    4    0    0  0.78333311913E+02  0.70353828057E+02 -0.16966313398E+03  0.19967811074E+03  0.00000000000E+00 0. -1.
         -5    1    5    5    0  502 -0.19981789008E+02 -0.77742745386E+02  0.24122604164E+02  0.83947581166E+02  0.47000000000E+01 0.  1.
         13    1    6    6    0    0 -0.60145583155E+02  0.89099195608E+01 -0.39427272872E+02  0.72466459040E+02  0.00000000000E+00 0. -1.
        -14    1    6    6    0    0  0.26922430803E+02  0.11036630829E+02 -0.19816517675E+02  0.35203961044E+02  0.00000000000E+00 0.  1.
</event>
<event>
12    1  0.8493057E-002  0.3267756E+03  0.7818608E-02  0.1072854E+00
         21   -1    0    0  503  502  0.00000000000E+00  0.00000000000E+00  0.29279382371E+03  0.29279382371E+03  0.00000000000E+00 0. -1.
         21   -1    0    0  501  503 -0.00000000000E+00 -0.00000000000E+00 -0.37585805478E+03  0.37585805478E+03  0.00000000000E+00 0.  1.
          6    2    1    2  501    0  0.19144237202E+03  0.20076334503E+03 -0.10607049954E+03  0.34355969279E+03  0.17270266102E+03 0.  0.
         24    2    3    3    0    0  0.18813369519E+03  0.16019208347E+03 -0.36436595789E+02  0.26276399266E+03  0.81618009374E+02 0.  0.
         -6    2    1    2    0  502 -0.19144237202E+03 -0.20076334503E+03  0.23006268476E+02  0.32509218571E+03  0.16792718156E+03 0.  0.
        -24    2    5    5    0    0 -0.16079709874E+03 -0.21623074218E+03 -0.38205145060E+01  0.28127279007E+03  0.80550265514E+02 0.  0.
          5    1    3    3  501    0  0.33086768265E+01  0.40571261557E+02 -0.69633903750E+02  0.80795700122E+02  0.47000000000E+01 0. -1.
        -11    1    4    4    0    0  0.13904361545E+03  0.11654617622E+03 -0.62791868786E+02  0.19198686667E+03  0.00000000000E+00 0.  1.
         12    1    4    4    0    0  0.49090079743E+02  0.43645907250E+02  0.26355272997E+02  0.70777125991E+02  0.00000000000E+00 0. -1.
         -5    1    5    5    0  502 -0.30645273280E+02  0.15467397151E+02  0.26826782982E+02  0.43819395639E+02  0.47000000000E+01 0.  1.
         11    1    6    6    0    0 -0.13267054225E+03 -0.19404145296E+03  0.23480288645E+02  0.23623057000E+03  0.00000000000E+00 0. -1.
        -12    1    6    6    0    0 -0.28126556485E+02 -0.22189289225E+02 -0.27300803151E+02  0.45042220068E+02  0.00000000000E+00 0.  1.
</event>
<event>
12    1  0.8493057E-002  0.1779560E+03  0.7818608E-02  0.1170230E+00
         21   -1    0    0  501  502  0.00000000000E+00  0.00000000000E+00  0.94880010484E+02  0.94880010484E+02  0.00000000000E+00 0.  1.
         21   -1    0    0  502  503 -0.00000000000E+00 -0.00000000000E+00 -0.41511838262E+03  0.41511838262E+03  0.00000000000E+00 0.  1.
         -6    2    1    2    0  503  0.35469718826E+02 -0.14341643913E+02 -0.44350440283E+02  0.18169598338E+03  0.17199617763E+03 0.  0.
        -24    2    3    3    0    0 -0.14757655022E+02 -0.13589094049E+02  0.34668125180E+02  0.87944294851E+02  0.78293475044E+02 0.  0.
          6    2    1    2  501    0 -0.35469718826E+02  0.14341643913E+02 -0.27588793185E+03  0.32830240972E+03  0.17379452690E+03 0.  0.
         24    2    5    5    0    0 -0.18518238515E+02  0.59535711825E+02 -0.25643155529E+03  0.27604825153E+03  0.80981902183E+02 0.  0.
          5    1    5    5  501    0 -0.16951480311E+02 -0.45194067913E+02 -0.19456376554E+02  0.52254158187E+02  0.47000000000E+01 0. -1.
        -13    1    6    6    0    0 -0.12755548760E+01 -0.20126612530E+02 -0.62882055663E+02  0.66036811678E+02  0.00000000000E+00 0.  1.
         14    1    6    6    0    0 -0.17242683639E+02  0.79662324355E+02 -0.19354949963E+03  0.21001143985E+03  0.00000000000E+00 0. -1.
         -5    1    3    3    0  503  0.50227373848E+02 -0.75254986346E+00 -0.79018565463E+02  0.93751688533E+02  0.47000000000E+01 0.  1.
         13    1    4    4    0    0  0.14918713890E+02 -0.35312321170E+02  0.14119148742E+01  0.38360416501E+02  0.00000000000E+00 0. -1.
        -14    1    4    4    0    0 -0.29676368911E+02  0.21723227121E+02  0.33256210306E+02  0.49583878350E+02  0.00000000000E+00 0.  1.
</event>
<event>
12    1  0.8493057E-002  0.2589173E+03  0.7818608E-02  0.1107830E+00
         21   -1    0    0  501  502  0.00000000000E+00  0.00000000000E+00  0.99891857967E+03  0.99891857967E+03  0.00000000000E+00 0. -1.
         21   -1    0    0  502  503 -0.00000000000E+00 -0.00000000000E+00 -0.10875064346E+03  0.10875064346E+03  0.00000000000E+00 0. -1.
         -6    2    1    2    0  503  0.18201426757E+03 -0.66272809196E+02  0.10201684229E+03  0.27807878597E+03  0.17146164661E+03 0.  0.
        -24    2    3    3    0    0  0.69290348736E+02  0.16687168841E+02  0.56907368322E+01  0.10810864617E+03  0.81089338746E+02 0.  0.
          6    2    1    2  501    0 -0.18201426757E+03  0.66272809196E+02  0.78815109392E+03  0.82959043716E+03  0.17180473728E+03 0.  0.
         24    2    5    5    0    0 -0.38367096115E+02  0.76146145749E+02  0.29360526846E+03  0.31448883930E+03  0.73681115635E+02 0.  0.
          5    1    5    5  501    0 -0.14364717145E+03 -0.98733365525E+01  0.49454582546E+03  0.51510159787E+03  0.47000000000E+01 0. -1.
        -11    1    6    6    0    0 -0.21054554927E+02  0.77210278236E+02  0.15159087029E+03  0.17141911593E+03  0.00000000000E+00 0.  1.
         12    1    6    6    0    0 -0.17312541188E+02 -0.10641324873E+01  0.14201439816E+03  0.14306972337E+03  0.00000000000E+00 0. -1.
         -5    1    3    3    0  503  0.11272391883E+03 -0.82959978037E+02  0.96326105457E+02  0.16997013981E+03  0.47000000000E+01 0.  1.
         13    1    4    4    0    0  0.52953712743E+02 -0.27728987492E+02  0.99307260131E+01  0.60593826086E+02  0.00000000000E+00 0. -1.
        -14    1    4    4    0    0  0.16336635993E+02  0.44416156333E+02 -0.42399891808E+01  0.47514820080E+02  0.00000000000E+00 0.  1.
</event>
<event>
12    1  0.8493057E-002  0.1848780E+03  0.7818608E-02  0.1163518E+00
         21   -1    0    0  503  502  0.00000000000E+00  0.00000000000E+00  0.36663497224E+02  0.36663497224E+02  0.00000000000E+00 0. -1.
         21   -1    0    0  501  503 -0.00000000000E+00 -0.00000000000E+00 -0.16601366841E+04  0.16601366841E+04  0.00000000000E+00 0. -1.
          6    2    1    2  501    0 -0.81137373796E+01 -0.58589639133E+02 -0.13782813133E+04  0.13906254879E+04  0.17516075573E+03 0.  0.
         24    2    3    3    0    0  0.31162766867E+02  0.25860787075E+02 -0.59090599427E+03  0.59774687087E+03  0.80570026789E+02 0.  0.
         -6    2    1    2    0  502  0.81137373796E+01  0.58589639133E+02 -0.24519187352E+03  0.30617469341E+03  0.17356644116E+03 0.  0.
        -24    2    5    5    0    0 -0.40848155255E+02  0.42313231278E+01 -0.20071462096E+03  0.22042850140E+03  0.81338117011E+02 0.  0.
          5    1    3    3  501    0 -0.39276504246E+02 -0.84450426208E+02 -0.78737531907E+03  0.79287861704E+03  0.47000000000E+01 0. -1.
        -13    1    4    4    0    0 -0.19552666099E+02  0.33576300188E+02 -0.24831185745E+03  0.25133335082E+03  0.00000000000E+00 0.  1.
         14    1    4    4    0    0  0.50715432966E+02 -0.77155131133E+01 -0.34259413682E+03  0.34641352004E+03  0.00000000000E+00 0. -1.
         -5    1    5    5    0  502  0.48961892634E+02  0.54358316005E+02 -0.44477252568E+02  0.85746192016E+02  0.47000000000E+01 0.  1.
         13    1    6    6    0    0 -0.37336751638E+02 -0.69332093880E+00 -0.25752648881E+02  0.45362017605E+02  0.00000000000E+00 0. -1.
        -14    1    6    6    0    0 -0.35114036170E+01  0.49246440666E+01 -0.17496197207E+03  0.17506648379E+03  0.00000000000E+00 0.  1.
</event>
<event>
12    1  0.8493057E-002  0.1818189E+03  0.7818608E-02  0.1166869E+00
         21   -1    0    0  503  502  0.00000000000E+00  0.00000000000E+00  0.14983928513E+04  0.14983928513E+04  0.00000000000E+00 0. -1.
         21   -1    0    0  501  503 -0.00000000000E+00 -0.00000000000E+00 -0.22955162626E+02  0.22955162626E+02  0.00000000000E+00 0. -1.
          6    2    1    2  501    0  0.56389376897E+02  0.17244563530E+02  0.56317255548E+03  0.59179509436E+03  0.17199119064E+03 0.  0.
         24    2    3    3    0    0  0.42829698046E+02  0.56983491287E+02  0.52256168307E+03  0.53319150890E+03  0.78364349283E+02 0.  0.
         -6    2    1    2    0  502 -0.56389376897E+02 -0.17244563530E+02  0.91226513319E+03  0.92955291957E+03  0.16841561759E+03 0.  0.
        -24    2    5    5    0    0 -0.26973571196E+02 -0.62055304718E+02  0.37366583737E+03  0.38827241594E+03  0.80937485604E+02 0.  0.
          5    1    3    3  501    0  0.13559678851E+02 -0.39738927757E+02  0.40610872411E+02  0.58603585452E+02  0.47000000000E+01 0. -1.
        -11    1    4    4    0    0  0.61574022865E+01 -0.17466165050E+02  0.16940834386E+03  0.17041762671E+03  0.00000000000E+00 0.  1.
         12    1    4    4    0    0  0.36672295759E+02  0.74449656337E+02  0.35315333921E+03  0.36277388219E+03  0.00000000000E+00 0. -1.
         -5    1    5    5    0  502 -0.29415805701E+02  0.44810741188E+02  0.53859929582E+03  0.54128050363E+03  0.47000000000E+01 0.  1.
         11    1    6    6    0    0 -0.22162979090E+02 -0.79639176140E+02  0.34086845364E+03  0.35074905375E+03  0.00000000000E+00 0. -1.
        -12    1    6    6    0    0 -0.48105921056E+01  0.17583871422E+02  0.32797383724E+02  0.37523362186E+02  0.00000000000E+00 0.  1.
</event>
<event>
12    1  0.8493057E-002  0.2134348E+03  0.7818608E-02  0.1139740E+00
         21   -1    0    0  501  502  0.00000000000E+00  0.00000000000E+00  0.64126763783E+02  0.64126763783E+02  0.00000000000E+00 0. -1.
         21   -1    0    0  502  503 -0.00000000000E+00 -0.00000000000E+00 -0.81110543254E+03  0.81110543254E+03  0.00000000000E+00 0.  1.
         -6    2    1    2    0  503  0.80735321091E+02  0.90626907014E+02 -0.53515750470E+03  0.57452867865E+03  0.17017114740E+03 0.  0.
        -24    2    3    3    0    0  0.51245058216E+02  0.85409408051E+02 -0.22172145991E+03  0.25963005675E+03  0.91249863605E+02 0.  0.
          6    2    1    2  501    0 -0.80735321091E+02 -0.90626907014E+02 -0.21182116405E+03  0.30070351767E+03  0.17556472212E+03 0.  0.
         24    2    5    5    0    0 -0.57419102399E+02 -0.11062389265E+03 -0.85891315702E+02  0.17099637756E+03  0.79547747179E+02 0.  0.
          5    1    5    5  501    0 -0.23316218692E+02  0.19996985638E+02 -0.12592984835E+03  0.12970714010E+03  0.47000000000E+01 0. -1.
        -13    1    6    6    0    0  0.25356820998E+01 -0.14523560588E+02 -0.50074069475E+02  0.52199386296E+02  0.00000000000E+00 0.  1.
         14    1    6    6    0    0 -0.59954784499E+02 -0.96100332064E+02 -0.35817246226E+02  0.11879699127E+03  0.00000000000E+00 0. -1.
         -5    1    3    3    0  503  0.29490262875E+02  0.52174989637E+01 -0.31343604479E+03  0.31489862190E+03  0.47000000000E+01 0.  1.
         11    1    4    4    0    0  0.24615931407E+02  0.10033649610E+03 -0.15524060895E+03  0.18647520799E+03  0.00000000000E+00 0. -1.
        -12    1    4    4    0    0  0.26629126809E+02 -0.14927088050E+02 -0.66480850962E+02  0.73154848758E+02  0.00000000000E+00 0.  1.
</event>
<event>
12    1  0.8493057E-002  0.2189813E+03  0.7818608E-02  0.1134755E+00
         21   -1    0    0  501  502  0.00000000000E+00  0.00000000000E+00  0.16344150157E+02  0.16344150157E+02  0.00000000000E+00 0. -1.
         21   -1    0    0  502  503 -0.00000000000E+00 -0.00000000000E+00 -0.30528433028E+04  0.30528433028E+04  0.00000000000E+00 0. -1.
         -6    2    1    2    0  503  0.27993404370E+02  0.13102761400E+03 -0.18328609047E+04  0.18458959625E+04  0.17320780038E+03 0.  0.
        -24    2    3    3    0    0 -0.27763357104E+02  0.10615742026E+03 -0.81597410302E+03  0.82716724474E+03  0.79697629146E+02 0.  0.
          6    2    1    2  501    0 -0.27993404370E+02 -0.13102761400E+03 -0.12036382480E+04  0.12232914905E+04  0.17246788794E+03 0.  0.
         24    2    5    5    0    0 -0.43616437786E+02 -0.38125225766E+02 -0.45087171752E+03  0.46463842597E+03  0.96164623148E+02 0.  0.
          5    1    5    5  501    0  0.15623033416E+02 -0.92902388236E+02 -0.75276653045E+03  0.75865306450E+03  0.47000000000E+01 0. -1.
        -13    1    6    6    0    0  0.37379768972E+00 -0.43750977530E+01 -0.34586076539E+03  0.34588863850E+03  0.00000000000E+00 0.  1.
         14    1    6    6    0    0 -0.43990235476E+02 -0.33750128013E+02 -0.10501095213E+03  0.11874978748E+03  0.00000000000E+00 0. -1.
         -5    1    3    3    0  503  0.55756761474E+02  0.24870193746E+02 -0.10168868017E+04  0.10187287178E+04  0.47000000000E+01 0.  1.
         11    1    4    4    0    0 -0.54630773898E+02  0.71627703795E+02 -0.48273425164E+03  0.49106761970E+03  0.00000000000E+00 0. -1.
        -12    1    4    4    0    0  0.26867416794E+02  0.34529716461E+02 -0.33323985138E+03  0.33609962504E+03  0.00000000000E+00 0.  1.
</event>
<event>
12    1  0.8493057E-002  0.1995944E+03  0.7818608E-02  0.1150857E+00
         21   -1    0    0  501  502  0.00000000000E+00  0.00000000000E+00  0.24561496023E+03  0.24561496023E+03  0.00000000000E+00 0. -1.
         21   -1    0    0  502  503 -0.00000000000E+00 -0.00000000000E+00 -0.80690575206E+03  0.80690575206E+03  0.00000000000E+00 0. -1.
         -6    2    1    2    0  503  0.98940212064E+02  0.18123940151E+02 -0.75160743941E+03  0.77673392856E+03  0.16817910105E+03 0.  0.
        -24    2    3    3    0    0  0.63243906412E+02  0.75245745324E+02 -0.53317545053E+03  0.54810376732E+03  0.80498228636E+02 0.  0.
          6    2    1    2  501    0 -0.98940212064E+02 -0.18123940151E+02  0.19031664759E+03  0.27578678373E+03  0.17239571038E+03 0.  0.
         24    2    5    5    0    0 -0.97995988119E+02 -0.51982391560E+02  0.19689398016E+03  0.24096383735E+03  0.83611893707E+02 0.  0.
          5    1    5    5  501    0 -0.94422394534E+00  0.33858451409E+02 -0.65773325651E+01  0.34822946376E+02  0.47000000000E+01 0. -1.
        -13    1    6    6    0    0 -0.98140419571E+02 -0.69130497696E+02  0.18315947057E+03  0.21899305771E+03  0.00000000000E+00 0.  1.
         14    1    6    6    0    0  0.14443145275E+00  0.17148106136E+02  0.13734509591E+02  0.21970779645E+02  0.00000000000E+00 0. -1.
         -5    1    3    3    0  503  0.35696305653E+02 -0.57121805173E+02 -0.21843198888E+03  0.22863016125E+03  0.47000000000E+01 0.  1.
         11    1    4    4    0    0 -0.11954680864E+02 -0.80462666904E+01 -0.76322883894E+02  0.77671355133E+02  0.00000000000E+00 0. -1.
        -12    1    4    4    0    0  0.75198587275E+02  0.83292012014E+02 -0.45685256664E+03  0.47043241219E+03  0.00000000000E+00 0.  1.
</event>
<event>
12    1  0.8493057E-002  0.2526042E+03  0.7818608E-02  0.1111731E+00
         21   -1    0    0  501  502  0.00000000000E+00  0.00000000000E+00  0.24886321090E+03  0.24886321090E+03  0.00000000000E+00 0.  1.
         21   -1    0    0  502  503 -0.00000000000E+00 -0.00000000000E+00 -0.53619334859E+03  0.53619334859E+03  0.00000000000E+00 0. -1.
         -6    2    1    2    0  503 -0.16902085486E+03  0.72204517184E+02 -0.42736082208E+03  0.49623571422E+03  0.17271673381E+03 0.  0.
        -24    2    3    3    0    0 -0.45638574973E+02  0.15786622277E+02 -0.80121770193E+02  0.12340436493E+03  0.80480073665E+02 0.  0.
          6    2    1    2  501    0  0.16902085486E+03 -0.72204517184E+02  0.14003068439E+03  0.28882084527E+03  0.17328400506E+03 0.  0.
         24    2    5    5    0    0  0.36175548371E+02 -0.16629639025E+02 -0.16626913379E-01  0.87893540147E+02  0.78358528120E+02 0.  0.
          5    1    5    5  501    0  0.13284530649E+03 -0.55574878160E+02  0.14004731131E+03  0.20092730512E+03  0.47000000000E+01 0. -1.
        -11    1    6    6    0    0  0.34728711178E+02  0.26583995888E+02  0.63341357699E+01  0.44191780836E+02  0.00000000000E+00 0.  1.
         12    1    6    6    0    0  0.14468371922E+01 -0.43213634913E+02 -0.63507626833E+01  0.43701759311E+02  0.00000000000E+00 0. -1.
         -5    1    3    3    0  503 -0.12338227989E+03  0.56417894907E+02 -0.34723905189E+03  0.37283134929E+03  0.47000000000E+01 0.  1.
         11    1    4    4    0    0 -0.17934548244E+02  0.38971310740E+02 -0.75697935736E+02  0.87009129155E+02  0.00000000000E+00 0. -1.
        -12    1    4    4    0    0 -0.27704026728E+02 -0.23184688462E+02 -0.44238344567E+01  0.36395235778E+02  0.00000000000E+00 0.  1.
</event>
<event>
12    1  0.8493057E-002  0.2033524E+03  0.7818608E-02  0.1147161E+00
         21   -1    0    0  503  502  0.00000000000E+00  0.00000000000E+00  0.20769775309E+03  0.20769775309E+03  0.00000000000E+00 0.  1.
         21   -1    0    0  501  503 -0.00000000000E+00 -0.00000000000E+00 -0.25771958151E+03  0.25771958151E+03  0.00000000000E+00 0.  1.
          6    2    1    2  501    0  0.87695548634E+02 -0.62244175065E+02 -0.13702820707E+03  0.24521203528E+03  0.17259016813E+03 0.  0.
         24    2    3    3    0    0  0.11020338702E+03 -0.92520371765E+02 -0.10871018019E+03  0.19780685074E+03  0.81270174227E+02 0.  0.
         -6    2    1    2    0  502 -0.87695548634E+02  0.62244175065E+02  0.87006378644E+02  0.22020529932E+03  0.17133422700E+03 0.  0.
        -24    2    5    5    0    0 -0.91588929231E+02  0.73060739908E+01  0.50201834296E+01  0.12132567772E+03  0.79074693532E+02 0.  0.
          5    1    3    3  501    0 -0.22507838383E+02  0.30276196701E+02 -0.28318026880E+02  0.47405184545E+02  0.47000000000E+01 0. -1.
        -11    1    4    4    0    0  0.83525203918E+02 -0.29223573252E+02 -0.90871824660E+02  0.12683913213E+03  0.00000000000E+00 0.  1.
         12    1    4    4    0    0  0.26678183100E+02 -0.63296798514E+02 -0.17838355530E+02  0.70967718603E+02  0.00000000000E+00 0. -1.
         -5    1    5    5    0  502  0.38933805968E+01  0.54938101074E+02  0.81986195214E+02  0.98879621600E+02  0.47000000000E+01 0.  1.
         11    1    6    6    0    0 -0.54832233452E+02 -0.38255461965E+01  0.41098900387E+02  0.68631831114E+02  0.00000000000E+00 0. -1.
        -12    1    6    6    0    0 -0.36756695780E+02  0.11131620187E+02 -0.36078716957E+02  0.52693846604E+02  0.00000000000E+00 0.  1.
</event>
<event>
12    1  0.8493057E-002  0.2148309E+03  0.7818608E-02  0.1137950E+00
         21   -1    0    0  503  502  0.00000000000E+00  0.00000000000E+00  0.51910924425E+03  0.51910924425E+03  0.00000000000E+00 0. -1.
         21   -1    0    0  501  503 -0.00000000000E+00 -0.00000000000E+00 -0.11249641809E+03  0.11249641809E+03  0.00000000000E+00 0. -1.
          6    2    1    2  501    0 -0.12151381255E+03 -0.40077240232E+02  0.34922241401E+03  0.41001051630E+03  0.17257038332E+03 0.  0.
         24    2    3    3    0    0 -0.31942869667E+02 -0.63135536269E+02  0.12325155145E+03  0.16579839630E+03  0.85391571121E+02 0.  0.
         -6    2    1    2    0  502  0.12151381255E+03  0.40077240232E+02  0.57390412142E+02  0.22159514604E+03  0.17157784682E+03 0.  0.
        -24    2    5    5    0    0  0.12110392903E+03  0.83660263018E+02  0.38179082943E+02  0.17373270723E+03  0.84025055496E+02 0.  0.
          5    1    3    3  501    0 -0.89570942886E+02  0.23058296038E+02  0.22597086256E+03  0.24421211999E+03  0.47000000000E+01 0. -1.
        -13    1    4    4    0    0 -0.38967304289E+02 -0.13025570785E+02  0.10793056564E+02  0.42480658750E+02  0.00000000000E+00 0.  1.
         14    1    4    4    0    0  0.70244346217E+01 -0.50109965484E+02  0.11245849489E+03  0.12331773755E+03  0.00000000000E+00 0. -1.
         -5    1    5    5    0  502  0.40988352132E+00 -0.43583022786E+02  0.19211329198E+02  0.47862438814E+02  0.47000000000E+01 0.  1.
         11    1    6    6    0    0  0.71108382105E+01  0.16003102892E+02 -0.22028684985E+02  0.28141184843E+02  0.00000000000E+00 0. -1.
        -12    1    6    6    0    0  0.11399309082E+03  0.67657160126E+02  0.60207767928E+02  0.14559152238E+03  0.00000000000E+00 0.  1.
</event>
<event>
12    1  0.8493057E-002  0.1930836E+03  0.7818608E-02  0.1156724E+00
         21   -1    0    0  503  502  0.00000000000E+00  0.00000000000E+00  0.13417437889E+03  0.13417437889E+03  0.00000000000E+00 0. -1.
         21   -1    0    0  501  503 -0.00000000000E+00 -0.00000000000E+00 -0.29724816021E+03  0.29724816021E+03  0.00000000000E+00 0. -1.
          6    2    1    2  501    0 -0.17878690659E+02 -0.85034827100E+02 -0.14429833042E+03  0.23742822496E+03  0.16733076360E+03 0.  0.
         24    2    3    3    0    0  0.15422679914E+02 -0.53451129565E+02 -0.16195935023E+03  0.18802667789E+03  0.77642244710E+02 0.  0.
         -6    2    1    2    0  502  0.17878690659E+02  0.85034827100E+02 -0.18775450902E+02  0.19399431414E+03  0.17242594631E+03 0.  0.
        -24    2    5    5    0    0  0.16963443381E+02 -0.21399379466E+02  0.40814509211E+01  0.85028237004E+02  0.80420463773E+02 0.  0.
          5    1    3    3  501    0 -0.33301370573E+02 -0.31583697535E+02  0.17661019810E+02  0.49401547069E+02  0.47000000000E+01 0. -1.
        -11    1    4    4    0    0  0.18166476751E+02  0.11195804347E+02 -0.11492857405E+02  0.24237423210E+02  0.00000000000E+00 0.  1.
         12    1    4    4    0    0 -0.27437968371E+01 -0.64646933912E+02 -0.15046649283E+03  0.16378925468E+03  0.00000000000E+00 0. -1.
         -5    1    5    5    0  502  0.91524727793E+00  0.10643420657E+03 -0.22856901823E+02  0.10896607713E+03  0.47000000000E+01 0.  1.
         11    1    6    6    0    0 -0.21609198036E+02  0.15742393768E+02  0.14592661585E+02  0.30458597693E+02  0.00000000000E+00 0. -1.
        -12    1    6    6    0    0  0.38572641417E+02 -0.37141773234E+02 -0.10511210664E+02  0.54569639311E+02  0.00000000000E+00 0.  1.
</event>
<event>
12    1  0.8493057E-002  0.2227587E+03  0.7818608E-02  0.1131928E+00
         21   -1    0    0  501  502  0.00000000000E+00  0.00000000000E+00  0.57976529280E+03  0.57976529280E+03  0.00000000000E+00 0. -1.
         21   -1    0    0  502  503 -0.00000000000E+00 -0.00000000000E+00 -0.87925376275E+02  0.87925376275E+02  0.00000000000E+00 0.  1.
         -6    2    1    2    0  503  0.12252704689E+03 -0.70813123174E+02  0.30261910377E+03  0.37576553850E+03  0.17202919031E+03 0.  0.
        -24    2    3    3    0    0  0.11483300258E+03 -0.40441185748E+02  0.31074858162E+03  0.34305726262E+03  0.79381965644E+02 0.  0.
          6    2    1    2  501    0 -0.12252704689E+03  0.70813123174E+02  0.18922081276E+03  0.29192513058E+03  0.17143042394E+03 0.  0.
         24    2    5    5    0    0 -0.71876199159E+02  0.52195262845E+02  0.20194654699E+03  0.23628191526E+03  0.84594338877E+02 0.  0.
          5    1    5    5  501    0 -0.50650847733E+02  0.18617860329E+02 -0.12725734233E+02  0.55643215319E+02  0.47000000000E+01 0. -1.
        -13    1    6    6    0    0 -0.70349403978E+02  0.39747398605E+02  0.80045025790E+02  0.11373697943E+03  0.00000000000E+00 0.  1.
         14    1    6    6    0    0 -0.15267951809E+01  0.12447864240E+02  0.12190152120E+03  0.12254493583E+03  0.00000000000E+00 0. -1.
         -5    1    3    3    0  503  0.76940443128E+01 -0.30371937426E+02 -0.81294778477E+01  0.32708275879E+02  0.47000000000E+01 0.  1.
         11    1    4    4    0    0  0.68104027305E+02 -0.46794552019E+02  0.11437908622E+03  0.14110444358E+03  0.00000000000E+00 0. -1.
        -12    1    4    4    0    0  0.46728975274E+02  0.63533662714E+01  0.19636949540E+03  0.20195281903E+03  0.00000000000E+00 0.  1.
</event>
<event>
12    1  0.8493057E-002  0.1900473E+03  0.7818608E-02  0.1158477E+00
         21   -1    0    0  503  502  0.00000000000E+00  0.00000000000E+00  0.18077237117E+03  0.18077237117E+03  0.00000000000E+00 0. -1.
         21   -1    0    0  501  503 -0.00000000000E+00 -0.00000000000E+00 -0.14448044381E+04  0.14448044381E+04  0.00000000000E+00 0. -1.
          6    2    1    2  501    0 -0.79015914323E+02  0.16924849252E+02 -0.13866573584E+04  0.13996201649E+04  0.17201166025E+03 0.  0.
         24    2    3    3    0    0  0.14860253946E+02 -0.30405127197E+02 -0.74428160194E+03  0.74868117846E+03  0.73641734612E+02 0.  0.
         -6    2    1    2    0  502  0.79015914323E+02 -0.16924849252E+02  0.12262529150E+03  0.22595664430E+03  0.17172500618E+03 0.  0.
        -24    2    5    5    0    0  0.86570892003E+02 -0.52512989379E+02  0.13586307120E+03  0.18695764153E+03  0.79007925019E+02 0.  0.
          5    1    3    3  501    0 -0.93876168269E+02  0.47329976450E+02 -0.64237575645E+03  0.65093898648E+03  0.47000000000E+01 0. -1.
        -11    1    4    4    0    0 -0.90897575763E+01 -0.48866885299E+02 -0.51999765225E+03  0.52236783449E+03  0.00000000000E+00 0.  1.
         12    1    4    4    0    0  0.23950011522E+02  0.18461758102E+02 -0.22428394970E+03  0.22631334396E+03  0.00000000000E+00 0. -1.
         -5    1    5    5    0  502 -0.75549776802E+01  0.35588140126E+02 -0.13237779697E+02  0.38999002766E+02  0.47000000000E+01 0.  1.
         11    1    6    6    0    0  0.18751068726E+02  0.10591690720E+02  0.70146012105E+02  0.73377445478E+02  0.00000000000E+00 0. -1.
        -12    1    6    6    0    0  0.67819823277E+02 -0.63104680099E+02  0.65717059096E+02  0.11358019606E+03  0.00000000000E+00 0.  1.
</event>
<event>
12    1  0.8493057E-002  0.2614904E+03  0.7818608E-02  0.1106449E+00
         21   -1    0    0  503  502  0.00000000000E+00  0.00000000000E+00  0.31866964608E+03  0.31866964608E+03  0.00000000000E+00 0. -1.
         21   -1    0    0  501  503 -0.00000000000E+00 -0.00000000000E+00 -0.41124005016E+03  0.41124005016E+03  0.00000000000E+00 0.  1.
          6    2    1    2  501    0 -0.54812267160E+02  0.18840901296E+03 -0.29930108225E+03  0.39657085659E+03  0.17083607835E+03 0.  0.
         24    2    3    3    0    0 -0.52781279592E+02  0.97543983383E+02 -0.26779024184E+03  0.30026093201E+03  0.78385722536E+02 0.  0.
         -6    2    1    2    0  502  0.54812267160E+02 -0.18840901296E+03  0.20673067818E+03  0.33333883964E+03  0.17284347810E+03 0.  0.
        -24    2    5    5    0    0  0.39241663007E+02 -0.45831266592E+02  0.14864092934E+03  0.17852486614E+03  0.78336382626E+02 0.  0.
          5    1    3    3  501    0 -0.20309875682E+01  0.90865029572E+02 -0.31510840415E+02  0.96309924584E+02  0.47000000000E+01 0. -1.
        -13    1    4    4    0    0 -0.78332873360E+01  0.86423163447E+02 -0.14439707030E+03  0.16846613156E+03  0.00000000000E+00 0.  1.
         14    1    4    4    0    0 -0.44947992256E+02  0.11120819936E+02 -0.12339317154E+03  0.13179480045E+03  0.00000000000E+00 0. -1.
         -5    1    5    5    0  502  0.15570604153E+02 -0.14257774636E+03  0.58089748842E+02  0.15481397350E+03  0.47000000000E+01 0.  1.
         11    1    6    6    0    0  0.42776726447E+02 -0.22976503401E+02  0.14759230010E+03  0.15537456382E+03  0.00000000000E+00 0. -1.
        -12    1    6    6    0    0 -0.35350634395E+01 -0.22854763191E+02  0.10486292352E+01  0.23150302316E+02  0.00000000000E+00 0.  1.
</event>
<event>
12    1  0.8493057E-002  0.1847685E+03  0.7818608E-02  0.1163436E+00
         21   -1    0    0  503  502  0.00000000000E+00  0.00000000000E+00  0.15742074678E+04  0.15742074678E+04  0.00000000000E+00 0.  1.
         21   -1    0    0  501  503 -0.00000000000E+00 -0.00000000000E+00 -0.22761874488E+02  0.22761874488E+02  0.00000000000E+00 0.  1.
          6    2    1    2  501    0  0.57416989685E+02 -0.34267980866E+02  0.59689899811E+03  0.62484223017E+03  0.17224515504E+03 0.  0.
         24    2    3    3    0    0  0.93082915573E+02 -0.48837290106E+02  0.33710341792E+03  0.36216342149E+03  0.80461912816E+02 0.  0.
         -6    2    1    2    0  502 -0.57416989685E+02  0.34267980866E+02  0.95454659520E+03  0.97212711212E+03  0.17146694870E+03 0.  0.
        -24    2    5    5    0    0 -0.93671327318E+02 -0.12268338276E+02  0.68111943905E+03  0.69236917083E+03  0.80787058222E+02 0.  0.
          5    1    3    3  501    0 -0.35665925888E+02  0.14569309240E+02  0.25979558019E+03  0.26267880868E+03  0.47000000000E+01 0. -1.
        -13    1    4    4    0    0  0.13442191371E+02 -0.24806106996E+02  0.19863038510E+03  0.20062418931E+03  0.00000000000E+00 0.  1.
         14    1    4    4    0    0  0.79640724202E+02 -0.24031183110E+02  0.13847303283E+03  0.16153923218E+03  0.00000000000E+00 0. -1.
         -5    1    5    5    0  502  0.36254337633E+02  0.46536319142E+02  0.27342715615E+03  0.27975794129E+03  0.47000000000E+01 0.  1.
         13    1    6    6    0    0 -0.51585529405E+02  0.33715095386E+02  0.36429058374E+03  0.36946637723E+03  0.00000000000E+00 0. -1.
        -14    1    6    6    0    0 -0.42085797913E+02 -0.45983433663E+02  0.31682885531E+03  0.32290279360E+03  0.00000000000E+00 0.  1.
</event>
<event>
12    1  0.8493057E-002  0.2169696E+03  0.7818608E-02  0.1136401E+00
         21   -1    0    0  501  502  0.00000000000E+00  0.00000000000E+00  0.11231040455E+03  0.11231040455E+03  0.00000000000E+00 0.  1.
         21   -1    0    0  502  503 -0.00000000000E+00 -0.00000000000E+00 -0.51745742261E+03  0.51745742261E+03  0.00000000000E+00 0. -1.
         -6    2    1    2    0  503  0.11896790980E+03 -0.57584599628E+02 -0.34101747289E+03  0.40351923181E+03  0.17048608140E+03 0.  0.
        -24    2    3    3    0    0  0.11947751507E+03  0.82457130914E+01 -0.27309384701E+03  0.30881126635E+03  0.80257588771E+02 0.  0.
          6    2    1    2  501    0 -0.11896790980E+03  0.57584599628E+02 -0.64129545168E+02  0.22624859535E+03  0.17206533253E+03 0.  0.
         24    2    5    5    0    0 -0.10953476682E+03  0.10077700163E+03 -0.65888637367E+02  0.18175418915E+03  0.80866578634E+02 0.  0.
          5    1    5    5  501    0 -0.94331429774E+01 -0.43192402007E+02  0.17590921994E+01  0.44494406198E+02  0.47000000000E+01 0. -1.
        -11    1    6    6    0    0 -0.31080059185E+02  0.83260710456E+02 -0.31009799735E+02  0.94127167514E+02  0.00000000000E+00 0.  1.
         12    1    6    6    0    0 -0.78454707637E+02  0.17516291179E+02 -0.34878837632E+02  0.87627021641E+02  0.00000000000E+00 0. -1.
         -5    1    3    3    0  503 -0.50960527300E+00 -0.65830312720E+02 -0.67923625881E+02  0.94707965469E+02  0.47000000000E+01 0.  1.
         13    1    4    4    0    0  0.46877283674E+02  0.89373003971E+01 -0.20065127049E+03  0.20624812099E+03  0.00000000000E+00 0. -1.
        -14    1    4    4    0    0  0.72600231398E+02 -0.69158730573E+00 -0.72442576517E+02  0.10256314535E+03  0.00000000000E+00 0.  1.
</event>
<event>
12    1  0.8493057E-002  0.4727348E+03  0.7818608E-02  0.1021154E+00
         21   -1    0    0  501  502  0.00000000000E+00  0.00000000000E+00  0.89215854637E+03  0.89215854637E+03  0.00000000000E+00 0.  1.
         21   -1    0    0  502  503 -0.00000000000E+00 -0.00000000000E+00 -0.15191069564E+04  0.15191069564E+04  0.00000000000E+00 0. -1.
         -6    2    1    2    0  503 -0.42645398872E+03  0.11029042628E+03 -0.14152386838E+04  0.14920921039E+04  0.17149732308E+03 0.  0.
        -24    2    3    3    0    0 -0.24893863601E+03  0.37491877730E+02 -0.10017758808E+04  0.10362578044E+04  0.83061642824E+02 0.  0.
          6    2    1    2  501    0  0.42645398872E+03 -0.11029042628E+03  0.78829027375E+03  0.91917339887E+03  0.17161351605E+03 0.  0.
         24    2    5    5    0    0  0.40724067793E+03 -0.12837465280E+03  0.67292763746E+03  0.80073852896E+03  0.77624514562E+02 0.  0.
          5    1    5    5  501    0  0.19213310787E+02  0.18084226518E+02  0.11536263629E+03  0.11843486992E+03  0.47000000000E+01 0. -1.
        -11    1    6    6    0    0  0.23406200765E+03 -0.47635573612E+02  0.42745859402E+03  0.48966827638E+03  0.00000000000E+00 0.  1.
         12    1    6    6    0    0  0.17317867028E+03 -0.80739079190E+02  0.24546904344E+03  0.31107025257E+03  0.00000000000E+00 0. -1.
         -5    1    3    3    0  503 -0.17751535271E+03  0.72798548554E+02 -0.41346280300E+03  0.45583429948E+03  0.47000000000E+01 0.  1.
         11    1    4    4    0    0 -0.86027515503E+02  0.23214094505E+02 -0.21622499151E+03  0.23386507769E+03  0.00000000000E+00 0. -1.
        -12    1    4    4    0    0 -0.16291112051E+03  0.14277783225E+02 -0.78555088930E+03  0.80239272676E+03  0.00000000000E+00 0.  1.
</event>
<event>
12    1  0.8493057E-002  0.1938549E+03  0.7818608E-02  0.1155600E+00
         21   -1    0    0  503  502  0.00000000000E+00  0.00000000000E+00  0.18244433936E+03  0.18244433936E+03  0.00000000000E+00 0. -1.
         21   -1    0    0  501  503 -0.00000000000E+00 -0.00000000000E+00 -0.53364555550E+03  0.53364555550E+03  0.00000000000E+00 0. -1.
          6    2    1    2  501    0 -0.85202275847E+02  0.24844777789E+02 -0.45687818837E+03  0.49530192373E+03  0.16943915088E+03 0.  0.
         24    2    3    3    0    0 -0.11825297461E+02 -0.10263552144E+01 -0.11021908086E+03  0.13998780454E+03  0.85483615792E+02 0.  0.
         -6    2    1    2    0  502  0.85202275847E+02 -0.24844777789E+02  0.10567697222E+03  0.22078797113E+03  0.17234562642E+03 0.  0.
        -24    2    5    5    0    0  0.42772945598E+02 -0.72831082169E+02  0.47627286903E+02  0.13421551917E+03  0.92798468320E+02 0.  0.
          5    1    3    3  501    0 -0.73376978386E+02  0.25871133004E+02 -0.34665910750E+03  0.35531411919E+03  0.47000000000E+01 0. -1.
        -13    1    4    4    0    0 -0.30258945163E+02  0.12905984635E+02 -0.11207862436E+03  0.11680661900E+03  0.00000000000E+00 0.  1.
         14    1    4    4    0    0  0.18433647703E+02 -0.13932339849E+02  0.18595435001E+01  0.23181185546E+02  0.00000000000E+00 0. -1.
         -5    1    5    5    0  502  0.42429330249E+02  0.47986304379E+02  0.58049685320E+02  0.86572451964E+02  0.47000000000E+01 0.  1.
         13    1    6    6    0    0  0.31192114711E+02 -0.29741439367E+02  0.71595354782E+02  0.83566716233E+02  0.00000000000E+00 0. -1.
        -14    1    6    6    0    0  0.11580830887E+02 -0.43089642801E+02 -0.23968067878E+02  0.50648802934E+02  0.00000000000E+00 0.  1.
</event>
<event>
12    1  0.8493057E-002  0.2897737E+03  0.7818608E-02  0.1090508E+00
         21   -1    0    0  501  502  0.00000000000E+00  0.00000000000E+00  0.21709800541E+03  0.21709800541E+03  0.00000000000E+00 0. -1.
         21   -1    0    0  502  503 -0.00000000000E+00 -0.00000000000E+00 -0.44305953364E+03  0.44305953364E+03  0.00000000000E+00 0. -1.
         -6    2    1    2    0  503  0.17337541528E+03 -0.15516431930E+03 -0.23110898405E+03  0.37064826222E+03  0.17272455291E+03 0.  0.
        -24    2    3    3    0    0  0.16893388015E+03 -0.11829287335E+03 -0.11754766911E+03  0.25107613750E+03  0.81791885668E+02 0.  0.
          6    2    1    2  501    0 -0.17337541528E+03  0.15516431930E+03  0.51474558165E+01  0.28950927682E+03  0.17220372951E+03 0.  0.
         24    2    5    5    0    0 -0.18191438489E+03  0.14631042767E+03  0.41910952095E+02  0.25045866789E+03  0.80457639423E+02 0.  0.
          5    1    5    5  501    0  0.85389696080E+01  0.88538916217E+01 -0.36763496279E+02  0.39050608925E+02  0.47000000000E+01 0. -1.
        -11    1    6    6    0    0 -0.48723117929E+02 -0.31166097128E+00  0.52122820682E+01  0.49002114625E+02  0.00000000000E+00 0.  1.
         12    1    6    6    0    0 -0.13319126696E+03  0.14662208865E+03  0.36698670027E+02  0.20145655327E+03  0.00000000000E+00 0. -1.
         -5    1    3    3    0  503  0.44415351286E+01 -0.36871445948E+02 -0.11356131494E+03  0.11957212472E+03  0.47000000000E+01 0.  1.
         13    1    4    4    0    0  0.32350590908E+01  0.74249367593E+01 -0.19533622662E+02  0.21146103838E+02  0.00000000000E+00 0. -1.
        -14    1    4    4    0    0  0.16569882106E+03 -0.12571781011E+03 -0.98014046444E+02  0.22993003366E+03  0.00000000000E+00 0.  1.
</event>
<event>
12    1  0.8493057E-002  0.1826343E+03  0.7818608E-02  0.1165307E+00
         21   -1    0    0  501  502  0.00000000000E+00  0.00000000000E+00  0.67902287336E+02  0.67902287336E+02  0.00000000000E+00 0.  1.
         21   -1    0    0  502  503 -0.00000000000E+00 -0.00000000000E+00 -0.70027774165E+03  0.70027774165E+03  0.00000000000E+00 0. -1.
         -6    2    1    2    0  503  0.30375634899E+02 -0.56924045424E+02 -0.52628950089E+03  0.55707801753E+03  0.17085740465E+03 0.  0.
        -24    2    3    3    0    0  0.60084853885E+02  0.64613956929E+01 -0.39704914149E+03  0.41002186385E+03  0.82570992319E+02 0.  0.
          6    2    1    2  501    0 -0.30375634899E+02  0.56924045424E+02 -0.10608595343E+03  0.21110201146E+03  0.17072434971E+03 0.  0.
         24    2    5    5    0    0 -0.64395476565E+01  0.10170504872E+03 -0.53593708397E+02  0.13791867786E+03  0.75920296464E+02 0.  0.
          5    1    5    5  501    0 -0.23936087243E+02 -0.44781003291E+02 -0.52492245033E+02  0.73183333600E+02  0.47000000000E+01 0. -1.
        -11    1    6    6    0    0  0.23125121585E+02  0.22963193910E+01 -0.74407008969E+01  0.24400990982E+02  0.00000000000E+00 0.  1.
         12    1    6    6    0    0 -0.29564669242E+02  0.99408729324E+02 -0.46153007500E+02  0.11351768688E+03  0.00000000000E+00 0. -1.
         -5    1    3    3    0  503 -0.29709218986E+02 -0.63385441117E+02 -0.12924035939E+03  0.14705615368E+03  0.47000000000E+01 0.  1.
         13    1    4    4    0    0  0.53056186354E+02 -0.19525983831E+02 -0.35892792014E+03  0.36335309936E+03  0.00000000000E+00 0. -1.
        -14    1    4    4    0    0  0.70286675316E+01  0.25987379524E+02 -0.38121221350E+02  0.46668764490E+02  0.00000000000E+00 0.  1.
</event>
<event>
12    1  0.8493057E-002  0.2342456E+03  0.7818608E-02  0.1123722E+00
         21   -1    0    0  503  502  0.00000000000E+00  0.00000000000E+00  0.53443295226E+03  0.53443295226E+03  0.00000000000E+00 0. -1.
         21   -1    0    0  501  503 -0.00000000000E+00 -0.00000000000E+00 -0.16438617852E+03  0.16438617852E+03  0.00000000000E+00 0. -1.
          6    2    1    2  501    0  0.16002149424E+03  0.23073691603E+01 -0.29172359902E+02  0.23605509489E+03  0.17105197652E+03 0.  0.
         24    2    3    3    0    0  0.13044654549E+03  0.14680066728E+02 -0.83520475477E+02  0.17278133331E+03  0.75139295476E+02 0.  0.
         -6    2    1    2    0  502 -0.16002149424E+03 -0.23073691603E+01  0.39921913364E+03  0.46276403590E+03  0.17077011941E+03 0.  0.
        -24    2    5    5    0    0 -0.18440782512E+03 -0.74921581772E+00  0.38186011299E+03  0.43242352546E+03  0.84653128629E+02 0.  0.
          5    1    3    3  501    0  0.29574948743E+02 -0.12372697567E+02  0.54348115575E+02  0.63273761583E+02  0.47000000000E+01 0. -1.
        -11    1    4    4    0    0  0.33375532729E+02 -0.28521923316E+02 -0.15193038339E+02  0.46457020013E+02  0.00000000000E+00 0.  1.
         12    1    4    4    0    0  0.97071012764E+02  0.43201990044E+02 -0.68327437138E+02  0.12632431329E+03  0.00000000000E+00 0. -1.
         -5    1    5    5    0  502  0.24386330881E+02 -0.15581533426E+01  0.17359020649E+02  0.30340510437E+02  0.47000000000E+01 0. -1.
         11    1    6    6    0    0 -0.33319998183E+02 -0.22277298392E+02  0.34004723992E+02  0.52562548990E+02  0.00000000000E+00 0. -1.
        -12    1    6    6    0    0 -0.15108782693E+03  0.21528082574E+02  0.34785538900E+03  0.37986097647E+03  0.00000000000E+00 0.  1.
</event>
<event>
12    1  0.8493057E-002  0.2612007E+03  0.7818608E-02  0.1106441E+00
         21   -1    0    0  503  502  0.00000000000E+00  0.00000000000E+00  0.42467499247E+03  0.42467499247E+03  0.00000000000E+00 0. -1.
         21   -1    0    0  501  503 -0.00000000000E+00 -0.00000000000E+00 -0.11001429352E+04  0.11001429352E+04  0.00000000000E+00 0.  1.
          6    2    1    2  501    0  0.15921903923E+03 -0.11583173432E+03 -0.10422952328E+04  0.10744979407E+04  0.17146072189E+03 0.  0.
         24    2    3    3    0    0  0.22995121914E+02 -0.99132191838E+01 -0.44533690835E+03  0.45308260567E+03  0.79572847596E+02 0.  0.
         -6    2    1    2    0  502 -0.15921903923E+03  0.11583173432E+03  0.36682729010E+03  0.45031998692E+03  0.17163372839E+03 0.  0.
        -24    2    5    5    0    0 -0.97881211807E+02  0.14192927837E+03  0.30496830015E+03  0.35925937240E+03  0.79605156079E+02 0.  0.
          5    1    3    3  501    0  0.13622391732E+03 -0.10591851514E+03 -0.59695832447E+03  0.62141533507E+03  0.47000000000E+01 0. -1.
        -11    1    4    4    0    0  0.24737375563E+02  0.30380458025E+02 -0.28827685719E+03  0.29092689180E+03  0.00000000000E+00 0.  1.
         12    1    4    4    0    0 -0.17422536490E+01 -0.40293677209E+02 -0.15706005116E+03  0.16215571387E+03  0.00000000000E+00 0. -1.
         -5    1    5    5    0  502 -0.61337827425E+02 -0.26097544050E+02  0.61858989953E+02  0.91060614520E+02  0.47000000000E+01 0.  1.
         13    1    6    6    0    0 -0.10390201429E+03  0.89593751435E+02  0.22281909787E+03  0.26166967582E+03  0.00000000000E+00 0. -1.
        -14    1    6    6    0    0  0.60208024791E+01  0.52335526940E+02  0.82149202281E+02  0.97589696577E+02  0.00000000000E+00 0.  1.
</event>
<event>
12    1  0.8493057E-002  0.1871598E+03  0.7818608E-02  0.1161090E+00
         21   -1    0    0  503  502  0.00000000000E+00  0.00000000000E+00  0.73444825880E+03  0.73444825880E+03  0.00000000000E+00 0.  1.
         21   -1    0    0  501  503 -0.00000000000E+00 -0.00000000000E+00 -0.62688501505E+02  0.62688501505E+02  0.00000000000E+00 0.  1.
          6    2    1    2  501    0  0.13099791717E+02  0.72250183437E+02  0.14077558492E+03  0.23419342565E+03  0.17215429637E+03 0.  0.
         24    2    3    3    0    0 -0.55731493914E+02  0.58665030934E+02  0.11214499860E+03  0.15827173756E+03  0.76979587747E+02 0.  0.
         -6    2    1    2    0  502 -0.13099791717E+02 -0.72250183437E+02  0.53098417237E+03  0.56294333465E+03  0.17195730043E+03 0.  0.
        -24    2    5    5    0    0 -0.11403732063E+02 -0.11636537863E+03  0.42735173054E+03  0.45020115060E+03  0.79878832977E+02 0.  0.
          5    1    3    3  501    0  0.68831285631E+02  0.13585152503E+02  0.28630586322E+02  0.75921688095E+02  0.47000000000E+01 0. -1.
        -13    1    4    4    0    0 -0.29163869566E+01  0.32831295274E+02  0.89310427679E+02  0.95198486093E+02  0.00000000000E+00 0.  1.
         14    1    4    4    0    0 -0.52815106957E+02  0.25833735660E+02  0.22834570923E+02  0.63073251464E+02  0.00000000000E+00 0. -1.
         -5    1    5    5    0  502 -0.16960596539E+01  0.44115195191E+02  0.10363244183E+03  0.11274218405E+03  0.47000000000E+01 0.  1.
         11    1    6    6    0    0  0.17428464451E+02 -0.50594572891E+01  0.20334400587E+02  0.27255042257E+02  0.00000000000E+00 0. -1.
        -12    1    6    6    0    0 -0.28832196514E+02 -0.11130592134E+03  0.40701732995E+03  0.42294610834E+03  0.00000000000E+00 0.  1.
</event>
<event>
12    1  0.8493057E-002  0.2316727E+03  0.7818608E-02  0.1125588E+00
         21   -1    0    0  503  502  0.00000000000E+00  0.00000000000E+00  0.19904541258E+03  0.19904541258E+03  0.00000000000E+00 0.  1.
         21   -1    0    0  501  503 -0.00000000000E+00 -0.00000000000E+00 -0.28515237011E+03  0.28515237011E+03  0.00000000000E+00 0.  1.
          6    2    1    2  501    0 -0.30202938857E+02 -0.15237071578E+03 -0.10100246034E+03  0.25273249696E+03  0.17188125401E+03 0.  0.
         24    2    3    3    0    0 -0.16840122564E+02 -0.90657904696E+02 -0.13470999767E+03  0.18100158324E+03  0.78181482787E+02 0.  0.
         -6    2    1    2    0  502  0.30202938857E+02  0.15237071578E+03  0.14895502810E+02  0.23146528573E+03  0.17095394102E+03 0.  0.
        -24    2    5    5    0    0  0.47073296683E+02  0.14085569720E+03  0.62612776157E+02  0.17934779536E+03  0.78670510793E+02 0.  0.
          5    1    3    3  501    0 -0.13362816293E+02 -0.61712811086E+02  0.33707537324E+02  0.71730913725E+02  0.47000000000E+01 0. -1.
        -11    1    4    4    0    0 -0.24634688824E+02 -0.30257866832E+02 -0.10738052613E+03  0.11424965554E+03  0.00000000000E+00 0.  1.
         12    1    4    4    0    0  0.77945662605E+01 -0.60400037864E+02 -0.27329471541E+02  0.66751927701E+02  0.00000000000E+00 0. -1.
         -5    1    5    5    0  502 -0.16870357827E+02  0.11515018577E+02 -0.47717273346E+02  0.52117490362E+02  0.47000000000E+01 0.  1.
         13    1    6    6    0    0 -0.11585815350E+02  0.17729503724E+02  0.33901024432E+02  0.39973064396E+02  0.00000000000E+00 0. -1.
        -14    1    6    6    0    0  0.58659112034E+02  0.12312619348E+03  0.28711751724E+02  0.13937473097E+03  0.00000000000E+00 0.  1.
</event>
<event>
12    1  0.8493057E-002  0.1763276E+03  0.7818608E-02  0.1171537E+00
         21   -1    0    0  503  502  0.00000000000E+00  0.00000000000E+00  0.31035857509E+03  0.31035857509E+03  0.00000000000E+00 0.  1.
         21   -1    0    0  501  503 -0.00000000000E+00 -0.00000000000E+00 -0.10107374587E+03  0.10107374587E+03  0.00000000000E+00 0.  1.
          6    2    1    2  501    0 -0.22286338536E+02  0.33890052438E+02  0.82428693055E+02  0.19464306402E+03  0.17159899881E+03 0.  0.
         24    2    3    3    0    0 -0.34707540020E+02 -0.44098507859E+02  0.46643235509E+02  0.10781455053E+03  0.79366832855E+02 0.  0.
         -6    2    1    2    0  502  0.22286338536E+02 -0.33890052438E+02  0.12685613616E+03  0.21678925693E+03  0.17105521360E+03 0.  0.
        -24    2    5    5    0    0  0.69566239041E+02 -0.34340819992E+02  0.41124486223E+02  0.11877090159E+03  0.79978435629E+02 0.  0.
          5    1    3    3  501    0  0.12421201484E+02  0.77988560297E+02  0.35785457547E+02  0.86828513492E+02  0.47000000000E+01 0. -1.
        -13    1    4    4    0    0 -0.31957702684E+02  0.66457398101E+01  0.46723218811E+02  0.56995787515E+02  0.00000000000E+00 0.  1.
         14    1    4    4    0    0 -0.27498373363E+01 -0.50744247669E+02 -0.79983302294E-01  0.50818763013E+02  0.00000000000E+00 0. -1.
         -5    1    5    5    0  502 -0.47279900505E+02  0.45076755432E+00  0.85731649938E+02  0.98018355343E+02  0.47000000000E+01 0.  1.
         13    1    6    6    0    0  0.13828328649E+02 -0.25578474829E+02  0.53606081569E+02  0.60984367087E+02  0.00000000000E+00 0. -1.
        -14    1    6    6    0    0  0.55737910392E+02 -0.87623451634E+01 -0.12481595346E+02  0.57786534504E+02  0.00000000000E+00 0.  1.
</event>
<event>
12    1  0.8493057E-002  0.1880396E+03  0.7818608E-02  0.1161088E+00
         21   -1    0    0  503  502  0.00000000000E+00  0.00000000000E+00  0.40353332662E+02  0.40353332662E+02  0.00000000000E+00 0.  1.
         21   -1    0    0  501  503 -0.00000000000E+00 -0.00000000000E+00 -0.86590897889E+03  0.86590897889E+03  0.00000000000E+00 0.  1.
          6    2    1    2  501    0 -0.53925434339E+02 -0.38529884643E+02 -0.44850870282E+03  0.48492720119E+03  0.17205182206E+03 0.  0.
         24    2    3    3    0    0  0.12331128057E+02  0.16976673638E+02 -0.12437764633E+03  0.14943660243E+03  0.80132609306E+02 0.  0.
         -6    2    1    2    0  502  0.53925434339E+02  0.38529884643E+02 -0.37704694341E+03  0.42133511035E+03  0.17597264903E+03 0.  0.
        -24    2    5    5    0    0 -0.23030280378E+02 -0.22984181862E+01 -0.27506712129E+03  0.28712964676E+03  0.79030603532E+02 0.  0.
          5    1    3    3  501    0 -0.66256562396E+02 -0.55506558281E+02 -0.32413105649E+03  0.33549059876E+03  0.47000000000E+01 0. -1.
        -13    1    4    4    0    0 -0.19254336579E+02 -0.23943041798E+02 -0.53775687909E+02  0.61934024072E+02  0.00000000000E+00 0.  1.
         14    1    4    4    0    0  0.31585464636E+02  0.40919715436E+02 -0.70601958416E+02  0.87502578361E+02  0.00000000000E+00 0. -1.
         -5    1    5    5    0  502  0.76955714716E+02  0.40828302829E+02 -0.10197982212E+03  0.13420546359E+03  0.47000000000E+01 0.  1.
         11    1    6    6    0    0 -0.22079747965E+02 -0.39427499612E+02 -0.15409793937E+03  0.16058710382E+03  0.00000000000E+00 0. -1.
        -12    1    6    6    0    0 -0.95053241256E+00  0.37129081426E+02 -0.12096918192E+03  0.12654254294E+03  0.00000000000E+00 0.  1.
</event>
<event>
12    1  0.8493057E-002  0.1754884E+03  0.7818608E-02  0.1174342E+00
         21   -1    0    0  503  502  0.00000000000E+00  0.00000000000E+00  0.35935597035E+03  0.35935597035E+03  0.00000000000E+00 0. -1.
         21   -1    0    0  501  503 -0.00000000000E+00 -0.00000000000E+00 -0.82573627769E+02  0.82573627769E+02  0.00000000000E+00 0. -1.
          6    2    1    2  501    0 -0.28293240380E+02 -0.11491961474E+02  0.15719455286E+03  0.22956810424E+03  0.16449563644E+03 0.  0.
         24    2    3    3    0    0  0.41502764548E+02 -0.27072196006E+02  0.11259034357E+03  0.14515334547E+03  0.77055337090E+02 0.  0.
         -6    2    1    2    0  502  0.28293240380E+02  0.11491961474E+02  0.11958778972E+03  0.21236149388E+03  0.17281085614E+03 0.  0.
        -24    2    5    5    0    0  0.37973527976E+02  0.57197567550E+02  0.27021497233E+02  0.10856689431E+03  0.79643321541E+02 0.  0.
          5    1    3    3  501    0 -0.69796004928E+02  0.15580234532E+02  0.44604209282E+02  0.84414758767E+02  0.47000000000E+01 0. -1.
        -13    1    4    4    0    0  0.59854221382E+02 -0.76052931630E+01  0.54954664867E+02  0.81611172593E+02  0.00000000000E+00 0.  1.
         14    1    4    4    0    0 -0.18351456834E+02 -0.19466902843E+02  0.57635678708E+02  0.63542172880E+02  0.00000000000E+00 0. -1.
         -5    1    5    5    0  502 -0.96802875960E+01 -0.45705606076E+02  0.92566292488E+02  0.10379459957E+03  0.47000000000E+01 0.  1.
         13    1    6    6    0    0  0.51086899356E+02  0.30132606761E+02  0.44165732152E+02  0.73949017387E+02  0.00000000000E+00 0. -1.
        -14    1    6    6    0    0 -0.13113371380E+02  0.27064960788E+02 -0.17144234919E+02  0.34617876919E+02  0.00000000000E+00 0.  1.
</event>
<event>
12    1  0.8493057E-002  0.1929706E+03  0.7818608E-02  0.1155898E+00
         21   -1    0    0  503  502  0.00000000000E+00  0.00000000000E+00  0.24129816213E+03  0.24129816213E+03  0.00000000000E+00 0.  1.
         21   -1    0    0  501  503 -0.00000000000E+00 -0.00000000000E+00 -0.15593608157E+03  0.15593608157E+03  0.00000000000E+00 0.  1.
          6    2    1    2  501    0  0.50326975500E+02 -0.70416248011E+02  0.64859293389E+02  0.20357889908E+03  0.17247141144E+03 0.  0.
         24    2    3    3    0    0  0.24772918384E+01 -0.94165161700E+02  0.75234425225E+02  0.14895897150E+03  0.87494810127E+02 0.  0.
         -6    2    1    2    0  502 -0.50326975500E+02  0.70416248011E+02  0.20502787172E+02  0.19365534462E+03  0.17201969588E+03 0.  0.
        -24    2    5    5    0    0  0.18380080402E+02 -0.13481672500E+02  0.11473195387E+02  0.84737283100E+02  0.80803403925E+02 0.  0.
          5    1    3    3  501    0  0.47849683662E+02  0.23748913689E+02 -0.10375131836E+02  0.54619927577E+02  0.47000000000E+01 0. -1.
        -11    1    4    4    0    0  0.34650278531E+02 -0.73755507599E+02  0.23692857549E+02  0.84863821516E+02  0.00000000000E+00 0.  1.
         12    1    4    4    0    0 -0.32172986692E+02 -0.20409654101E+02  0.51541567675E+02  0.64095149986E+02  0.00000000000E+00 0. -1.
         -5    1    5    5    0  502 -0.68707055902E+02  0.83897920511E+02  0.90295917856E+01  0.10891806152E+03  0.47000000000E+01 0.  1.
         11    1    6    6    0    0 -0.15763989715E+02 -0.15855323023E+02  0.36175803682E+02  0.42527443045E+02  0.00000000000E+00 0. -1.
        -12    1    6    6    0    0  0.34144070117E+02  0.23736505233E+01 -0.24702608295E+02  0.42209840056E+02  0.00000000000E+00 0.  1.
</event>
<event>
12    1  0.8493057E-002  0.2254133E+03  0.7818608E-02  0.1129934E+00
         21   -1    0    0  503  502  0.00000000000E+00  0.00000000000E+00  0.21284116618E+03  0.21284116618E+03  0.00000000000E+00 0.  1.
         21   -1    0    0  501  503 -0.00000000000E+00 -0.00000000000E+00 -0.94325432431E+03  0.94325432431E+03  0.00000000000E+00 0. -1.
          6    2    1    2  501    0 -0.87871829610E+02 -0.11605403438E+03 -0.86480100760E+03  0.89366213211E+03  0.17193378457E+03 0.  0.
         24    2    3    3    0    0 -0.59395623165E+02 -0.10538506328E+03 -0.84430415532E+03  0.85669008549E+03  0.80215611146E+02 0.  0.
         -6    2    1    2    0  502  0.87871829610E+02  0.11605403438E+03  0.13438784947E+03  0.26243335838E+03  0.17210803634E+03 0.  0.
        -24    2    5    5    0    0  0.33966269620E+02  0.14331627791E+03  0.86072737730E+02  0.18493833053E+03  0.71417133324E+02 0.  0.
          5    1    3    3  501    0 -0.28476206445E+02 -0.10668971094E+02 -0.20496852288E+02  0.36972046622E+02  0.47000000000E+01 0. -1.
        -13    1    4    4    0    0 -0.30414620376E+02 -0.40161125154E+01 -0.34584334072E+03  0.34720137472E+03  0.00000000000E+00 0.  1.
         14    1    4    4    0    0 -0.28981002789E+02 -0.10136895077E+03 -0.49846081460E+03  0.50948871076E+03  0.00000000000E+00 0. -1.
         -5    1    5    5    0  502  0.53905559990E+02 -0.27262243530E+02  0.48315111735E+02  0.77495027854E+02  0.47000000000E+01 0.  1.
         11    1    6    6    0    0 -0.67934465283E+01 -0.52514258047E+01  0.98131118116E+01  0.13039384654E+02  0.00000000000E+00 0. -1.
        -12    1    6    6    0    0  0.40759716148E+02  0.14856770371E+03  0.76259625919E+02  0.17189894587E+03  0.00000000000E+00 0.  1.
</event>
<event>
12    1  0.8493057E-002  0.1767407E+03  0.7818608E-02  0.1171312E+00
         21   -1    0    0  501  502  0.00000000000E+00  0.00000000000E+00  0.67118060420E+03  0.67118060420E+03  0.00000000000E+00 0.  1.
         21   -1    0    0  502  503 -0.00000000000E+00 -0.00000000000E+00 -0.65340160932E+03  0.65340160932E+03  0.00000000000E+00 0.  1.
         -6    2    1    2    0  503  0.15347425660E+02 -0.38663234706E+02 -0.62955218746E+03  0.65389083971E+03  0.17177568025E+03 0.  0.
        -24    2    3    3    0    0 -0.28456827338E+02  0.31400973499E+02 -0.27701961560E+03  0.29177330344E+03  0.81215645121E+02 0.  0.
          6    2    1    2  501    0 -0.15347425660E+02  0.38663234706E+02  0.64733118234E+03  0.67069137382E+03  0.17046662454E+03 0.  0.
         24    2    5    5    0    0 -0.60541551846E+02 -0.17877857588E+02  0.31559770278E+03  0.33112018007E+03  0.77805953220E+02 0.  0.
          5    1    5    5  501    0  0.45194126187E+02  0.56541092294E+02  0.33173347956E+03  0.33957119375E+03  0.47000000000E+01 0. -1.
        -13    1    6    6    0    0 -0.30877760266E+02  0.17000384211E+02  0.24120039803E+03  0.24376234564E+03  0.00000000000E+00 0.  1.
         14    1    6    6    0    0 -0.29663791581E+02 -0.34878241799E+02  0.74397304755E+02  0.87357834433E+02  0.00000000000E+00 0. -1.
         -5    1    3    3    0  503  0.43804252997E+02 -0.70064208205E+02 -0.35253257186E+03  0.36211753627E+03  0.47000000000E+01 0.  1.
         13    1    4    4    0    0 -0.12860594018E+02  0.45407224781E+02 -0.74621645456E+02  0.88292700216E+02  0.00000000000E+00 0. -1.
        -14    1    4    4    0    0 -0.15596233320E+02 -0.14006251282E+02 -0.20239797014E+03  0.20348060322E+03  0.00000000000E+00 0.  1.
</event>
<event>
12    1  0.8493057E-002  0.2988898E+03  0.7818608E-02  0.1085809E+00
         21   -1    0    0  501  502  0.00000000000E+00  0.00000000000E+00  0.57433247642E+02  0.57433247642E+02  0.00000000000E+00 0. -1.
         21   -1    0    0  502  503 -0.00000000000E+00 -0.00000000000E+00 -0.16064304929E+04  0.16064304929E+04  0.00000000000E+00 0.  1.
         -6    2    1    2    0  503 -0.16361295618E+03 -0.18205018393E+03 -0.62572338634E+03  0.69344422795E+03  0.17153329757E+03 0.  0.
        -24    2    3    3    0    0 -0.48831065597E+02 -0.14462306023E+03 -0.41392766922E+03  0.44960988299E+03  0.86675423390E+02 0.  0.
          6    2    1    2  501    0  0.16361295618E+03  0.18205018393E+03 -0.92327385892E+03  0.97041951259E+03  0.17137077622E+03 0.  0.
         24    2    5    5    0    0  0.16968572579E+03  0.14202699113E+03 -0.88084464407E+03  0.91158871482E+03  0.78369549276E+02 0.  0.
          5    1    5    5  501    0 -0.60727696115E+01  0.40023192805E+02 -0.42429214852E+02  0.58830797768E+02  0.47000000000E+01 0. -1.
        -13    1    6    6    0    0  0.20102967629E+02  0.58211698993E+02 -0.18739686096E+03  0.19725697631E+03  0.00000000000E+00 0.  1.
         14    1    6    6    0    0  0.14958275816E+03  0.83815292132E+02 -0.69344778311E+03  0.71433173851E+03  0.00000000000E+00 0. -1.
         -5    1    3    3    0  503 -0.11478189058E+03 -0.37427123696E+02 -0.21179571711E+03  0.24383434496E+03  0.47000000000E+01 0.  1.
         11    1    4    4    0    0 -0.35202048016E+02 -0.12751951466E+02 -0.14534163958E+03  0.15008660382E+03  0.00000000000E+00 0. -1.
        -12    1    4    4    0    0 -0.13629017582E+02 -0.13187110877E+03 -0.26858602964E+03  0.29952327917E+03  0.00000000000E+00 0.  1.
</event>
<event>
12    1  0.8493057E-002  0.2127277E+03  0.7818608E-02  0.1141551E+00
         21   -1    0    0  503  502  0.00000000000E+00  0.00000000000E+00  0.36665363806E+03  0.36665363806E+03  0.00000000000E+00 0.  1.
         21   -1    0    0  501  503 -0.00000000000E+00 -0.00000000000E+00 -0.13615607209E+03  0.13615607209E+03  0.00000000000E+00 0.  1.
          6    2    1    2  501    0  0.74790218831E+00  0.10685170716E+03  0.20615912006E+03  0.28869428689E+03  0.17153705669E+03 0.  0.
         24    2    3    3    0    0  0.52644760756E+02  0.10344936215E+03  0.11455903315E+03  0.18325460838E+03  0.83577736592E+02 0.  0.
         -6    2    1    2    0  502 -0.74790218831E+00 -0.10685170716E+03  0.24338445902E+02  0.21411542326E+03  0.18394349091E+03 0.  0.
        -24    2    5    5    0    0 -0.65368793340E+02 -0.54213301889E+02  0.49587340721E+02  0.12690155985E+03  0.80205612565E+02 0.  0.
          5    1    3    3  501    0 -0.51896858568E+02  0.34023450082E+01  0.91600086916E+02  0.10543967851E+03  0.47000000000E+01 0. -1.
        -13    1    4    4    0    0  0.13336268849E+02  0.91966753007E+02  0.10680888988E+03  0.14157640581E+03  0.00000000000E+00 0.  1.
         14    1    4    4    0    0  0.39308491908E+02  0.11482609143E+02  0.77501432651E+01  0.41678202569E+02  0.00000000000E+00 0. -1.
         -5    1    5    5    0  502  0.64620891152E+02 -0.52638405270E+02 -0.25248894819E+02  0.87213863417E+02  0.47000000000E+01 0.  1.
         11    1    6    6    0    0 -0.19911213976E+02  0.19676023497E+02  0.22725429513E+01  0.28084992329E+02  0.00000000000E+00 0. -1.
        -12    1    6    6    0    0 -0.45457579365E+02 -0.73889325386E+02  0.47314797770E+02  0.98816567517E+02  0.00000000000E+00 0.  1.
</event>
<event>
12    1  0.8493057E-002  0.5414070E+03  0.7818608E-02  0.1003542E+00
         21   -1    0    0  501  502  0.00000000000E+00  0.00000000000E+00  0.43554101359E+03  0.43554101359E+03  0.00000000000E+00 0.  1.
         21   -1    0    0  502  503 -0.00000000000E+00 -0.00000000000E+00 -0.14966375261E+04  0.14966375261E+04  0.00000000000E+00 0. -1.
         -6    2    1    2    0  503  0.94086254369E+02  0.50416105982E+03 -0.12474435153E+04  0.13595994785E+04  0.17136166587E+03 0.  0.
        -24    2    3    3    0    0  0.60229352407E+02  0.47235993076E+03 -0.11978048918E+04  0.12914548927E+04  0.79797883297E+02 0.  0.
          6    2    1    2  501    0 -0.94086254369E+02 -0.50416105982E+03  0.18634700285E+03  0.57257906114E+03  0.17346751363E+03 0.  0.
         24    2    5    5    0    0 -0.13276156137E+03 -0.39830631508E+03  0.16369656573E+03  0.45753064239E+03  0.79146511509E+02 0.  0.
          5    1    5    5  501    0  0.38675307000E+02 -0.10585474474E+03  0.22650437117E+02  0.11504841875E+03  0.47000000000E+01 0. -1.
        -11    1    6    6    0    0 -0.54936444216E+01 -0.12245923535E+03  0.60428873890E+02  0.13666782083E+03  0.00000000000E+00 0.  1.
         12    1    6    6    0    0 -0.12726791695E+03 -0.27584707974E+03  0.10326769184E+03  0.32086282156E+03  0.00000000000E+00 0. -1.
         -5    1    3    3    0  503  0.33856901963E+02  0.31801129060E+02 -0.49638623567E+02  0.68144585769E+02  0.47000000000E+01 0.  1.
         11    1    4    4    0    0  0.74545281732E+01  0.53696936755E+02 -0.21812115404E+03  0.22475713303E+03  0.00000000000E+00 0. -1.
        -12    1    4    4    0    0  0.52774824234E+02  0.41866299400E+03 -0.97968373773E+03  0.10666977597E+04  0.00000000000E+00 0.  1.
</event>
<event>
12    1  0.8493057E-002  0.2543101E+03  0.7818608E-02  0.1110688E+00
         21   -1    0    0  501  502  0.00000000000E+00  0.00000000000E+00  0.75374694317E+03  0.75374694317E+03  0.00000000000E+00 0.  1.
         21   -1    0    0  502  503 -0.00000000000E+00 -0.00000000000E+00 -0.21380904273E+03  0.21380904273E+03  0.00000000000E+00 0.  1.
         -6    2    1    2    0  503  0.38558405615E+02  0.18263686347E+03 -0.10470693322E+03  0.27456206485E+03  0.17198200792E+03 0.  0.
        -24    2    3    3    0    0  0.58589062979E+02  0.19538095268E+03 -0.11540470827E+03  0.24810131212E+03  0.81422474861E+02 0.  0.
          6    2    1    2  501    0 -0.38558405615E+02 -0.18263686347E+03  0.64464483366E+03  0.69299392104E+03  0.17271548424E+03 0.  0.
         24    2    5    5    0    0 -0.53378964406E+02 -0.20230606169E+03  0.61429626714E+03  0.65362830393E+03  0.78057667352E+02 0.  0.
          5    1    5    5  501    0  0.14820558791E+02  0.19669198214E+02  0.30348566521E+02  0.39365617119E+02  0.47000000000E+01 0. -1.
        -13    1    6    6    0    0 -0.58971177112E+01 -0.15406695233E+03  0.39106712694E+03  0.42036281897E+03  0.00000000000E+00 0.  1.
         14    1    6    6    0    0 -0.47481846695E+02 -0.48239109352E+02  0.22322914020E+03  0.23326548496E+03  0.00000000000E+00 0. -1.
         -5    1    3    3    0  503 -0.20030657364E+02 -0.12744089210E+02  0.10697775047E+02  0.26460752733E+02  0.47000000000E+01 0.  1.
         11    1    4    4    0    0 -0.15678258885E+02  0.15319334724E+02 -0.25353656579E+02  0.33515633963E+02  0.00000000000E+00 0. -1.
        -12    1    4    4    0    0  0.74267321865E+02  0.18006161796E+03 -0.90051051689E+02  0.21458567816E+03  0.00000000000E+00 0.  1.
</event>
<event>
12    1  0.8493057E-002  0.1751405E+03  0.7818608E-02  0.1173396E+00
         21   -1    0    0  503  502  0.00000000000E+00  0.00000000000E+00  0.13147272384E+03  0.13147272384E+03  0.00000000000E+00 0.  1.
         21   -1    0    0  501  503 -0.00000000000E+00 -0.00000000000E+00 -0.22928973476E+03  0.22928973476E+03  0.00000000000E+00 0.  1.
          6    2    1    2  501    0 -0.20757374338E+02 -0.32730502975E+02 -0.43188144554E+02  0.17729993511E+03  0.16753476279E+03 0.  0.
         24    2    3    3    0    0 -0.40333297438E+02 -0.62955042186E+02  0.13492532662E+02  0.10998330488E+03  0.79524629489E+02 0.  0.
         -6    2    1    2    0  502  0.20757374338E+02  0.32730502975E+02 -0.54628866366E+02  0.18346252350E+03  0.17079821449E+03 0.  0.
        -24    2    5    5    0    0 -0.98276669980E+00  0.65128201567E+02 -0.85591445524E+02  0.13343237344E+03  0.78966158995E+02 0.  0.
          5    1    3    3  501    0  0.19575923100E+02  0.30224539211E+02 -0.56680677216E+02  0.67316630229E+02  0.47000000000E+01 0. -1.
        -11    1    4    4    0    0 -0.42240652330E+02 -0.56946835943E+01 -0.16023260747E+02  0.45535118485E+02  0.00000000000E+00 0.  1.
         12    1    4    4    0    0  0.19073548914E+01 -0.57260358592E+02  0.29515793409E+02  0.64448186393E+02  0.00000000000E+00 0. -1.
         -5    1    5    5    0  502  0.21740141038E+02 -0.32397698592E+02  0.30962579158E+02  0.50030150055E+02  0.47000000000E+01 0.  1.
         13    1    6    6    0    0 -0.37971357648E+02  0.46515609751E+02 -0.59246604705E+02  0.84354526383E+02  0.00000000000E+00 0. -1.
        -14    1    6    6    0    0  0.36988590948E+02  0.18612591816E+02 -0.26344840819E+02  0.49077847062E+02  0.00000000000E+00 0.  1.
</event>
<event>
12    1  0.8493057E-002  0.1760813E+03  0.7818608E-02  0.1172485E+00
         21   -1    0    0  501  502  0.00000000000E+00  0.00000000000E+00  0.13265663371E+03  0.13265663371E+03  0.00000000000E+00 0. -1.
         21   -1    0    0  502  503 -0.00000000000E+00 -0.00000000000E+00 -0.33806572916E+03  0.33806572916E+03  0.00000000000E+00 0. -1.
         -6    2    1    2    0  503  0.33701813873E+01 -0.31336403367E+02 -0.23551326594E+03  0.29208615940E+03  0.16986611722E+03 0.  0.
        -24    2    3    3    0    0  0.57495032141E+02 -0.55351430069E+02 -0.14257588403E+03  0.18178807268E+03  0.79684133501E+02 0.  0.
          6    2    1    2  501    0 -0.33701813873E+01  0.31336403367E+02  0.30104170499E+02  0.17863620347E+03  0.17323770897E+03 0.  0.
         24    2    5    5    0    0  0.35794230626E+02  0.61011418713E+02 -0.20350313634E+02  0.10805148364E+03  0.79103525161E+02 0.  0.
          5    1    5    5  501    0 -0.39164412013E+02 -0.29675015347E+02  0.50454484133E+02  0.70584719828E+02  0.47000000000E+01 0. -1.
        -13    1    6    6    0    0 -0.23970406796E+00  0.51341363760E+02 -0.40733280839E+02  0.65537723936E+02  0.00000000000E+00 0.  1.
         14    1    6    6    0    0  0.36033934694E+02  0.96700549532E+01  0.20382967206E+02  0.42513759707E+02  0.00000000000E+00 0. -1.
         -5    1    3    3    0  503 -0.54124850754E+02  0.24015026702E+02 -0.92937381915E+02  0.11029808672E+03  0.47000000000E+01 0.  1.
         13    1    4    4    0    0  0.11470850041E+02 -0.45609219954E+02 -0.21147964686E+02  0.51565664505E+02  0.00000000000E+00 0. -1.
        -14    1    4    4    0    0  0.46024182100E+02 -0.97422101142E+01 -0.12142791934E+03  0.13022240818E+03  0.00000000000E+00 0.  1.
</event>
<event>
12    1  0.8493057E-002  0.1739571E+03  0.7818608E-02  0.1173938E+00
         21   -1    0    0  503  502  0.00000000000E+00  0.00000000000E+00  0.71903918156E+03  0.71903918156E+03  0.00000000000E+00 0. -1.
         21   -1    0    0  501  503 -0.00000000000E+00 -0.00000000000E+00 -0.42194153104E+02  0.42194153104E+02  0.00000000000E+00 0. -1.
          6    2    1    2  501    0 -0.14532590402E+02 -0.24060521883E+02  0.30932266137E+03  0.35488248722E+03  0.17167109832E+03 0.  0.
         24    2    3    3    0    0  0.52822725590E+02 -0.57758377012E+01  0.11952954160E+03  0.15260894327E+03  0.78603928725E+02 0.  0.
         -6    2    1    2    0  502  0.14532590402E+02  0.24060521883E+02  0.36752236708E+03  0.40635084745E+03  0.17105033183E+03 0.  0.
        -24    2    5    5    0    0 -0.34780887834E+02 -0.36110837533E+02  0.22197978839E+03  0.24125347060E+03  0.80090622898E+02 0.  0.
          5    1    3    3  501    0 -0.67355315992E+02 -0.18284684182E+02  0.18979311977E+03  0.20227354395E+03  0.47000000000E+01 0. -1.
        -13    1    4    4    0    0  0.50669667999E+02 -0.22467609815E+02  0.12345530367E+03  0.13532708801E+03  0.00000000000E+00 0.  1.
         14    1    4    4    0    0  0.21530575906E+01  0.16691772114E+02 -0.39257620693E+01  0.17281855257E+02  0.00000000000E+00 0. -1.
         -5    1    5    5    0  502  0.49313478236E+02  0.60171359416E+02  0.14554257869E+03  0.16509737685E+03  0.47000000000E+01 0.  1.
         13    1    6    6    0    0  0.21946811435E+02  0.71773794292E+01  0.51263553561E+02  0.56223920455E+02  0.00000000000E+00 0. -1.
        -14    1    6    6    0    0 -0.56727699269E+02 -0.43288216962E+02  0.17071623483E+03  0.18502955014E+03  0.00000000000E+00 0.  1.
</event>
<event>
12    1  0.8493057E-002  0.2121887E+03  0.7818608E-02  0.1140014E+00
         21   -1    0    0  501  502  0.00000000000E+00  0.00000000000E+00  0.35893454914E+03  0.35893454914E+03  0.00000000000E+00 0. -1.
         21   -1    0    0  502  503 -0.00000000000E+00 -0.00000000000E+00 -0.12501221852E+03  0.12501221852E+03  0.00000000000E+00 0. -1.
         -6    2    1    2    0  503  0.12326647363E+03 -0.30592678021E+01  0.11086295495E+03  0.23940473534E+03  0.17268482819E+03 0.  0.
        -24    2    3    3    0    0  0.12316448351E+03  0.46778145875E+02  0.92235032095E+02  0.18599249224E+03  0.93424948988E+02 0.  0.
          6    2    1    2  501    0 -0.12326647363E+03  0.30592678021E+01  0.12305937567E+03  0.24454203232E+03  0.17161938408E+03 0.  0.
         24    2    5    5    0    0 -0.56358022515E+02 -0.61864012887E+02  0.48072834675E+02  0.12480546925E+03  0.79132957282E+02 0.  0.
          5    1    5    5  501    0 -0.66908451115E+02  0.64923280690E+02  0.74986540999E+02  0.11973656308E+03  0.47000000000E+01 0. -1.
        -13    1    6    6    0    0  0.19254627552E+02 -0.70624468785E+01  0.18046283680E+01  0.20588237458E+02  0.00000000000E+00 0.  1.
         14    1    6    6    0    0 -0.75612650067E+02 -0.54801566009E+02  0.46268206307E+02  0.10421723179E+03  0.00000000000E+00 0. -1.
         -5    1    3    3    0  503  0.10199012152E+00 -0.49837413678E+02  0.18627922850E+02  0.53412243107E+02  0.47000000000E+01 0.  1.
         11    1    4    4    0    0  0.66969790319E+02 -0.47486004967E+01  0.86552179603E+02  0.10953895114E+03  0.00000000000E+00 0. -1.
        -12    1    4    4    0    0  0.56194693190E+02  0.51526746372E+02  0.56828524924E+01  0.76453541101E+02  0.00000000000E+00 0.  1.
</event>
<event>
12    1  0.8493057E-002  0.1982337E+03  0.7818608E-02  0.1151604E+00
         21   -1    0    0  501  502  0.00000000000E+00  0.00000000000E+00  0.53666458005E+02  0.53666458005E+02  0.00000000000E+00 0.  1.
         21   -1    0    0  502  503 -0.00000000000E+00 -0.00000000000E+00 -0.74216045034E+03  0.74216045034E+03  0.00000000000E+00 0. -1.
         -6    2    1    2    0  503  0.96282397284E+02 -0.42745955391E+01 -0.40161539737E+03  0.44712080484E+03  0.17127029668E+03 0.  0.
        -24    2    3    3    0    0  0.11965846447E+03  0.28610107085E+02 -0.36090589889E+03  0.38961256673E+03  0.80051220812E+02 0.  0.
          6    2    1    2  501    0 -0.96282397284E+02  0.42745955391E+01 -0.28687859496E+03  0.34870610350E+03  0.17322830652E+03 0.  0.
         24    2    5    5    0    0 -0.12180169430E+03 -0.21659032477E+02 -0.27121194189E+03  0.30881473099E+03  0.80658875697E+02 0.  0.
          5    1    5    5  501    0  0.25519297019E+02  0.25933628016E+02 -0.15666653069E+02  0.39891372511E+02  0.47000000000E+01 0. -1.
        -13    1    6    6    0    0 -0.84230086956E+02  0.62897048426E+01 -0.97960342707E+02  0.12934642121E+03  0.00000000000E+00 0.  1.
         14    1    6    6    0    0 -0.37571607347E+02 -0.27948737320E+02 -0.17325159918E+03  0.17946830978E+03  0.00000000000E+00 0. -1.
         -5    1    3    3    0  503 -0.23376067190E+02 -0.32884702624E+02 -0.40709498479E+02  0.57508238109E+02  0.47000000000E+01 0.  1.
         11    1    4    4    0    0  0.34506704404E+02 -0.13107865197E+02 -0.19550649637E+03  0.19896059636E+03  0.00000000000E+00 0. -1.
        -12    1    4    4    0    0  0.85151760070E+02  0.41717972283E+02 -0.16539940252E+03  0.19065197037E+03  0.00000000000E+00 0.  1.
</event>
<event>
12    1  0.8493057E-002  0.1833219E+03  0.7818608E-02  0.1165684E+00
         21   -1    0    0  503  502  0.00000000000E+00  0.00000000000E+00  0.81386812359E+02  0.81386812359E+02  0.00000000000E+00 0. -1.
         21   -1    0    0  501  503 -0.00000000000E+00 -0.00000000000E+00 -0.40322771706E+03  0.40322771706E+03  0.00000000000E+00 0. -1.
          6    2    1    2  501    0 -0.37437048706E+02  0.51577083014E+02 -0.15361192066E+03  0.23580149560E+03  0.16716457474E+03 0.  0.
         24    2    3    3    0    0  0.17057168648E+02  0.40467243139E+02 -0.23147564775E+02  0.93899816873E+02  0.79704586343E+02 0.  0.
         -6    2    1    2    0  502  0.37437048706E+02 -0.51577083014E+02 -0.16822898403E+03  0.24881303382E+03  0.17188719156E+03 0.  0.
        -24    2    5    5    0    0  0.45389471384E+02 -0.79648885495E+02 -0.18082498677E+03  0.21668802166E+03  0.76497541240E+02 0.  0.
          5    1    3    3  501    0 -0.54494217354E+02  0.11109839874E+02 -0.13046435589E+03  0.14190167872E+03  0.47000000000E+01 0. -1.
        -11    1    4    4    0    0  0.16839558390E+02 -0.10982972691E+02  0.18793240063E+02  0.27520579353E+02  0.00000000000E+00 0.  1.
         12    1    4    4    0    0  0.21761025879E+00  0.51450215831E+02 -0.41940804838E+02  0.66379237519E+02  0.00000000000E+00 0. -1.
         -5    1    5    5    0  502 -0.79524226785E+01  0.28071802481E+02  0.12596002743E+02  0.32125012157E+02  0.47000000000E+01 0.  1.
         11    1    6    6    0    0  0.59027255371E+02 -0.82508518754E+02 -0.13549955028E+03  0.16926901864E+03  0.00000000000E+00 0. -1.
        -12    1    6    6    0    0 -0.13637783987E+02  0.28596332594E+01 -0.45325436494E+02  0.47419003025E+02  0.00000000000E+00 0.  1.
</event>
<event>
12    1  0.8493057E-002  0.1857792E+03  0.7818608E-02  0.1162399E+00
         21   -1    0    0  503  502  0.00000000000E+00  0.00000000000E+00  0.86440155489E+02  0.86440155489E+02  0.00000000000E+00 0. -1.
         21   -1    0    0  501  503 -0.00000000000E+00 -0.00000000000E+00 -0.56239040227E+03  0.56239040227E+03  0.00000000000E+00 0. -1.
          6    2    1    2  501    0 -0.68543165996E+02  0.17116318938E+02 -0.41290890136E+03  0.45264669073E+03  0.17147633025E+03 0.  0.
         24    2    3    3    0    0  0.27844453780E+02  0.43728503075E+01 -0.16466737963E+03  0.18600289773E+03  0.81775892681E+02 0.  0.
         -6    2    1    2    0  502  0.68543165996E+02 -0.17116318938E+02 -0.63041345424E+02  0.19618386702E+03  0.17182189752E+03 0.  0.
        -24    2    5    5    0    0  0.11397241884E+03 -0.11521650220E+02 -0.47367191871E+02  0.14757433687E+03  0.80075422924E+02 0.  0.
          5    1    3    3  501    0 -0.96387619775E+02  0.12743468631E+02 -0.24824152173E+03  0.26664379301E+03  0.47000000000E+01 0. -1.
        -11    1    4    4    0    0  0.48751076633E+02  0.25329612199E+01 -0.51711193283E+02  0.71113506989E+02  0.00000000000E+00 0.  1.
         12    1    4    4    0    0 -0.20906622854E+02  0.18398890876E+01 -0.11295618634E+03  0.11488939074E+03  0.00000000000E+00 0. -1.
         -5    1    5    5    0  502 -0.45429252846E+02 -0.55946687183E+01 -0.15674153553E+02  0.48609530154E+02  0.47000000000E+01 0.  1.
         13    1    6    6    0    0  0.54577727670E+02 -0.30507285307E+02 -0.56844674481E+02  0.84502898360E+02  0.00000000000E+00 0. -1.
        -14    1    6    6    0    0  0.59394691172E+02  0.18985635087E+02  0.94774826101E+01  0.63071438510E+02  0.00000000000E+00 0.  1.
</event>
<event>
12    1  0.8493057E-002  0.2177412E+03  0.7818608E-02  0.1136042E+00
         21   -1    0    0  501  502  0.00000000000E+00  0.00000000000E+00  0.29850959890E+02  0.29850959890E+02  0.00000000000E+00 0.  1.
         21   -1    0    0  502  503 -0.00000000000E+00 -0.00000000000E+00 -0.15796400431E+04  0.15796400431E+04  0.00000000000E+00 0. -1.
         -6    2    1    2    0  503  0.88975171287E+02  0.94020072582E+02 -0.71810837660E+03  0.75039382356E+03  0.17508539269E+03 0.  0.
        -24    2    3    3    0    0  0.48230730275E+02  0.58677658106E+02 -0.66586436986E+03  0.67515605395E+03  0.81798944005E+02 0.  0.
          6    2    1    2  501    0 -0.88975171287E+02 -0.94020072582E+02 -0.83168070660E+03  0.85909717942E+03  0.17204304930E+03 0.  0.
         24    2    5    5    0    0 -0.48872084276E+02 -0.56757933995E+01 -0.21279124523E+03  0.23263151823E+03  0.80103770065E+02 0.  0.
          5    1    5    5  501    0 -0.40103087011E+02 -0.88344279182E+02 -0.61888946137E+03  0.62646566119E+03  0.47000000000E+01 0. -1.
        -13    1    6    6    0    0 -0.94068258607E+01 -0.31766996035E+02 -0.15216678980E+03  0.15573169982E+03  0.00000000000E+00 0.  1.
         14    1    6    6    0    0 -0.39465258415E+02  0.26091202636E+02 -0.60624455427E+02  0.76899818417E+02  0.00000000000E+00 0. -1.
         -5    1    3    3    0  503  0.40744441012E+02  0.35342414476E+02 -0.52244006747E+02  0.75237769606E+02  0.47000000000E+01 0.  1.
         13    1    4    4    0    0 -0.19249373328E+02 -0.12564611223E+01 -0.75131628491E+02  0.77568541741E+02  0.00000000000E+00 0. -1.
        -14    1    4    4    0    0  0.67480103603E+02  0.59934119228E+02 -0.59073274136E+03  0.59758751221E+03  0.00000000000E+00 0.  1.
</event>
<event>
12    1  0.8493057E-002  0.1828361E+03  0.7818608E-02  0.1167561E+00
         21   -1    0    0  501  502  0.00000000000E+00  0.00000000000E+00  0.70372527959E+03  0.70372527959E+03  0.00000000000E+00 0.  1.
         21   -1    0    0  502  503 -0.00000000000E+00 -0.00000000000E+00 -0.64390986389E+02  0.64390986389E+02  0.00000000000E+00 0.  1.
         -6    2    1    2    0  503  0.39486645174E+02 -0.46915816918E+02  0.11482082341E+03  0.21590013398E+03  0.17224621140E+03 0.  0.
        -24    2    3    3    0    0 -0.44466055101E+02 -0.29727085654E+02  0.74185755816E+02  0.12094326438E+03  0.79137962799E+02 0.  0.
          6    2    1    2  501    0 -0.39486645174E+02  0.46915816918E+02  0.52451346980E+03  0.55221613200E+03  0.16145583736E+03 0.  0.
         24    2    5    5    0    0  0.35689885505E+02 -0.12109671653E+01  0.35615445363E+03  0.36159990384E+03  0.51315312052E+02 0.  0.
          5    1    5    5  501    0 -0.75176530679E+02  0.48126784083E+02  0.16835901617E+03  0.19061622816E+03  0.47000000000E+01 0. -1.
        -13    1    6    6    0    0  0.29331400860E+02  0.19021792217E+02  0.29071680214E+03  0.29281123391E+03  0.00000000000E+00 0.  1.
         14    1    6    6    0    0  0.63584846450E+01 -0.20232759383E+02  0.65437651484E+02  0.68788669931E+02  0.00000000000E+00 0. -1.
         -5    1    3    3    0  503  0.83952700275E+02 -0.17188731264E+02  0.40635067591E+02  0.94956869599E+02  0.47000000000E+01 0.  1.
         13    1    4    4    0    0 -0.28337744200E+02 -0.84982105641E+01  0.86614679982E+02  0.91527865252E+02  0.00000000000E+00 0. -1.
        -14    1    4    4    0    0 -0.16128310901E+02 -0.21228875090E+02 -0.12428924167E+02  0.29415399131E+02  0.00000000000E+00 0.  1.
</event>
<event>
12    1  0.8493057E-002  0.2174105E+03  0.7818608E-02  0.1136069E+00
         21   -1    0    0  503  502  0.00000000000E+00  0.00000000000E+00  0.13824419669E+03  0.13824419669E+03  0.00000000000E+00 0.  1.
         21   -1    0    0  501  503 -0.00000000000E+00 -0.00000000000E+00 -0.54882946596E+03  0.54882946596E+03  0.00000000000E+00 0.  1.
          6    2    1    2  501    0 -0.11690716707E+03 -0.54866255817E+02 -0.41761517007E+03  0.47081815995E+03  0.17489916446E+03 0.  0.
         24    2    3    3    0    0 -0.19193150812E+02 -0.15280837344E+02 -0.74349510172E+02  0.11169640122E+03  0.79664015436E+02 0.  0.
         -6    2    1    2    0  502  0.11690716707E+03  0.54866255817E+02  0.70299008002E+01  0.21625550270E+03  0.17331887146E+03 0.  0.
        -24    2    5    5    0    0 -0.61700167795E+01 -0.10509999819E+00  0.31941363900E+02  0.79096783921E+02  0.72096951016E+02 0.  0.
          5    1    3    3  501    0 -0.97714016259E+02 -0.39585418474E+02 -0.34326565990E+03  0.35912175873E+03  0.47000000000E+01 0. -1.
        -11    1    4    4    0    0 -0.46662778046E+02 -0.68945731083E+01 -0.22136928398E+02  0.52105600392E+02  0.00000000000E+00 0.  1.
         12    1    4    4    0    0  0.27469627234E+02 -0.83862642352E+01 -0.52212581774E+02  0.59590800831E+02  0.00000000000E+00 0. -1.
         -5    1    5    5    0  502  0.12307718385E+03  0.54971355815E+02 -0.24911463100E+02  0.13715871878E+03  0.47000000000E+01 0.  1.
         11    1    6    6    0    0 -0.26227623842E+02  0.34740541510E+01 -0.13202645653E+02  0.29568009011E+02  0.00000000000E+00 0. -1.
        -12    1    6    6    0    0  0.20057607063E+02 -0.35791541492E+01  0.45144009553E+02  0.49528774909E+02  0.00000000000E+00 0.  1.
</event>
<event>
12    1  0.8493057E-002  0.2305401E+03  0.7818608E-02  0.1126467E+00
         21   -1    0    0  501  502  0.00000000000E+00  0.00000000000E+00  0.65975075306E+03  0.65975075306E+03  0.00000000000E+00 0.  1.
         21   -1    0    0  502  503 -0.00000000000E+00 -0.00000000000E+00 -0.11153740543E+03  0.11153740543E+03  0.00000000000E+00 0.  1.
         -6    2    1    2    0  503  0.61743807967E+02 -0.14039718164E+03  0.69023591564E+02  0.23952545768E+03  0.17054184897E+03 0.  0.
        -24    2    3    3    0    0  0.60945617130E+02 -0.91812610347E+02 -0.21398356859E+02  0.13676692308E+03  0.78124118596E+02 0.  0.
          6    2    1    2  501    0 -0.61743807967E+02  0.14039718164E+03  0.47918975607E+03  0.53176270081E+03  0.17211938069E+03 0.  0.
         24    2    5    5    0    0 -0.17631236096E+02  0.15750766822E+03  0.42384238914E+03  0.45879621004E+03  0.75710405387E+02 0.  0.
          5    1    5    5  501    0 -0.44112571871E+02 -0.17110486577E+02  0.55347366933E+02  0.72966490764E+02  0.47000000000E+01 0. -1.
        -13    1    6    6    0    0 -0.47184508099E+02  0.10370066340E+03  0.26185243566E+03  0.28556418447E+03  0.00000000000E+00 0.  1.
         14    1    6    6    0    0  0.29553272003E+02  0.53807004819E+02  0.16198995348E+03  0.17323202557E+03  0.00000000000E+00 0. -1.
         -5    1    3    3    0  503  0.79819083777E+00 -0.48584571296E+02  0.90421948424E+02  0.10275853460E+03  0.47000000000E+01 0.  1.
         13    1    4    4    0    0  0.22568948471E+02  0.38510011562E+01  0.15094640671E+02  0.27423271541E+02  0.00000000000E+00 0. -1.
        -14    1    4    4    0    0  0.38376668658E+02 -0.95663611503E+02 -0.36492997530E+02  0.10934365154E+03  0.00000000000E+00 0.  1.
</event>
<event>
12    1  0.8493057E-002  0.5032958E+03  0.7818608E-02  0.1012941E+00
         21   -1    0    0  501  502  0.00000000000E+00  0.00000000000E+00  0.72935727565E+03  0.72935727565E+03  0.00000000000E+00 0.  1.
         21   -1    0    0  502  503 -0.00000000000E+00 -0.00000000000E+00 -0.92061840137E+03  0.92061840137E+03  0.00000000000E+00 0. -1.
         -6    2    1    2    0  503 -0.47233792710E+03  0.31670069503E+02 -0.74677151027E+03  0.90037683836E+03  0.17001368128E+03 0.  0.
        -24    2    3    3    0    0 -0.32546811145E+03  0.77461187973E+02 -0.45325245234E+03  0.56895098444E+03  0.79609735123E+02 0.  0.
          6    2    1    2  501    0  0.47233792710E+03 -0.31670069503E+02  0.55551038455E+03  0.74959883867E+03  0.17088159910E+03 0.  0.
         24    2    5    5    0    0  0.30516890772E+03  0.16145709981E+00  0.45076362622E+03  0.54971712238E+03  0.76635367847E+02 0.  0.
          5    1    5    5  501    0  0.16716901938E+03 -0.31831526603E+02  0.10474675832E+03  0.19988171629E+03  0.47000000000E+01 0. -1.
        -13    1    6    6    0    0  0.23074144827E+03 -0.33096256705E+02  0.33675968378E+03  0.40956570020E+03  0.00000000000E+00 0.  1.
         14    1    6    6    0    0  0.74427459455E+02  0.33257713805E+02  0.11400394244E+03  0.14015142219E+03  0.00000000000E+00 0. -1.
         -5    1    3    3    0  503 -0.14686981565E+03 -0.45791118470E+02 -0.29351905793E+03  0.33142585392E+03  0.47000000000E+01 0.  1.
         13    1    4    4    0    0 -0.14119000504E+03  0.18507522575E+02 -0.25416497628E+03  0.29133654265E+03  0.00000000000E+00 0. -1.
        -14    1    4    4    0    0 -0.18427810641E+03  0.58953665398E+02 -0.19908747606E+03  0.27761444179E+03  0.00000000000E+00 0.  1.
</event>
<event>
12    1  0.8493057E-002  0.2606125E+03  0.7818608E-02  0.1106988E+00
         21   -1    0    0  501  502  0.00000000000E+00  0.00000000000E+00  0.22192879434E+03  0.22192879434E+03  0.00000000000E+00 0. -1.
         21   -1    0    0  502  503 -0.00000000000E+00 -0.00000000000E+00 -0.31132506892E+03  0.31132506892E+03  0.00000000000E+00 0.  1.
         -6    2    1    2    0  503 -0.14644170572E+03 -0.12846899669E+03 -0.50056371800E+01  0.26066056460E+03  0.17311677346E+03 0.  0.
        -24    2    3    3    0    0 -0.12383791991E+03 -0.57299940276E+02 -0.59389203260E+02  0.16816392692E+03  0.78312931810E+02 0.  0.
          6    2    1    2  501    0  0.14644170572E+03  0.12846899669E+03 -0.84390637398E+02  0.27259329866E+03  0.17098500084E+03 0.  0.
         24    2    5    5    0    0  0.20246065109E+02  0.91060142690E+02 -0.15684986436E+02  0.12404257150E+03  0.80241435720E+02 0.  0.
          5    1    5    5  501    0  0.12619564061E+03  0.37408853998E+02 -0.68705650962E+02  0.14855072716E+03  0.47000000000E+01 0. -1.
        -13    1    6    6    0    0  0.61309391118E+01  0.34605206082E+02 -0.46427029743E+02  0.58228668138E+02  0.00000000000E+00 0.  1.
         14    1    6    6    0    0  0.14115125997E+02  0.56454936609E+02  0.30742043307E+02  0.65813903365E+02  0.00000000000E+00 0. -1.
         -5    1    3    3    0  503 -0.22603785803E+02 -0.71169056412E+02  0.54383566080E+02  0.92496637683E+02  0.47000000000E+01 0.  1.
         13    1    4    4    0    0 -0.61535763633E+02 -0.51529512762E+02  0.23046365621E+01  0.80294783399E+02  0.00000000000E+00 0. -1.
        -14    1    4    4    0    0 -0.62302156281E+02 -0.57704275144E+01 -0.61693839822E+02  0.87869143520E+02  0.00000000000E+00 0.  1.
</event>
<event>
12    1  0.8493057E-002  0.2388735E+03  0.7818608E-02  0.1123275E+00
         21   -1    0    0  501  502  0.00000000000E+00  0.00000000000E+00  0.20497010780E+03  0.20497010780E+03  0.00000000000E+00 0.  1.
         21   -1    0    0  502  503 -0.00000000000E+00 -0.00000000000E+00 -0.51186902007E+03  0.51186902007E+03  0.00000000000E+00 0. -1.
         -6    2    1    2    0  503  0.82682678478E+02 -0.13141455289E+03 -0.40725916523E+03  0.47214463616E+03  0.18153324699E+03 0.  0.
        -24    2    3    3    0    0 -0.81740426042E+01 -0.10541935055E+03 -0.16161698769E+03  0.20890925918E+03  0.79642786345E+02 0.  0.
          6    2    1    2  501    0 -0.82682678478E+02  0.13141455289E+03  0.10036025296E+03  0.24469449171E+03  0.16030285047E+03 0.  0.
         24    2    5    5    0    0 -0.32560385443E+00  0.11404582372E+03  0.61321936285E+02  0.15179432669E+03  0.79212258002E+02 0.  0.
          5    1    5    5  501    0 -0.82357074623E+02  0.17368729167E+02  0.39038316674E+02  0.92900165027E+02  0.47000000000E+01 0. -1.
        -11    1    6    6    0    0 -0.36829214742E+02  0.31318300437E+02  0.18794329872E+02  0.51869584884E+02  0.00000000000E+00 0.  1.
         12    1    6    6    0    0  0.36503610887E+02  0.82727523285E+02  0.42527606414E+02  0.99924741801E+02  0.00000000000E+00 0. -1.
         -5    1    3    3    0  503  0.90856721082E+02 -0.25995202335E+02 -0.24564217754E+03  0.26323537698E+03  0.47000000000E+01 0.  1.
         11    1    4    4    0    0 -0.30794528726E+02 -0.27590090602E+02 -0.96352443890E+02  0.10484898446E+03  0.00000000000E+00 0. -1.
        -12    1    4    4    0    0  0.22620486121E+02 -0.77829259951E+02 -0.65264543799E+02  0.10406027472E+03  0.00000000000E+00 0.  1.
</event>
<event>
12    1  0.8493057E-002  0.2010781E+03  0.7818608E-02  0.1148913E+00
         21   -1    0    0  501  502  0.00000000000E+00  0.00000000000E+00  0.42606036383E+03  0.42606036383E+03  0.00000000000E+00 0.  1.
         21   -1    0    0  502  503 -0.00000000000E+00 -0.00000000000E+00 -0.97025755758E+02  0.97025755758E+02  0.00000000000E+00 0.  1.
         -6    2    1    2    0  503  0.10064936988E+03 -0.26768118878E+02  0.12433495968E+03  0.23641405331E+03  0.17200463528E+03 0.  0.
        -24    2    3    3    0    0  0.50198205454E+02  0.41930517369E+02  0.11175757102E+03  0.15012904117E+03  0.75966744062E+02 0.  0.
          6    2    1    2  501    0 -0.10064936988E+03  0.26768118878E+02  0.20469964840E+03  0.28667206628E+03  0.17155786104E+03 0.  0.
         24    2    5    5    0    0 -0.46439935821E+02  0.29816108363E+02  0.21051302877E+03  0.23186478234E+03  0.79999212825E+02 0.  0.
          5    1    5    5  501    0 -0.54209434063E+02 -0.30479894851E+01 -0.58133803712E+01  0.54807283938E+02  0.47000000000E+01 0. -1.
        -11    1    6    6    0    0 -0.42747162623E+02  0.55091276842E+02  0.13177807348E+03  0.14909000418E+03  0.00000000000E+00 0.  1.
         12    1    6    6    0    0 -0.36927731979E+01 -0.25275168479E+02  0.78734955291E+02  0.82774778165E+02  0.00000000000E+00 0. -1.
         -5    1    3    3    0  503  0.50451164430E+02 -0.68698636247E+02  0.12577388653E+02  0.86285012139E+02  0.47000000000E+01 0.  1.
         11    1    4    4    0    0  0.43128960687E+02  0.61342553845E+02  0.65885090455E+02  0.99819142986E+02  0.00000000000E+00 0. -1.
        -12    1    4    4    0    0  0.70692447672E+01 -0.19412036475E+02  0.45872480568E+02  0.50309898182E+02  0.00000000000E+00 0.  1.
</event>
<event>
12    1  0.8493057E-002  0.2072890E+03  0.7818608E-02  0.1143756E+00
         21   -1    0    0  503  502  0.00000000000E+00  0.00000000000E+00  0.64801914946E+02  0.64801914946E+02  0.00000000000E+00 0.  1.
         21   -1    0    0  501  503 -0.00000000000E+00 -0.00000000000E+00 -0.66354815617E+03  0.66354815617E+03  0.00000000000E+00 0. -1.
          6    2    1    2  501    0 -0.10624309727E+03  0.45319105175E+02 -0.31261103144E+03  0.37509252600E+03  0.17212591053E+03 0.  0.
         24    2    3    3    0    0 -0.11013216588E+03  0.25422014512E+02 -0.32327056262E+03  0.35171016777E+03  0.80129973608E+02 0.  0.
         -6    2    1    2    0  502  0.10624309727E+03 -0.45319105175E+02 -0.28613520978E+03  0.35325754511E+03  0.17197708536E+03 0.  0.
        -24    2    5    5    0    0  0.13663363460E+03 -0.49763814784E+02 -0.18362759953E+03  0.24614433228E+03  0.75648857478E+02 0.  0.
          5    1    3    3  501    0  0.38890686119E+01  0.19897090663E+02  0.10659531184E+02  0.23382358234E+02  0.47000000000E+01 0. -1.
        -11    1    4    4    0    0 -0.13440313644E+02 -0.25734250572E+02 -0.61837624551E+02  0.68313874824E+02  0.00000000000E+00 0.  1.
         12    1    4    4    0    0 -0.96691852239E+02  0.51156265084E+02 -0.26143293807E+03  0.28339629295E+03  0.00000000000E+00 0. -1.
         -5    1    5    5    0  502 -0.30390537332E+02  0.44447096085E+01 -0.10250761025E+03  0.10711321283E+03  0.47000000000E+01 0.  1.
         11    1    6    6    0    0  0.99095346741E+02 -0.12953292792E+01 -0.13716762098E+03  0.16922328998E+03  0.00000000000E+00 0. -1.
        -12    1    6    6    0    0  0.37538287862E+02 -0.48468485505E+02 -0.46459978545E+02  0.76921042304E+02  0.00000000000E+00 0.  1.
</event>
<event>
12    1  0.8493057E-002  0.2130338E+03  0.7818608E-02  0.1139402E+00
         21   -1    0    0  503  502  0.00000000000E+00  0.00000000000E+00  0.13890363995E+03  0.13890363995E+03  0.00000000000E+00 0. -1.
         21   -1    0    0  501  503 -0.00000000000E+00 -0.00000000000E+00 -0.43562287081E+03  0.43562287081E+03  0.00000000000E+00 0. -1.
          6    2    1    2  501    0 -0.11455754717E+03  0.47883050790E+02 -0.29281396884E+03  0.36145696487E+03  0.17174078997E+03 0.  0.
         24    2    3    3    0    0 -0.92684969345E+02  0.91323712279E+02 -0.16140967725E+03  0.22126182023E+03  0.77286384414E+02 0.  0.
         -6    2    1    2    0  502  0.11455754717E+03 -0.47883050790E+02 -0.39052620184E+01  0.21306954590E+03  0.17311026010E+03 0.  0.
        -24    2    5    5    0    0  0.14290933809E+03 -0.91199553306E+01 -0.95586752373E+01  0.16448505558E+03  0.80359895081E+02 0.  0.
          5    1    3    3  501    0 -0.21872577825E+02 -0.43440661490E+02 -0.13140429160E+03  0.14019514464E+03  0.47000000000E+01 0. -1.
        -11    1    4    4    0    0 -0.14625367075E+01  0.43816221150E+02 -0.75254294617E+02  0.87093105972E+02  0.00000000000E+00 0.  1.
         12    1    4    4    0    0 -0.91222432637E+02  0.47507491130E+02 -0.86155382629E+02  0.13416871426E+03  0.00000000000E+00 0. -1.
         -5    1    5    5    0  502 -0.28351790925E+02 -0.38763095459E+02  0.56534132189E+01  0.48584490316E+02  0.47000000000E+01 0.  1.
         11    1    6    6    0    0  0.14107384582E+03  0.12379196188E+00  0.11371040517E+02  0.14153143065E+03  0.00000000000E+00 0. -1.
        -12    1    6    6    0    0  0.18354922720E+01 -0.92437472925E+01 -0.20929715755E+02  0.22953624931E+02  0.00000000000E+00 0.  1.
</event>
<event>
12    1  0.8493057E-002  0.1966938E+03  0.7818608E-02  0.1152561E+00
         21   -1    0    0  501  502  0.00000000000E+00  0.00000000000E+00  0.79068557642E+03  0.79068557642E+03  0.00000000000E+00 0. -1.
         21   -1    0    0  502  503 -0.00000000000E+00 -0.00000000000E+00 -0.48934365929E+02  0.48934365929E+02  0.00000000000E+00 0. -1.
         -6    2    1    2    0  503 -0.43854402477E+02 -0.84848361043E+02  0.37595046331E+03  0.42429613114E+03  0.17194767533E+03 0.  0.
        -24    2    3    3    0    0 -0.46771981713E+02 -0.19020730200E+02  0.32917571749E+03  0.34335321238E+03  0.83578520068E+02 0.  0.
          6    2    1    2  501    0  0.43854402477E+02  0.84848361043E+02  0.36580074718E+03  0.41532381121E+03  0.17193379112E+03 0.  0.
         24    2    5    5    0    0  0.14653273657E+02 -0.20710565755E+02  0.14585701222E+03  0.16957448872E+03  0.82689740904E+02 0.  0.
          5    1    5    5  501    0  0.29201128820E+02  0.10555892680E+03  0.21994373497E+03  0.24574932248E+03  0.47000000000E+01 0. -1.
        -11    1    6    6    0    0  0.41402079737E+02 -0.32609577742E+02  0.11767725827E+03  0.12893972964E+03  0.00000000000E+00 0.  1.
         12    1    6    6    0    0 -0.26748806080E+02  0.11899011987E+02  0.28179753948E+02  0.40634759081E+02  0.00000000000E+00 0. -1.
         -5    1    3    3    0  503  0.29175792360E+01 -0.65827630842E+02  0.46774745820E+02  0.80942918761E+02  0.47000000000E+01 0.  1.
         11    1    4    4    0    0 -0.68818237452E+01 -0.36603673825E+02  0.25182214867E+03  0.25456155051E+03  0.00000000000E+00 0. -1.
        -12    1    4    4    0    0 -0.39890157968E+02  0.17582943625E+02  0.77353568818E+02  0.88791661872E+02  0.00000000000E+00 0.  1.
</event>
<event>
12    1  0.8493057E-002  0.1962685E+03  0.7818608E-02  0.1153115E+00
         21   -1    0    0  501  502  0.00000000000E+00  0.00000000000E+00  0.17603329522E+03  0.17603329522E+03  0.00000000000E+00 0.  1.
         21   -1    0    0  502  503 -0.00000000000E+00 -0.00000000000E+00 -0.35544229361E+03  0.35544229361E+03  0.00000000000E+00 0.  1.
         -6    2    1    2    0  503 -0.55778087210E+02 -0.77230243515E+02 -0.25491308340E+03  0.32118483499E+03  0.17059693024E+03 0.  0.
        -24    2    3    3    0    0  0.84805470477E+01  0.15581576753E+02 -0.89548997181E+02  0.12090858310E+03  0.79278984342E+02 0.  0.
          6    2    1    2  501    0  0.55778087210E+02  0.77230243515E+02  0.75504085009E+02  0.21029075384E+03  0.17159728661E+03 0.  0.
         24    2    5    5    0    0  0.54891773084E+02 -0.20226719678E+02  0.38582860509E+02  0.10596476453E+03  0.79483754665E+02 0.  0.
          5    1    5    5  501    0  0.88631412602E+00  0.97456963193E+02  0.36921224500E+02  0.10432598931E+03  0.47000000000E+01 0. -1.
        -11    1    6    6    0    0  0.32371354128E+01  0.18200185369E+02  0.37233899016E+02  0.41570290221E+02  0.00000000000E+00 0.  1.
         12    1    6    6    0    0  0.51654637671E+02 -0.38426905047E+02  0.13489614937E+01  0.64394474309E+02  0.00000000000E+00 0. -1.
         -5    1    3    3    0  503 -0.64258634258E+02 -0.92811820268E+02 -0.16536408622E+03  0.20027625189E+03  0.47000000000E+01 0.  1.
         11    1    4    4    0    0 -0.18850459053E+02  0.27872878498E+02 -0.88033836014E+01  0.34781269745E+02  0.00000000000E+00 0. -1.
        -12    1    4    4    0    0  0.27331006101E+02 -0.12291301744E+02 -0.80745613580E+02  0.86127313353E+02  0.00000000000E+00 0.  1.
</event>
<event>
12    1  0.8493057E-002  0.1804596E+03  0.7818608E-02  0.1167792E+00
         21   -1    0    0  503  502  0.00000000000E+00  0.00000000000E+00  0.89647852590E+03  0.89647852590E+03  0.00000000000E+00 0.  1.
         21   -1    0    0  501  503 -0.00000000000E+00 -0.00000000000E+00 -0.36867823823E+02  0.36867823823E+02  0.00000000000E+00 0. -1.
          6    2    1    2  501    0 -0.71159617524E+01 -0.48470021269E+02  0.35896163185E+03  0.40176997322E+03  0.17368269449E+03 0.  0.
         24    2    3    3    0    0 -0.67806177847E+02 -0.82680351624E+01  0.18327639087E+03  0.21154143720E+03  0.80582293609E+02 0.  0.
         -6    2    1    2    0  502  0.71159617524E+01  0.48470021269E+02  0.50064907022E+03  0.53157637650E+03  0.17182541333E+03 0.  0.
        -24    2    5    5    0    0 -0.98234102691E+01  0.76003207620E+02  0.19361167583E+03  0.22280612173E+03  0.79272314874E+02 0.  0.
          5    1    3    3  501    0  0.60690216095E+02 -0.40201986107E+02  0.17568524098E+03  0.19022853602E+03  0.47000000000E+01 0. -1.
        -11    1    4    4    0    0 -0.12605022898E+02 -0.32129575019E+01  0.14158381863E+03  0.14218012307E+03  0.00000000000E+00 0.  1.
         12    1    4    4    0    0 -0.55201154949E+02 -0.50550776605E+01  0.41692572234E+02  0.69361314127E+02  0.00000000000E+00 0. -1.
         -5    1    5    5    0  502  0.16939372021E+02 -0.27533186351E+02  0.30703739440E+03  0.30877025477E+03  0.47000000000E+01 0.  1.
         13    1    6    6    0    0 -0.51269488993E+01  0.57087011408E+02  0.19501659622E+03  0.20326506163E+03  0.00000000000E+00 0. -1.
        -14    1    6    6    0    0 -0.46964613698E+01  0.18916196212E+02 -0.14049203964E+01  0.19541060100E+02  0.00000000000E+00 0.  1.
</event>
<event>
12    1  0.8493057E-002  0.2474873E+03  0.7818608E-02  0.1114992E+00
         21   -1    0    0  503  502  0.00000000000E+00  0.00000000000E+00  0.51464945911E+03  0.51464945911E+03  0.00000000000E+00 0.  1.
         21   -1    0    0  501  503 -0.00000000000E+00 -0.00000000000E+00 -0.26244061112E+03  0.26244061112E+03  0.00000000000E+00 0. -1.
          6    2    1    2  501    0  0.16478300857E+03 -0.67615768295E+02 -0.16146325607E+03  0.29503760809E+03  0.17103062618E+03 0.  0.
         24    2    3    3    0    0  0.14137978801E+03  0.13036050651E+02 -0.10794607643E+03  0.19534505497E+03  0.79681566311E+02 0.  0.
         -6    2    1    2    0  502 -0.16478300857E+03  0.67615768295E+02  0.41367210406E+03  0.48205246214E+03  0.17182733934E+03 0.  0.
        -24    2    5    5    0    0 -0.28663295116E+02  0.58654178643E+02  0.19119344376E+03  0.22103956826E+03  0.89675306768E+02 0.  0.
          5    1    3    3  501    0  0.23403220563E+02 -0.80651818945E+02 -0.53517179638E+02  0.99692553124E+02  0.47000000000E+01 0. -1.
        -13    1    4    4    0    0 -0.31249924752E+01  0.17195853798E+02 -0.61164054354E+01  0.18516840477E+02  0.00000000000E+00 0.  1.
         14    1    4    4    0    0  0.14450478048E+03 -0.41598031473E+01 -0.10182967099E+03  0.17682821449E+03  0.00000000000E+00 0. -1.
         -5    1    5    5    0  502 -0.13611971346E+03  0.89615896520E+01  0.22247866030E+03  0.26101289388E+03  0.47000000000E+01 0.  1.
         11    1    6    6    0    0 -0.33129299625E+02  0.64941467318E+02  0.75013239258E+02  0.10460368414E+03  0.00000000000E+00 0. -1.
        -12    1    6    6    0    0  0.44660045088E+01 -0.62872886757E+01  0.11618020450E+03  0.11643588413E+03  0.00000000000E+00 0.  1.
</event>
<event>
12    1  0.8493057E-002  0.1953128E+03  0.7818608E-02  0.1153789E+00
         21   -1    0    0  503  502  0.00000000000E+00  0.00000000000E+00  0.27713841372E+03  0.27713841372E+03  0.00000000000E+00 0. -1.
         21   -1    0    0  501  503 -0.00000000000E+00 -0.00000000000E+00 -0.35450836589E+03  0.35450836589E+03  0.00000000000E+00 0. -1.
          6    2    1    2  501    0  0.41043693886E+02 -0.83288279626E+02 -0.28575658839E+03  0.34603853916E+03  0.17165174176E+03 0.  0.
         24    2    3    3    0    0  0.77228895422E+02 -0.72670608572E+01 -0.15947109714E+03  0.19418759312E+03  0.79124446528E+02 0.  0.
         -6    2    1    2    0  502 -0.41043693886E+02  0.83288279626E+02  0.20838663621E+03  0.28560824044E+03  0.17183001637E+03 0.  0.
        -24    2    5    5    0    0  0.14814270408E+02  0.29679000258E+02  0.29525478404E+02  0.90653192337E+02  0.79031270658E+02 0.  0.
          5    1    3    3  501    0 -0.36185201536E+02 -0.76021218769E+02 -0.12628549125E+03  0.15185094604E+03  0.47000000000E+01 0. -1.
        -13    1    4    4    0    0  0.41538193814E+02 -0.20410751114E+02 -0.14707394121E+03  0.15418419014E+03  0.00000000000E+00 0.  1.
         14    1    4    4    0    0  0.35690701609E+02  0.13143690257E+02 -0.12397155926E+02  0.40003402979E+02  0.00000000000E+00 0. -1.
         -5    1    5    5    0  502 -0.55857964294E+02  0.53609279368E+02  0.17886115781E+03  0.19495504811E+03  0.47000000000E+01 0.  1.
         11    1    6    6    0    0 -0.16035679131E+02  0.35557546046E+02  0.41581852148E+02  0.57013441521E+02  0.00000000000E+00 0. -1.
        -12    1    6    6    0    0  0.30849949539E+02 -0.58785457882E+01 -0.12056373744E+02  0.33639750816E+02  0.00000000000E+00 0.  1.
</event>
<event>
12    1  0.8493057E-002  0.2233341E+03  0.7818608E-02  0.1131506E+00
         21   -1    0    0  501  502  0.00000000000E+00  0.00000000000E+00  0.16660819916E+04  0.16660819916E+04  0.00000000000E+00 0. -1.
         21   -1    0    0  502  503 -0.00000000000E+00 -0.00000000000E+00 -0.48742224670E+02  0.48742224670E+02  0.00000000000E+00 0.  1.
         -6    2    1    2    0  503  0.12172319266E+03 -0.74332600275E+02  0.27574330053E+03  0.35484150980E+03  0.17186115966E+03 0.  0.
        -24    2    3    3    0    0 -0.46376754171E+01 -0.16649678363E+02  0.72744862739E+02  0.10882353443E+03  0.79069758874E+02 0.  0.
          6    2    1    2  501    0 -0.12172319266E+03  0.74332600275E+02  0.13415964664E+04  0.13599827064E+04  0.17126007164E+03 0.  0.
         24    2    5    5    0    0 -0.18500729514E+02  0.23973818642E+02  0.88542667891E+03  0.88955327626E+03  0.80047527178E+02 0.  0.
          5    1    5    5  501    0 -0.10322246314E+03  0.50358781634E+02  0.45616978745E+03  0.47042943016E+03  0.47000000000E+01 0. -1.
        -11    1    6    6    0    0  0.11951078167E-01 -0.25660082926E+02  0.47928517858E+03  0.47997158500E+03  0.00000000000E+00 0.  1.
         12    1    6    6    0    0 -0.18512680592E+02  0.49633901567E+02  0.40614150033E+03  0.40958169127E+03  0.00000000000E+00 0. -1.
         -5    1    3    3    0  503  0.12636086807E+03 -0.57682921912E+02  0.20299843779E+03  0.24601797537E+03  0.47000000000E+01 0.  1.
         13    1    4    4    0    0 -0.15098015507E+02  0.29755721132E+02  0.29999545844E+02  0.44870098765E+02  0.00000000000E+00 0. -1.
        -14    1    4    4    0    0  0.10460340090E+02 -0.46405399495E+02  0.42745316895E+02  0.63953435667E+02  0.00000000000E+00 0.  1.
</event>
<event>
12    1  0.8493057E-002  0.1787370E+03  0.7818608E-02  0.1169054E+00
         21   -1    0    0  501  502  0.00000000000E+00  0.00000000000E+00  0.39381574176E+02  0.39381574176E+02  0.00000000000E+00 0. -1.
         21   -1    0    0  502  503 -0.00000000000E+00 -0.00000000000E+00 -0.32404823090E+04  0.32404823090E+04  0.00000000000E+00 0. -1.
         -6    2    1    2    0  503 -0.49193459316E+02  0.70858159002E+01 -0.30204723907E+04  0.30257506824E+04  0.17159115282E+03 0.  0.
        -24    2    3    3    0    0  0.56932025317E+01  0.19791823953E+02 -0.26186163293E+04  0.26199374588E+04  0.80601981932E+02 0.  0.
          6    2    1    2  501    0  0.49193459316E+02 -0.70858159002E+01 -0.18062834405E+03  0.25411320072E+03  0.17168784139E+03 0.  0.
         24    2    5    5    0    0 -0.14213036245E+01 -0.19212535348E+02 -0.18555689348E+03  0.20162232388E+03  0.76479141924E+02 0.  0.
          5    1    5    5  501    0  0.50614762940E+02  0.12126719448E+02  0.49285494324E+01  0.52490876841E+02  0.47000000000E+01 0. -1.
        -13    1    6    6    0    0  0.37411496524E+02 -0.11230772503E+02 -0.98566774666E+02  0.10602433396E+03  0.00000000000E+00 0.  1.
         14    1    6    6    0    0 -0.38832800148E+02 -0.79817628451E+01 -0.86990118819E+02  0.95597989925E+02  0.00000000000E+00 0. -1.
         -5    1    3    3    0  503 -0.54886661847E+02 -0.12706008053E+02 -0.40185606149E+03  0.40581322359E+03  0.47000000000E+01 0.  1.
         13    1    4    4    0    0  0.18296817219E+02 -0.65356021745E+01 -0.16389510062E+03  0.16504269637E+03  0.00000000000E+00 0. -1.
        -14    1    4    4    0    0 -0.12603614688E+02  0.26327426128E+02 -0.24547212286E+04  0.24548947625E+04  0.00000000000E+00 0.  1.
</event>
<event>
12    1  0.8493057E-002  0.1870622E+03  0.7818608E-02  0.1164481E+00
         21   -1    0    0  503  502  0.00000000000E+00  0.00000000000E+00  0.28801779241E+03  0.28801779241E+03  0.00000000000E+00 0. -1.
         21   -1    0    0  501  503 -0.00000000000E+00 -0.00000000000E+00 -0.11695821113E+03  0.11695821113E+03  0.00000000000E+00 0. -1.
          6    2    1    2  501    0  0.15837488839E+02  0.11700527190E+02  0.49695339828E+02  0.19355070685E+03  0.18602290433E+03 0.  0.
         24    2    3    3    0    0 -0.31602588109E+02  0.13758393842E+02  0.94684377644E+02  0.12796946533E+03  0.78886220035E+02 0.  0.
         -6    2    1    2    0  502 -0.15837488839E+02 -0.11700527190E+02  0.12136424145E+03  0.21142529668E+03  0.17199897844E+03 0.  0.
        -24    2    5    5    0    0 -0.73813568968E+02  0.71040329053E+00  0.99829401503E+02  0.14817107632E+03  0.80869096794E+02 0.  0.
          5    1    3    3  501    0  0.47440076948E+02 -0.20578666519E+01 -0.44989037816E+02  0.65581241522E+02  0.47000000000E+01 0. -1.
        -13    1    4    4    0    0  0.24311361647E+02  0.11708492022E+02  0.15840067785E+02  0.31289596322E+02  0.00000000000E+00 0.  1.
         14    1    4    4    0    0 -0.55913949756E+02  0.20499018197E+01  0.78844309859E+02  0.96679869011E+02  0.00000000000E+00 0. -1.
         -5    1    5    5    0  502  0.57976080129E+02 -0.12410930480E+02  0.21534839948E+02  0.63254220366E+02  0.47000000000E+01 0.  1.
         11    1    6    6    0    0 -0.67344198137E+02 -0.10487197645E+02  0.25570813813E+02  0.72794840863E+02  0.00000000000E+00 0. -1.
        -12    1    6    6    0    0 -0.64693708306E+01  0.11197600936E+02  0.74258587691E+02  0.75376235456E+02  0.00000000000E+00 0.  1.
</event>
<event>
12    1  0.8493057E-002  0.1802548E+03  0.7818608E-02  0.1167946E+00
         21   -1    0    0  501  502  0.00000000000E+00  0.00000000000E+00  0.25381875484E+03  0.25381875484E+03  0.00000000000E+00 0. -1.
         21   -1    0    0  502  503 -0.00000000000E+00 -0.00000000000E+00 -0.14437069242E+03  0.14437069242E+03  0.00000000000E+00 0. -1.
         -6    2    1    2    0  503 -0.36207211246E+02  0.38284875947E+02 -0.14370358607E+02  0.18082670174E+03  0.17238066882E+03 0.  0.
        -24    2    3    3    0    0 -0.29469271332E+02  0.62527231842E+02 -0.69851647338E+02  0.11972551474E+03  0.68387524948E+02 0.  0.
          6    2    1    2  501    0  0.36207211246E+02 -0.38284875947E+02  0.12381842103E+03  0.21736274552E+03  0.17070110686E+03 0.  0.
         24    2    5    5    0    0 -0.22134280548E+02 -0.34236024599E+02  0.11976160538E+02  0.91065856828E+02  0.80545205338E+02 0.  0.
          5    1    5    5  501    0  0.58341491793E+02 -0.40488513484E+01  0.11184226049E+03  0.12629688870E+03  0.47000000000E+01 0. -1.
        -13    1    6    6    0    0 -0.24907120649E+02 -0.33191131302E+02  0.43083275727E+02  0.59817927944E+02  0.00000000000E+00 0.  1.
         14    1    6    6    0    0  0.27728401012E+01 -0.10448932967E+01 -0.31107115188E+02  0.31247928885E+02  0.00000000000E+00 0. -1.
         -5    1    3    3    0  503 -0.67379399140E+01 -0.24242355895E+02  0.55481288731E+02  0.61101187001E+02  0.47000000000E+01 0.  1.
         13    1    4    4    0    0  0.27824413748E+01  0.64841599786E+02 -0.46826417717E+02  0.80030546912E+02  0.00000000000E+00 0. -1.
        -14    1    4    4    0    0 -0.32251712706E+02 -0.23143679445E+01 -0.23025229622E+02  0.39694967825E+02  0.00000000000E+00 0.  1.
</event>
<event>
12    1  0.8493057E-002  0.2439606E+03  0.7818608E-02  0.1117956E+00
         21   -1    0    0  501  502  0.00000000000E+00  0.00000000000E+00  0.17501878601E+04  0.17501878601E+04  0.00000000000E+00 0.  1.
         21   -1    0    0  502  503 -0.00000000000E+00 -0.00000000000E+00 -0.33583447537E+02  0.33583447537E+02  0.00000000000E+00 0.  1.
         -6    2    1    2    0  503  0.17301303131E+02  0.17107320824E+03  0.94018168479E+03  0.97131785013E+03  0.17306469284E+03 0.  0.
        -24    2    3    3    0    0 -0.21334204189E+02  0.45447393643E+02  0.22149145094E+03  0.24069326120E+03  0.79713043423E+02 0.  0.
          6    2    1    2  501    0 -0.17301303131E+02 -0.17107320824E+03  0.77642272778E+03  0.81245345751E+03  0.16638206255E+03 0.  0.
         24    2    5    5    0    0  0.23674362781E+02 -0.12381063341E+03  0.33673385966E+03  0.36831254865E+03  0.79842926112E+02 0.  0.
          5    1    5    5  501    0 -0.40975665912E+02 -0.47262574829E+02  0.43968886811E+03  0.44414090886E+03  0.47000000000E+01 0. -1.
        -11    1    6    6    0    0  0.29165091313E+02 -0.34789551084E+02  0.19980700427E+03  0.20489937621E+03  0.00000000000E+00 0.  1.
         12    1    6    6    0    0 -0.54907285317E+01 -0.89021082331E+02  0.13692685539E+03  0.16341317244E+03  0.00000000000E+00 0. -1.
         -5    1    3    3    0  503  0.38635507319E+02  0.12562581460E+03  0.71869023384E+03  0.73062458893E+03  0.47000000000E+01 0.  1.
         13    1    4    4    0    0  0.84719395316E+01  0.29408611196E+01 -0.36215118205E+01  0.96714927192E+01  0.00000000000E+00 0. -1.
        -14    1    4    4    0    0 -0.29806143720E+02  0.42506532523E+02  0.22511296276E+03  0.23102176849E+03  0.00000000000E+00 0.  1.
</event>
<event>
12    1  0.8493057E-002  0.2076243E+03  0.7818608E-02  0.1144261E+00
         21   -1    0    0  503  502  0.00000000000E+00  0.00000000000E+00  0.76641295866E+03  0.76641295866E+03  0.00000000000E+00 0. -1.
         21   -1    0    0  501  503 -0.00000000000E+00 -0.00000000000E+00 -0.13649764901E+03  0.13649764901E+03  0.00000000000E+00 0. -1.
          6    2    1    2  501    0 -0.50908761266E+02 -0.10448260791E+03 -0.32260359690E+02  0.21011565573E+03  0.17204517036E+03 0.  0.
         24    2    3    3    0    0  0.25626020070E+02 -0.86996492829E+02  0.11546231083E+02  0.12009096817E+03  0.77868109738E+02 0.  0.
         -6    2    1    2    0  502  0.50908761266E+02  0.10448260791E+03  0.66217566933E+03  0.69279495195E+03  0.16727196733E+03 0.  0.
        -24    2    5    5    0    0  0.72833076626E+02  0.14443208993E+02  0.39024871416E+03  0.40547261047E+03  0.81244788141E+02 0.  0.
          5    1    3    3  501    0 -0.76534781336E+02 -0.17486115085E+02 -0.43806590772E+02  0.90024687558E+02  0.47000000000E+01 0. -1.
        -13    1    4    4    0    0 -0.73355894779E+01 -0.54065451142E+02  0.38020751929E+02  0.66501589887E+02  0.00000000000E+00 0.  1.
         14    1    4    4    0    0  0.32961609548E+02 -0.32931041687E+02 -0.26474520846E+02  0.53589378281E+02  0.00000000000E+00 0. -1.
         -5    1    5    5    0  502 -0.21924315360E+02  0.90039398921E+02  0.27192695518E+03  0.28732234148E+03  0.47000000000E+01 0.  1.
         11    1    6    6    0    0  0.51348770827E+02  0.47888304492E+02  0.24083844729E+03  0.25086479160E+03  0.00000000000E+00 0. -1.
        -12    1    6    6    0    0  0.21484305799E+02 -0.33445095499E+02  0.14941026687E+03  0.15460781887E+03  0.00000000000E+00 0.  1.
</event>
<event>
12    1  0.8493057E-002  0.2192880E+03  0.7818608E-02  0.1135129E+00
         21   -1    0    0  501  502  0.00000000000E+00  0.00000000000E+00  0.17676122537E+04  0.17676122537E+04  0.00000000000E+00 0.  1.
         21   -1    0    0  502  503 -0.00000000000E+00 -0.00000000000E+00 -0.54442788880E+02  0.54442788880E+02  0.00000000000E+00 0.  1.
         -6    2    1    2    0  503 -0.11747420924E+03 -0.17799492609E+02  0.15101247044E+04  0.15259632561E+04  0.18431013116E+03 0.  0.
        -24    2    3    3    0    0 -0.49872952568E+02  0.41529746662E+02  0.11745331761E+04  0.11784957722E+04  0.71498755442E+02 0.  0.
          6    2    1    2  501    0  0.11747420924E+03  0.17799492609E+02  0.20304476046E+03  0.29609178649E+03  0.17979477051E+03 0.  0.
         24    2    5    5    0    0  0.12188337982E+02  0.52297002878E+02  0.56233062848E+02  0.11210548956E+03  0.80758599169E+02 0.  0.
          5    1    5    5  501    0  0.10528587126E+03 -0.34497510270E+02  0.14681169761E+03  0.18398629692E+03  0.47000000000E+01 0. -1.
        -11    1    6    6    0    0  0.46730059793E+02  0.31396990094E+02  0.37145384185E+02  0.67448121112E+02  0.00000000000E+00 0.  1.
         12    1    6    6    0    0 -0.34541721812E+02  0.20900012785E+02  0.19087678663E+02  0.44657368450E+02  0.00000000000E+00 0. -1.
         -5    1    3    3    0  503 -0.67601256671E+02 -0.59329239270E+02  0.33559152825E+03  0.34746748390E+03  0.47000000000E+01 0.  1.
         13    1    4    4    0    0  0.96447453371E+01  0.77918191357E+01  0.39447874718E+02  0.41350554747E+02  0.00000000000E+00 0. -1.
        -14    1    4    4    0    0 -0.59517697905E+02  0.33737927526E+02  0.11350853014E+04  0.11371452174E+04  0.00000000000E+00 0.  1.
</event>
<event>
12    1  0.8493057E-002  0.1787643E+03  0.7818608E-02  0.1169676E+00
         21   -1    0    0  503  502  0.00000000000E+00  0.00000000000E+00  0.12756676446E+02  0.12756676446E+02  0.00000000000E+00 0. -1.
         21   -1    0    0  501  503 -0.00000000000E+00 -0.00000000000E+00 -0.25209465216E+04  0.25209465216E+04  0.00000000000E+00 0.  1.
          6    2    1    2  501    0 -0.10714734482E+02  0.34730047936E+02 -0.14488402699E+04  0.14598269807E+04  0.17503058054E+03 0.  0.
         24    2    3    3    0    0 -0.64919024602E+02  0.57671832362E+02 -0.88187547858E+03  0.88979575775E+03  0.80570532976E+02 0.  0.
         -6    2    1    2    0  502  0.10714734482E+02 -0.34730047936E+02 -0.10593495752E+04  0.10738762173E+04  0.17224292679E+03 0.  0.
        -24    2    5    5    0    0  0.39489864414E+02 -0.31068288411E+02 -0.10229718930E+04  0.10271125311E+04  0.77226742360E+02 0.  0.
          5    1    3    3  501    0  0.54204290120E+02 -0.22941784426E+02 -0.56696479137E+03  0.57003122300E+03  0.47000000000E+01 0. -1.
        -11    1    4    4    0    0 -0.29098188068E+02  0.73642897626E+02 -0.57697019834E+03  0.58237839133E+03  0.00000000000E+00 0.  1.
         12    1    4    4    0    0 -0.35820836534E+02 -0.15971065264E+02 -0.30490528024E+03  0.30741736642E+03  0.00000000000E+00 0. -1.
         -5    1    5    5    0  502 -0.28775129932E+02 -0.36617595246E+01 -0.36377682255E+02  0.46763686250E+02  0.47000000000E+01 0.  1.
         11    1    6    6    0    0  0.52424288788E+02 -0.40670505753E+02 -0.56909188149E+03  0.57294673895E+03  0.00000000000E+00 0. -1.
        -12    1    6    6    0    0 -0.12934424374E+02  0.96022173412E+01 -0.45388001148E+03  0.45416579212E+03  0.00000000000E+00 0.  1.
</event>
<event>
12    1  0.8493057E-002  0.2138110E+03  0.7818608E-02  0.1138800E+00
         21   -1    0    0  501  502  0.00000000000E+00  0.00000000000E+00  0.23648557270E+03  0.23648557270E+03  0.00000000000E+00 0.  1.
         21   -1    0    0  502  503 -0.00000000000E+00 -0.00000000000E+00 -0.26851610855E+03  0.26851610855E+03  0.00000000000E+00 0. -1.
         -6    2    1    2    0  503  0.96021134184E+02  0.81398811840E+02 -0.15057015185E+03  0.26150815607E+03  0.17282742920E+03 0.  0.
        -24    2    3    3    0    0 -0.98474759184E+01  0.49420733358E+02 -0.38215274206E+02  0.10378539728E+03  0.82289852588E+02 0.  0.
          6    2    1    2  501    0 -0.96021134184E+02 -0.81398811840E+02  0.11853961600E+03  0.24349352518E+03  0.17143987711E+03 0.  0.
         24    2    5    5    0    0 -0.12226966999E+03 -0.39327254884E+02  0.52355253035E+02  0.16065958626E+03  0.81079744451E+02 0.  0.
          5    1    5    5  501    0  0.26248535802E+02 -0.42071556955E+02  0.66184362963E+02  0.82833938922E+02  0.47000000000E+01 0. -1.
        -13    1    6    6    0    0 -0.15101616761E+02 -0.10396551198E+02  0.45947499866E+02  0.49470393666E+02  0.00000000000E+00 0.  1.
         14    1    6    6    0    0 -0.10716805323E+03 -0.28930703686E+02  0.64077531689E+01  0.11118919259E+03  0.00000000000E+00 0. -1.
         -5    1    3    3    0  503  0.10586861010E+03  0.31978078482E+02 -0.11235487764E+03  0.15772275878E+03  0.47000000000E+01 0.  1.
         11    1    4    4    0    0 -0.55414951485E+01  0.56314011483E+01 -0.55832734806E+02  0.56388962779E+02  0.00000000000E+00 0. -1.
        -12    1    4    4    0    0 -0.43059807699E+01  0.43789332210E+02  0.17617460600E+02  0.47396434505E+02  0.00000000000E+00 0.  1.
</event>
<event>
12    1  0.8493057E-002  0.2534558E+03  0.7818608E-02  0.1111214E+00
         21   -1    0    0  503  502  0.00000000000E+00  0.00000000000E+00  0.24245515022E+03  0.24245515022E+03  0.00000000000E+00 0.  1.
         21   -1    0    0  501  503 -0.00000000000E+00 -0.00000000000E+00 -0.26794157401E+03  0.26794157401E+03  0.00000000000E+00 0.  1.
          6    2    1    2  501    0 -0.68271369048E+02  0.17219247770E+03  0.16345734746E+02  0.25398231043E+03  0.17299884902E+03 0.  0.
         24    2    3    3    0    0 -0.76439128688E+02  0.17621014611E+03 -0.26838252240E+02  0.20959987372E+03  0.79491252934E+02 0.  0.
         -6    2    1    2    0  502  0.68271369048E+02 -0.17219247770E+03 -0.41832158534E+02  0.25641441380E+03  0.17229971826E+03 0.  0.
        -24    2    5    5    0    0  0.43698309787E+02 -0.50412304006E+02 -0.74020091686E+02  0.12799167833E+03  0.80324050414E+02 0.  0.
          5    1    3    3  501    0  0.81677596398E+01 -0.40176684072E+01  0.43183986986E+02  0.44382436717E+02  0.47000000000E+01 0. -1.
        -11    1    4    4    0    0 -0.11618594016E+02  0.12262349934E+03 -0.23744529768E+02  0.12544049191E+03  0.00000000000E+00 0.  1.
         12    1    4    4    0    0 -0.64820534672E+02  0.53586646767E+02 -0.30937224714E+01  0.84159381804E+02  0.00000000000E+00 0. -1.
         -5    1    5    5    0  502  0.24573059261E+02 -0.12178017369E+03  0.32187933152E+02  0.12842273547E+03  0.47000000000E+01 0.  1.
         11    1    6    6    0    0  0.50557836614E+02  0.29138136052E+01 -0.36775238990E+02  0.62585967721E+02  0.00000000000E+00 0. -1.
        -12    1    6    6    0    0 -0.68595268270E+01 -0.53326117611E+02 -0.37244852696E+02  0.65405710608E+02  0.00000000000E+00 0.  1.
</event>
<event>
12    1  0.8493057E-002  0.2011116E+03  0.7818608E-02  0.1148868E+00
         21   -1    0    0  503  502  0.00000000000E+00  0.00000000000E+00  0.77002047763E+03  0.77002047763E+03  0.00000000000E+00 0.  1.
         21   -1    0    0  501  503 -0.00000000000E+00 -0.00000000000E+00 -0.83154196126E+02  0.83154196126E+02  0.00000000000E+00 0. -1.
          6    2    1    2  501    0  0.83290459872E+02  0.62140920738E+02  0.84365343174E+02  0.21809034289E+03  0.17218330870E+03 0.  0.
         24    2    3    3    0    0  0.25050398698E+02 -0.25825581972E+02  0.62019713458E+02  0.11014856464E+03  0.83616854013E+02 0.  0.
         -6    2    1    2    0  502 -0.83290459872E+02 -0.62140920738E+02  0.60250093833E+03  0.63508433087E+03  0.17183111444E+03 0.  0.
        -24    2    5    5    0    0  0.26189406770E+01 -0.23150674981E+02  0.13781492297E+03  0.16089465654E+03  0.79695200029E+02 0.  0.
          5    1    3    3  501    0  0.58240061174E+02  0.87966502711E+02  0.22345629716E+02  0.10794177825E+03  0.47000000000E+01 0. -1.
        -11    1    4    4    0    0  0.17687220457E+02  0.29933391402E+02  0.22649149648E+02  0.41494935451E+02  0.00000000000E+00 0.  1.
         12    1    4    4    0    0  0.73631782406E+01 -0.55758973374E+02  0.39370563810E+02  0.68653629185E+02  0.00000000000E+00 0. -1.
         -5    1    5    5    0  502 -0.85909400549E+02 -0.38990245757E+02  0.46468601536E+03  0.47418967433E+03  0.47000000000E+01 0.  1.
         13    1    6    6    0    0 -0.31458245774E+02 -0.37090480100E+01  0.21871907689E+02  0.38493617786E+02  0.00000000000E+00 0. -1.
        -14    1    6    6    0    0  0.34077186451E+02 -0.19441626971E+02  0.11594301528E+03  0.12240103875E+03  0.00000000000E+00 0.  1.
</event>
<event>
12    1  0.8493057E-002  0.2578913E+03  0.7818608E-02  0.1108585E+00
         21   -1    0    0  503  502  0.00000000000E+00  0.00000000000E+00  0.10991936675E+04  0.10991936675E+04  0.00000000000E+00 0.  1.
         21   -1    0    0  501  503 -0.00000000000E+00 -0.00000000000E+00 -0.60911081600E+02  0.60911081600E+02  0.00000000000E+00 0.  1.
          6    2    1    2  501    0  0.34056580836E+01 -0.19227410242E+03  0.45965913342E+03  0.52706210247E+03  0.17183425724E+03 0.  0.
         24    2    3    3    0    0  0.39721031451E+02 -0.47392560093E+02  0.13264309117E+03  0.16751926840E+03  0.81515032707E+02 0.  0.
         -6    2    1    2    0  502 -0.34056580836E+01  0.19227410242E+03  0.57862345249E+03  0.63304264664E+03  0.17016745788E+03 0.  0.
        -24    2    5    5    0    0  0.56978212909E+02  0.10891112035E+03  0.25076090591E+03  0.28936905425E+03  0.75797551018E+02 0.  0.
          5    1    3    3  501    0 -0.36315373367E+02 -0.14488154232E+03  0.32701604224E+03  0.35954283407E+03  0.47000000000E+01 0. -1.
        -11    1    4    4    0    0 -0.96672251155E+01 -0.50719739862E+01 -0.73462113728E+01  0.13158532710E+02  0.00000000000E+00 0.  1.
         12    1    4    4    0    0  0.49388256566E+02 -0.42320586107E+02  0.13998930255E+03  0.15436073569E+03  0.00000000000E+00 0. -1.
         -5    1    5    5    0  502 -0.60383870992E+02  0.83362982062E+02  0.32786254658E+03  0.34367359239E+03  0.47000000000E+01 0.  1.
         13    1    6    6    0    0  0.41834169698E+01  0.32302539730E+02  0.14894820921E+02  0.35816347397E+02  0.00000000000E+00 0. -1.
        -14    1    6    6    0    0  0.52794795939E+02  0.76608580623E+02  0.23586608499E+03  0.25355270685E+03  0.00000000000E+00 0.  1.
</event>
<event>
12    1  0.8493057E-002  0.1901827E+03  0.7818608E-02  0.1158451E+00
         21   -1    0    0  501  502  0.00000000000E+00  0.00000000000E+00  0.30293213573E+03  0.30293213573E+03  0.00000000000E+00 0.  1.
         21   -1    0    0  502  503 -0.00000000000E+00 -0.00000000000E+00 -0.11896885941E+03  0.11896885941E+03  0.00000000000E+00 0.  1.
         -6    2    1    2    0  503  0.66475041053E+02 -0.46453559570E+02  0.92298287190E+02  0.21078033437E+03  0.17126736776E+03 0.  0.
        -24    2    3    3    0    0 -0.18710921851E+02  0.30583422239E+01  0.11087102530E+02  0.83009354844E+02  0.80051090533E+02 0.  0.
          6    2    1    2  501    0 -0.66475041053E+02  0.46453559570E+02  0.91664989129E+02  0.21112066076E+03  0.17202499495E+03 0.  0.
         24    2    5    5    0    0 -0.11754420992E+01  0.79852245960E+02  0.71376211536E+02  0.13487609130E+03  0.81970931325E+02 0.  0.
          5    1    5    5  501    0 -0.65299598954E+02 -0.33398686389E+02  0.20288777593E+02  0.76244569461E+02  0.47000000000E+01 0. -1.
        -13    1    6    6    0    0 -0.12789608807E+02  0.81135182018E+02  0.23267964169E+02  0.85369139688E+02  0.00000000000E+00 0.  1.
         14    1    6    6    0    0  0.11614166708E+02 -0.12829360580E+01  0.48108247367E+02  0.49506951613E+02  0.00000000000E+00 0. -1.
         -5    1    3    3    0  503  0.85185962904E+02 -0.49511901794E+02  0.81211184660E+02  0.12777097953E+03  0.47000000000E+01 0.  1.
         11    1    4    4    0    0 -0.26667284448E+02 -0.27391907010E+02  0.27900213549E+02  0.47327397410E+02  0.00000000000E+00 0. -1.
        -12    1    4    4    0    0  0.79563625972E+01  0.30450249234E+02 -0.16813111020E+02  0.35681957435E+02  0.00000000000E+00 0.  1.
</event>
<event>
12    1  0.8493057E-002  0.2114975E+03  0.7818608E-02  0.1140508E+00
         21   -1    0    0  503  502  0.00000000000E+00  0.00000000000E+00  0.31088431497E+03  0.31088431497E+03  0.00000000000E+00 0.  1.
         21   -1    0    0  501  503 -0.00000000000E+00 -0.00000000000E+00 -0.30559480502E+03  0.30559480502E+03  0.00000000000E+00 0. -1.
          6    2    1    2  501    0 -0.10945354570E+03  0.54729621164E+02 -0.22187263282E+03  0.30652677739E+03  0.17249866655E+03 0.  0.
         24    2    3    3    0    0 -0.38104381512E+02 -0.12360805952E+02 -0.35262341310E+02  0.95725165583E+02  0.79467862668E+02 0.  0.
         -6    2    1    2    0  502  0.10945354570E+03 -0.54729621164E+02  0.22716214277E+03  0.30995234260E+03  0.17173353045E+03 0.  0.
        -24    2    5    5    0    0  0.89301007193E+02 -0.33150945427E+02  0.55645849397E+02  0.13584980688E+03  0.79278335033E+02 0.  0.
          5    1    3    3  501    0 -0.71349164187E+02  0.67090427116E+02 -0.18661029151E+03  0.21080161180E+03  0.47000000000E+01 0. -1.
        -11    1    4    4    0    0 -0.21252398220E+02  0.22863004700E+02  0.12854233465E+02  0.33758150601E+02  0.00000000000E+00 0.  1.
         12    1    4    4    0    0 -0.16851983292E+02 -0.35223810652E+02 -0.48116574775E+02  0.61967014982E+02  0.00000000000E+00 0. -1.
         -5    1    5    5    0  502  0.20152538505E+02 -0.21578675737E+02  0.17151629337E+03  0.17410253573E+03  0.47000000000E+01 0.  1.
         11    1    6    6    0    0 -0.19845716277E+01  0.18223224826E+02  0.28615209308E+01  0.18552971451E+02  0.00000000000E+00 0. -1.
        -12    1    6    6    0    0  0.91285578821E+02 -0.51374170254E+02  0.52784328466E+02  0.11729683543E+03  0.00000000000E+00 0.  1.
</event>
<event>
12    1  0.8493057E-002  0.1818343E+03  0.7818608E-02  0.1166090E+00
         21   -1    0    0  501  502  0.00000000000E+00  0.00000000000E+00  0.12197233996E+03  0.12197233996E+03  0.00000000000E+00 0.  1.
         21   -1    0    0  502  503 -0.00000000000E+00 -0.00000000000E+00 -0.27205165637E+03  0.27205165637E+03  0.00000000000E+00 0.  1.
         -6    2    1    2    0  503  0.35440402404E+02 -0.46399966350E+02 -0.61413701980E+02  0.19172400578E+03  0.17198102396E+03 0.  0.
        -24    2    3    3    0    0  0.22768975909E+02 -0.54561521991E+02 -0.93944435832E+02  0.15556443326E+03  0.10899243059E+03 0.  0.
          6    2    1    2  501    0 -0.35440402404E+02  0.46399966350E+02 -0.88665614426E+02  0.20229999055E+03  0.17220544705E+03 0.  0.
         24    2    5    5    0    0 -0.51397939617E+02  0.92930154618E+02 -0.70237636866E+02  0.14956118348E+03  0.78469485388E+02 0.  0.
          5    1    5    5  501    0  0.15957537213E+02 -0.46530188268E+02 -0.18427977560E+02  0.52738807069E+02  0.47000000000E+01 0. -1.
        -11    1    6    6    0    0  0.44833914806E+01 -0.76829173843E+01  0.66885262930E+01  0.11129438561E+02  0.00000000000E+00 0.  1.
         12    1    6    6    0    0 -0.55881331098E+02  0.10061307200E+03 -0.76926163159E+02  0.13843174492E+03  0.00000000000E+00 0. -1.
         -5    1    3    3    0  503  0.12671426495E+02  0.81615556412E+01  0.32530733852E+02  0.36159572520E+02  0.47000000000E+01 0.  1.
         13    1    4    4    0    0  0.16340765014E+02 -0.39468628935E+02  0.15088691265E+02  0.45304104398E+02  0.00000000000E+00 0. -1.
        -14    1    4    4    0    0  0.64282108948E+01 -0.15092893057E+02 -0.10903312710E+03  0.11026032886E+03  0.00000000000E+00 0.  1.
</event>
<event>
12    1  0.8493057E-002  0.1801708E+03  0.7818608E-02  0.1168350E+00
         21   -1    0    0  503  502  0.00000000000E+00  0.00000000000E+00  0.16465214962E+03  0.16465214962E+03  0.00000000000E+00 0. -1.
         21   -1    0    0  501  503 -0.00000000000E+00 -0.00000000000E+00 -0.20808323056E+03  0.20808323056E+03  0.00000000000E+00 0. -1.
          6    2    1    2  501    0  0.46702188477E+02  0.11592538943E+02  0.26990463490E+02  0.17929104174E+03  0.17059106413E+03 0.  0.
         24    2    3    3    0    0 -0.13937600545E+01 -0.14158281045E+02  0.71860985836E+02  0.10849712413E+03  0.80032650643E+02 0.  0.
         -6    2    1    2    0  502 -0.46702188477E+02 -0.11592538943E+02 -0.70421544429E+02  0.19344433844E+03  0.17362614085E+03 0.  0.
        -24    2    5    5    0    0 -0.92007794011E+01 -0.20170315496E+02  0.28669145262E+02  0.87044203490E+02  0.79140871251E+02 0.  0.
          5    1    3    3  501    0  0.48095948531E+02  0.25750819988E+02 -0.44870522346E+02  0.70793917612E+02  0.47000000000E+01 0. -1.
        -13    1    4    4    0    0 -0.30715700431E+02  0.16017001291E+02  0.14969085700E+02  0.37736879972E+02  0.00000000000E+00 0.  1.
         14    1    4    4    0    0  0.29321940377E+02 -0.30175282337E+02  0.56891900136E+02  0.70760244153E+02  0.00000000000E+00 0. -1.
         -5    1    5    5    0  502 -0.37501409076E+02  0.85777765522E+01 -0.99090689690E+02  0.10640013495E+03  0.47000000000E+01 0.  1.
         11    1    6    6    0    0 -0.16911319955E+02  0.15624803804E+02  0.42147256667E+02  0.48026227013E+02  0.00000000000E+00 0. -1.
        -12    1    6    6    0    0  0.77105405539E+01 -0.35795119299E+02 -0.13478111405E+02  0.39017976477E+02  0.00000000000E+00 0.  1.
</event>
<event>
12    1  0.8493057E-002  0.1854240E+03  0.7818608E-02  0.1162828E+00
         21   -1    0    0  503  502  0.00000000000E+00  0.00000000000E+00  0.11785255933E+03  0.11785255933E+03  0.00000000000E+00 0.  1.
         21   -1    0    0  501  503 -0.00000000000E+00 -0.00000000000E+00 -0.33325216208E+03  0.33325216208E+03  0.00000000000E+00 0.  1.
          6    2    1    2  501    0 -0.23242755956E+02  0.64755292614E+02 -0.18823338352E+03  0.26370125201E+03  0.17138573458E+03 0.  0.
         24    2    3    3    0    0  0.10768009046E+02  0.26191849089E+02 -0.19340792533E+03  0.21180966122E+03  0.81576614471E+02 0.  0.
         -6    2    1    2    0  502  0.23242755956E+02 -0.64755292614E+02 -0.27166219229E+02  0.18740346939E+03  0.17218763964E+03 0.  0.
        -24    2    5    5    0    0  0.19480236297E+02 -0.10044974283E+03 -0.55847976423E+02  0.14121923478E+03  0.79713520564E+02 0.  0.
          5    1    3    3  501    0 -0.34010765001E+02  0.38563443525E+02  0.51745418058E+01  0.51891590796E+02  0.47000000000E+01 0. -1.
        -13    1    4    4    0    0 -0.17787502613E+02 -0.22926665133E+02 -0.54787674266E+02  0.61997713465E+02  0.00000000000E+00 0.  1.
         14    1    4    4    0    0  0.28555511659E+02  0.49118514222E+02 -0.13862025106E+03  0.14981194775E+03  0.00000000000E+00 0. -1.
         -5    1    5    5    0  502  0.37625196587E+01  0.35694450218E+02  0.28681757193E+02  0.46184234607E+02  0.47000000000E+01 0.  1.
         13    1    6    6    0    0 -0.17678370418E+02 -0.87486027746E+02 -0.47036353171E+02  0.10088978318E+03  0.00000000000E+00 0. -1.
        -14    1    6    6    0    0  0.37158606715E+02 -0.12963715086E+02 -0.88116232520E+01  0.40329451598E+02  0.00000000000E+00 0.  1.
</event>
<event>
12    1  0.8493057E-002  0.1907498E+03  0.7818608E-02  0.1158300E+00
         21   -1    0    0  503  502  0.00000000000E+00  0.00000000000E+00  0.43511456233E+03  0.43511456233E+03  0.00000000000E+00 0. -1.
         21   -1    0    0  501  503 -0.00000000000E+00 -0.00000000000E+00 -0.21782929570E+03  0.21782929570E+03  0.00000000000E+00 0. -1.
          6    2    1    2  501    0  0.75225949785E+02  0.87790402644E+01 -0.14880553520E+03  0.24013884514E+03  0.17259073721E+03 0.  0.
         24    2    3    3    0    0  0.75980070422E+02 -0.54570914508E+02 -0.10911832796E+03  0.16523257113E+03  0.81510964009E+02 0.  0.
         -6    2    1    2    0  502 -0.75225949785E+02 -0.87790402644E+01  0.36609080183E+03  0.41280501289E+03  0.17506995291E+03 0.  0.
        -24    2    5    5    0    0 -0.82087686394E+02  0.18086684026E+02  0.36609483314E+03  0.38468134693E+03  0.82998767648E+02 0.  0.
          5    1    3    3  501    0 -0.75412063746E+00  0.63349954772E+02 -0.39687207238E+02  0.74906274009E+02  0.47000000000E+01 0. -1.
        -13    1    4    4    0    0 -0.10186656992E+02 -0.26464122988E+02 -0.80504039067E+01  0.29477564167E+02  0.00000000000E+00 0.  1.
         14    1    4    4    0    0  0.86166727414E+02 -0.28106791520E+02 -0.10106792405E+03  0.13575500696E+03  0.00000000000E+00 0. -1.
         -5    1    5    5    0  502  0.68617366095E+01 -0.26865724290E+02 -0.40313013292E-02  0.28123665963E+02  0.47000000000E+01 0.  1.
         11    1    6    6    0    0 -0.57056456041E+01 -0.15807024693E+02  0.17882719611E+03  0.17961509538E+03  0.00000000000E+00 0. -1.
        -12    1    6    6    0    0 -0.76382040790E+02  0.33893708719E+02  0.18726763703E+03  0.20506625155E+03  0.00000000000E+00 0.  1.
</event>
<event>
12    1  0.8493057E-002  0.1848574E+03  0.7818608E-02  0.1164566E+00
         21   -1    0    0  501  502  0.00000000000E+00  0.00000000000E+00  0.72464532764E+02  0.72464532764E+02  0.00000000000E+00 0. -1.
         21   -1    0    0  502  503 -0.00000000000E+00 -0.00000000000E+00 -0.45704939615E+03  0.45704939615E+03  0.00000000000E+00 0. -1.
         -6    2    1    2    0  503  0.48320261907E+02  0.58479666540E+01 -0.18983431630E+03  0.26497042612E+03  0.17833455260E+03 0.  0.
        -24    2    3    3    0    0  0.29372984656E+02 -0.53249385199E+02 -0.18247436470E+03  0.20229862067E+03  0.62686273601E+02 0.  0.
          6    2    1    2  501    0 -0.48320261907E+02 -0.58479666540E+01 -0.19475054709E+03  0.26454350279E+03  0.17229754164E+03 0.  0.
         24    2    5    5    0    0  0.22552815109E+01 -0.41803967370E+02 -0.46450927097E+02  0.10371568533E+03  0.82744164589E+02 0.  0.
          5    1    5    5  501    0 -0.50575543418E+02  0.35956000716E+02 -0.14829961999E+03  0.16082781746E+03  0.47000000000E+01 0. -1.
        -11    1    6    6    0    0 -0.24645021871E+02 -0.68005172065E+01 -0.53230880962E+02  0.59052102632E+02  0.00000000000E+00 0.  1.
         12    1    6    6    0    0  0.26900303381E+02 -0.35003450164E+02  0.67799538644E+01  0.44663582702E+02  0.00000000000E+00 0. -1.
         -5    1    3    3    0  503  0.18947277251E+02  0.59097351853E+02 -0.73599515930E+01  0.62671805453E+02  0.47000000000E+01 0.  1.
         13    1    4    4    0    0  0.28592034474E+02 -0.23433141869E+02 -0.16189363932E+03  0.16606073294E+03  0.00000000000E+00 0. -1.
        -14    1    4    4    0    0  0.78095018219E+00 -0.29816243330E+02 -0.20580725387E+02  0.36237887728E+02  0.00000000000E+00 0.  1.
</event>
<event>
12    1  0.8493057E-002  0.2159855E+03  0.7818608E-02  0.1137019E+00
         21   -1    0    0  501  502  0.00000000000E+00  0.00000000000E+00  0.78665368686E+02  0.78665368686E+02  0.00000000000E+00 0. -1.
         21   -1    0    0  502  503 -0.00000000000E+00 -0.00000000000E+00 -0.59468794511E+03  0.59468794511E+03  0.00000000000E+00 0. -1.
         -6    2    1    2    0  503 -0.24531723666E+02  0.12644870206E+03 -0.28243340692E+03  0.35521237519E+03  0.17267345605E+03 0.  0.
        -24    2    3    3    0    0 -0.38233842366E+02  0.56521898075E+02 -0.25911377937E+03  0.28008980201E+03  0.81570796636E+02 0.  0.
          6    2    1    2  501    0  0.24531723666E+02 -0.12644870206E+03 -0.23358916950E+03  0.31814093860E+03  0.17337438389E+03 0.  0.
         24    2    5    5    0    0  0.51820003675E+02 -0.15148152989E+02 -0.73834843591E+02  0.12147879914E+03  0.79942073988E+02 0.  0.
          5    1    5    5  501    0 -0.27288280009E+02 -0.11130054907E+03 -0.15975432591E+03  0.19666213946E+03  0.47000000000E+01 0. -1.
        -13    1    6    6    0    0  0.70839276505E+01  0.25345985382E+01  0.17056879085E+02  0.18642514445E+02  0.00000000000E+00 0.  1.
         14    1    6    6    0    0  0.44736076024E+02 -0.17682751527E+02 -0.90891722676E+02  0.10283628470E+03  0.00000000000E+00 0. -1.
         -5    1    3    3    0  503  0.13702118700E+02  0.69926803989E+02 -0.23319627553E+02  0.75122573186E+02  0.47000000000E+01 0.  1.
         13    1    4    4    0    0  0.24726660022E+02  0.25421082046E+02 -0.72711801077E+02  0.80898981106E+02  0.00000000000E+00 0. -1.
        -14    1    4    4    0    0 -0.62960502388E+02  0.31100816028E+02 -0.18640197830E+03  0.19919082090E+03  0.00000000000E+00 0.  1.
</event>
<event>
12    1  0.8493057E-002  0.2071000E+03  0.7818608E-02  0.1143952E+00
         21   -1    0    0  503  502  0.00000000000E+00  0.00000000000E+00  0.95275841379E+02  0.95275841379E+02  0.00000000000E+00 0.  1.
         21   -1    0    0  501  503 -0.00000000000E+00 -0.00000000000E+00 -0.49769702651E+03  0.49769702651E+03  0.00000000000E+00 0.  1.
          6    2    1    2  501    0 -0.55876612710E+02  0.10138409952E+03 -0.29369488934E+03  0.35937042068E+03  0.17172501202E+03 0.  0.
         24    2    3    3    0    0 -0.12154840630E+02  0.11271534426E+03 -0.27912774031E+03  0.31168098483E+03  0.79876479078E+02 0.  0.
         -6    2    1    2    0  502  0.55876612710E+02 -0.10138409952E+03 -0.10872629579E+03  0.23360244721E+03  0.17131189236E+03 0.  0.
        -24    2    5    5    0    0  0.16570905009E+01  0.51530003086E+01 -0.12164631523E+02  0.79861902021E+02  0.78744179297E+02 0.  0.
          5    1    3    3  501    0 -0.43721772080E+02 -0.11331244738E+02 -0.14567149029E+02  0.47689435852E+02  0.47000000000E+01 0. -1.
        -13    1    4    4    0    0 -0.26351881855E+02  0.97767387656E+02 -0.15037666102E+03  0.18128988926E+03  0.00000000000E+00 0.  1.
         14    1    4    4    0    0  0.14197041225E+02  0.14947956602E+02 -0.12875107929E+03  0.13039109557E+03  0.00000000000E+00 0. -1.
         -5    1    5    5    0  502  0.54219522209E+02 -0.10653709983E+03 -0.96561664271E+02  0.15374054519E+03  0.47000000000E+01 0.  1.
         11    1    6    6    0    0 -0.30279261140E+02 -0.21644447633E+02 -0.66451648958E+01  0.37808385115E+02  0.00000000000E+00 0. -1.
        -12    1    6    6    0    0  0.31936351641E+02  0.26797447941E+02 -0.55194666276E+01  0.42053516906E+02  0.00000000000E+00 0.  1.
</event>
<event>
12    1  0.8493057E-002  0.1878179E+03  0.7818608E-02  0.1160456E+00
         21   -1    0    0  503  502  0.00000000000E+00  0.00000000000E+00  0.15310681620E+03  0.15310681620E+03  0.00000000000E+00 0. -1.
         21   -1    0    0  501  503 -0.00000000000E+00 -0.00000000000E+00 -0.24031443837E+03  0.24031443837E+03  0.00000000000E+00 0.  1.
          6    2    1    2  501    0  0.33092486199E+02  0.70396914934E+02 -0.83697033114E+02  0.20562286780E+03  0.17095242652E+03 0.  0.
         24    2    3    3    0    0  0.74838124016E+02  0.30492738275E+02 -0.11370477028E+02  0.11294998985E+03  0.78088799232E+02 0.  0.
         -6    2    1    2    0  502 -0.33092486199E+02 -0.70396914934E+02 -0.35105890550E+01  0.18779838677E+03  0.17089491380E+03 0.  0.
        -24    2    5    5    0    0 -0.79202779157E+02 -0.82526776058E+02 -0.12626960012E+01  0.13983552957E+03  0.80427805738E+02 0.  0.
          5    1    3    3  501    0 -0.41745637817E+02  0.39904176659E+02 -0.72326556086E+02  0.92672877946E+02  0.47000000000E+01 0. -1.
        -11    1    4    4    0    0 -0.54777602304E+01 -0.98473350399E+01 -0.19691970391E+02  0.22688092966E+02  0.00000000000E+00 0.  1.
         12    1    4    4    0    0  0.80315884247E+02  0.40340073315E+02  0.83214933631E+01  0.90261896884E+02  0.00000000000E+00 0. -1.
         -5    1    5    5    0  502  0.46110292958E+02  0.12129861124E+02 -0.22478930538E+01  0.47962857200E+02  0.47000000000E+01 0.  1.
         13    1    6    6    0    0 -0.50485095228E+02 -0.32097417330E+02  0.36983282968E+02  0.70333151917E+02  0.00000000000E+00 0. -1.
        -14    1    6    6    0    0 -0.28717683929E+02 -0.50429358728E+02 -0.38245978969E+02  0.69502377652E+02  0.00000000000E+00 0.  1.
</event>
<event>
12    1  0.8493057E-002  0.3408269E+03  0.7818608E-02  0.1066771E+00
         21   -1    0    0  501  502  0.00000000000E+00  0.00000000000E+00  0.13881672691E+03  0.13881672691E+03  0.00000000000E+00 0.  1.
         21   -1    0    0  502  503 -0.00000000000E+00 -0.00000000000E+00 -0.83014208764E+03  0.83014208764E+03  0.00000000000E+00 0.  1.
         -6    2    1    2    0  503  0.29407883898E+03 -0.52207948770E+01 -0.36256147891E+03  0.49760811093E+03  0.17220158491E+03 0.  0.
        -24    2    3    3    0    0  0.12297960892E+03 -0.43472449356E+02 -0.23691724596E+03  0.28186127116E+03  0.79386124014E+02 0.  0.
          6    2    1    2  501    0 -0.29407883898E+03  0.52207948770E+01 -0.32876388182E+03  0.47135070362E+03  0.16606075870E+03 0.  0.
         24    2    5    5    0    0 -0.63681579508E+02 -0.62346662656E+01 -0.36271781517E+02  0.98808298649E+02  0.65978959642E+02 0.  0.
          5    1    5    5  501    0 -0.23039725947E+03  0.11455461143E+02 -0.29249210031E+03  0.37254240497E+03  0.47000000000E+01 0. -1.
        -13    1    6    6    0    0 -0.75177344774E+02 -0.66405754817E+01 -0.41550436949E+02  0.86152012285E+02  0.00000000000E+00 0.  1.
         14    1    6    6    0    0  0.11495765267E+02  0.40590921612E+00  0.52786554318E+01  0.12656286364E+02  0.00000000000E+00 0. -1.
         -5    1    3    3    0  503  0.17109923006E+03  0.38251654479E+02 -0.12564423295E+03  0.21574683977E+03  0.47000000000E+01 0.  1.
         13    1    4    4    0    0  0.36431038029E+01 -0.29029380882E+02 -0.26228596168E+02  0.39292701824E+02  0.00000000000E+00 0. -1.
        -14    1    4    4    0    0  0.11933650512E+03 -0.14443068474E+02 -0.21068864979E+03  0.24256856934E+03  0.00000000000E+00 0.  1.
</event>
<event>
12    1  0.8493057E-002  0.2397681E+03  0.7818608E-02  0.1120066E+00
         21   -1    0    0  503  502  0.00000000000E+00  0.00000000000E+00  0.32489087922E+03  0.32489087922E+03  0.00000000000E+00 0. -1.
         21   -1    0    0  501  503 -0.00000000000E+00 -0.00000000000E+00 -0.67788554230E+03  0.67788554230E+03  0.00000000000E+00 0.  1.
          6    2    1    2  501    0  0.16722906953E+03 -0.96390411836E+01 -0.60780154171E+03  0.65338462938E+03  0.17155257794E+03 0.  0.
         24    2    3    3    0    0  0.77765545389E+02 -0.64151498900E+02 -0.41091226985E+03  0.43030884501E+03  0.78446884734E+02 0.  0.
         -6    2    1    2    0  502 -0.16722906953E+03  0.96390411836E+01  0.25480687863E+03  0.34939179213E+03  0.17055675361E+03 0.  0.
        -24    2    5    5    0    0 -0.10303250008E+02 -0.90971109342E+01  0.10766908458E+03  0.13340943946E+03  0.77566309536E+02 0.  0.
          5    1    3    3  501    0  0.89463524136E+02  0.54512457716E+02 -0.19688927186E+03  0.22307578437E+03  0.47000000000E+01 0. -1.
        -11    1    4    4    0    0  0.77076400715E+02 -0.37164837788E+02 -0.37885979648E+03  0.38840280908E+03  0.00000000000E+00 0.  1.
         12    1    4    4    0    0  0.68914467412E+00 -0.26986661112E+02 -0.32052473368E+02  0.41906035930E+02  0.00000000000E+00 0. -1.
         -5    1    5    5    0  502 -0.15692581952E+03  0.18736152118E+02  0.14713779405E+03  0.21598235267E+03  0.47000000000E+01 0.  1.
         13    1    6    6    0    0 -0.29062661612E+01 -0.12537776662E+02  0.11886324186E+03  0.11955798799E+03  0.00000000000E+00 0. -1.
        -14    1    6    6    0    0 -0.73969838465E+01  0.34406657276E+01 -0.11194157280E+02  0.13851451472E+02  0.00000000000E+00 0.  1.
</event>
<event>
12    1  0.8493057E-002  0.1756938E+03  0.7818608E-02  0.1172045E+00
         21   -1    0    0  503  502  0.00000000000E+00  0.00000000000E+00  0.14065175096E+04  0.14065175096E+04  0.00000000000E+00 0. -1.
         21   -1    0    0  501  503 -0.00000000000E+00 -0.00000000000E+00 -0.25214026062E+03  0.25214026062E+03  0.00000000000E+00 0. -1.
          6    2    1    2  501    0  0.30692706356E+02 -0.99067327762E+01 -0.21523758172E+03  0.27781994093E+03  0.17267459980E+03 0.  0.
         24    2    3    3    0    0 -0.29304332162E+02  0.11744850477E+02 -0.48527003637E+02  0.99261988057E+02  0.80631177561E+02 0.  0.
         -6    2    1    2    0  502 -0.30692706356E+02  0.99067327762E+01  0.13696148307E+04  0.13808378293E+04  0.17270825329E+03 0.  0.
        -24    2    5    5    0    0 -0.39213254395E+02 -0.57540727308E+02  0.89295752548E+03  0.89933389760E+03  0.81115365075E+02 0.  0.
          5    1    3    3  501    0  0.59997038518E+02 -0.21651583253E+02 -0.16671057808E+03  0.17855795287E+03  0.47000000000E+01 0. -1.
        -13    1    4    4    0    0 -0.26160340529E+02 -0.27380874933E+02 -0.46484064779E+02  0.59957017997E+02  0.00000000000E+00 0.  1.
         14    1    4    4    0    0 -0.31439916331E+01  0.39125725411E+02 -0.20429388584E+01  0.39304970061E+02  0.00000000000E+00 0. -1.
         -5    1    5    5    0  502  0.85205480392E+01  0.67447460084E+02  0.47665730526E+03  0.48150393173E+03  0.47000000000E+01 0.  1.
         11    1    6    6    0    0 -0.55970291283E+01 -0.49901289084E+02  0.22712799827E+03  0.23261253832E+03  0.00000000000E+00 0. -1.
        -12    1    6    6    0    0 -0.33616225267E+02 -0.76394382245E+01  0.66582952721E+03  0.66672135928E+03  0.00000000000E+00 0.  1.
</event>
<event>
12    1  0.8493057E-002  0.1981668E+03  0.7818608E-02  0.1152215E+00
         21   -1    0    0  503  502  0.00000000000E+00  0.00000000000E+00  0.22622008841E+03  0.22622008841E+03  0.00000000000E+00 0. -1.
         21   -1    0    0  501  503 -0.00000000000E+00 -0.00000000000E+00 -0.19764092335E+03  0.19764092335E+03  0.00000000000E+00 0.  1.
          6    2    1    2  501    0  0.85726652656E+02 -0.20602235653E+02 -0.64999361294E+02  0.20855457937E+03  0.17747277120E+03 0.  0.
         24    2    3    3    0    0  0.11603087776E+03  0.22552123720E+02 -0.66073487893E+02  0.15560282265E+03  0.76647046496E+02 0.  0.
         -6    2    1    2    0  502 -0.85726652656E+02  0.20602235653E+02  0.93578526355E+02  0.21530643240E+03  0.17270323722E+03 0.  0.
        -24    2    5    5    0    0 -0.30239878727E+02  0.23248873665E+02  0.12442661109E+03  0.15159237503E+03  0.77738704830E+02 0.  0.
          5    1    3    3  501    0 -0.30304225100E+02 -0.43154359373E+02  0.10741265991E+01  0.52951756720E+02  0.47000000000E+01 0. -1.
        -11    1    4    4    0    0 -0.16946488856E+01 -0.14311307865E+02 -0.18347172545E+02  0.23330325930E+02  0.00000000000E+00 0.  1.
         12    1    4    4    0    0  0.11772552664E+03  0.36863431585E+02 -0.47726315349E+02  0.13227249672E+03  0.00000000000E+00 0. -1.
         -5    1    5    5    0  502 -0.55486773929E+02 -0.26466380123E+01 -0.30848084735E+02  0.63714057363E+02  0.47000000000E+01 0.  1.
         13    1    6    6    0    0 -0.26328166325E+02 -0.51922802031E+01  0.11948484628E+03  0.12246126165E+03  0.00000000000E+00 0. -1.
        -14    1    6    6    0    0 -0.39117124017E+01  0.28441153868E+02  0.49417648124E+01  0.29131113379E+02  0.00000000000E+00 0.  1.
</event>
<event>
12    1  0.8493057E-002  0.1821188E+03  0.7818608E-02  0.1166787E+00
         21   -1    0    0  503  502  0.00000000000E+00  0.00000000000E+00  0.20379805131E+03  0.20379805131E+03  0.00000000000E+00 0.  1.
         21   -1    0    0  501  503 -0.00000000000E+00 -0.00000000000E+00 -0.35072360868E+03  0.35072360868E+03  0.00000000000E+00 0.  1.
          6    2    1    2  501    0  0.37945977452E+02  0.11774094187E+02 -0.27884534816E+03  0.33304953224E+03  0.17773220371E+03 0.  0.
         24    2    3    3    0    0  0.79838602813E+01 -0.35137752723E+02 -0.25961691048E+03  0.27397100263E+03  0.79754412938E+02 0.  0.
         -6    2    1    2    0  502 -0.37945977452E+02 -0.11774094187E+02  0.13191979079E+03  0.22147212775E+03  0.17340284216E+03 0.  0.
        -24    2    5    5    0    0 -0.90351451759E+02 -0.22109167035E+02  0.80539989745E+02  0.14720826424E+03  0.80816972292E+02 0.  0.
          5    1    3    3  501    0  0.29962117171E+02  0.46911846909E+02 -0.19228437684E+02  0.59078529616E+02  0.47000000000E+01 0. -1.
        -11    1    4    4    0    0  0.43066786165E+02 -0.98046826949E+01 -0.13679185456E+03  0.14374592637E+03  0.00000000000E+00 0.  1.
         12    1    4    4    0    0 -0.35082925884E+02 -0.25333070028E+02 -0.12282505592E+03  0.13022507626E+03  0.00000000000E+00 0. -1.
         -5    1    5    5    0  502  0.52405474307E+02  0.10335072848E+02  0.51379801041E+02  0.74263863508E+02  0.47000000000E+01 0.  1.
         11    1    6    6    0    0  0.31327100116E+00 -0.74291911584E+01 -0.13717063443E+02  0.15602847480E+02  0.00000000000E+00 0. -1.
        -12    1    6    6    0    0 -0.90664722760E+02 -0.14679975877E+02  0.94257053188E+02  0.13160541676E+03  0.00000000000E+00 0.  1.
</event>
<event>
12    1  0.8493057E-002  0.1726574E+03  0.7818608E-02  0.1175465E+00
         21   -1    0    0  503  502  0.00000000000E+00  0.00000000000E+00  0.10612439957E+03  0.10612439957E+03  0.00000000000E+00 0. -1.
         21   -1    0    0  501  503 -0.00000000000E+00 -0.00000000000E+00 -0.36369567457E+03  0.36369567457E+03  0.00000000000E+00 0. -1.
          6    2    1    2  501    0 -0.61159930936E+01 -0.14583599802E+02 -0.24199482948E+03  0.29646150866E+03  0.17052226208E+03 0.  0.
         24    2    3    3    0    0 -0.31867417362E+02 -0.51899557169E+02 -0.81085374509E+02  0.12922048730E+03  0.80087452545E+02 0.  0.
         -6    2    1    2    0  502  0.61159930936E+01  0.14583599802E+02 -0.15576445522E+02  0.17335856549E+03  0.17193161379E+03 0.  0.
        -24    2    5    5    0    0 -0.57954876191E+02  0.33936510646E+01 -0.37053563226E+02  0.10470255462E+03  0.78863006887E+02 0.  0.
          5    1    3    3  501    0  0.25751424268E+02  0.37315957367E+02 -0.16090945497E+03  0.16724102136E+03  0.47000000000E+01 0. -1.
        -13    1    4    4    0    0  0.10633261465E+02 -0.13247019000E+01  0.11347509803E+02  0.15607275971E+02  0.00000000000E+00 0.  1.
         14    1    4    4    0    0 -0.42500678827E+02 -0.50574855269E+02 -0.92432884312E+02  0.11361321133E+03  0.00000000000E+00 0. -1.
         -5    1    5    5    0  502  0.64070869284E+02  0.11189948737E+02  0.21477117704E+02  0.68656010869E+02  0.47000000000E+01 0.  1.
         13    1    6    6    0    0  0.13925499844E+02  0.18508289059E+02 -0.18098520411E+01  0.23232560647E+02  0.00000000000E+00 0. -1.
        -14    1    6    6    0    0 -0.71880376035E+02 -0.15114637995E+02 -0.35243711185E+02  0.81469993977E+02  0.00000000000E+00 0.  1.
</event>
<event>
12    1  0.8493057E-002  0.3212186E+03  0.7818608E-02  0.1075100E+00
         21   -1    0    0  503  502  0.00000000000E+00  0.00000000000E+00  0.72776795035E+03  0.72776795035E+03  0.00000000000E+00 0. -1.
         21   -1    0    0  501  503 -0.00000000000E+00 -0.00000000000E+00 -0.17758974141E+03  0.17758974141E+03  0.00000000000E+00 0.  1.
          6    2    1    2  501    0 -0.26772747793E+03  0.41544980718E+02  0.47850679546E+03  0.57632469789E+03  0.17256134051E+03 0.  0.
         24    2    3    3    0    0 -0.21512676745E+03 -0.25140631113E+02  0.29370268917E+03  0.37288317492E+03  0.76609497479E+02 0.  0.
         -6    2    1    2    0  502  0.26772747793E+03 -0.41544980718E+02  0.71671413491E+02  0.32903299388E+03  0.17240049793E+03 0.  0.
        -24    2    5    5    0    0  0.11690582302E+03 -0.52844023357E+02 -0.21412728896E+02  0.15137718193E+03  0.77440841873E+02 0.  0.
          5    1    3    3  501    0 -0.52600710475E+02  0.66685611831E+02  0.18480410629E+03  0.20344152297E+03  0.47000000000E+01 0. -1.
        -13    1    4    4    0    0 -0.72897784570E+02 -0.41343834615E+01  0.45453786168E+02  0.86007132256E+02  0.00000000000E+00 0.  1.
         14    1    4    4    0    0 -0.14222898288E+03 -0.21006247652E+02  0.24824890300E+03  0.28687604266E+03  0.00000000000E+00 0. -1.
         -5    1    5    5    0  502  0.15082165491E+03  0.11299042639E+02  0.93084142387E+02  0.17765581195E+03  0.47000000000E+01 0.  1.
         11    1    6    6    0    0 -0.88628928323E+01 -0.13798589578E+02 -0.99659176602E+01  0.19190400166E+02  0.00000000000E+00 0. -1.
        -12    1    6    6    0    0  0.12576871585E+03 -0.39045433779E+02 -0.11446811236E+02  0.13218678176E+03  0.00000000000E+00 0.  1.
</event>
<event>
12    1  0.8493057E-002  0.2439865E+03  0.7818608E-02  0.1117263E+00
         21   -1    0    0  501  502  0.00000000000E+00  0.00000000000E+00  0.15403764440E+03  0.15403764440E+03  0.00000000000E+00 0. -1.
         21   -1    0    0  502  503 -0.00000000000E+00 -0.00000000000E+00 -0.59103490142E+03  0.59103490142E+03  0.00000000000E+00 0.  1.
         -6    2    1    2    0  503  0.68491975984E+02  0.15857182038E+03 -0.43835373566E+03  0.50168060283E+03  0.17231731398E+03 0.  0.
        -24    2    3    3    0    0  0.31901902759E+00  0.14109715522E+03 -0.22833452897E+03  0.28013360294E+03  0.80185219281E+02 0.  0.
          6    2    1    2  501    0 -0.68491975984E+02 -0.15857182038E+03  0.13564786428E+01  0.24339194298E+03  0.17146902018E+03 0.  0.
         24    2    5    5    0    0 -0.68072485072E+02 -0.44130709206E+02 -0.41470710428E+02  0.12110865703E+03  0.79787870412E+02 0.  0.
          5    1    5    5  501    0 -0.41949091217E+00 -0.11444111117E+03  0.42827189071E+02  0.12228328595E+03  0.47000000000E+01 0. -1.
        -11    1    6    6    0    0 -0.56266289454E+02 -0.56990731690E+02 -0.44874079758E+01  0.80212066785E+02  0.00000000000E+00 0.  1.
         12    1    6    6    0    0 -0.11806195618E+02  0.12860022485E+02 -0.36983302452E+02  0.40896590243E+02  0.00000000000E+00 0. -1.
         -5    1    3    3    0  503  0.68172956957E+02  0.17474665158E+02 -0.21001920669E+03  0.22154699989E+03  0.47000000000E+01 0.  1.
         11    1    4    4    0    0  0.32692689838E+02  0.42783519829E+02 -0.47646921851E+02  0.71899031284E+02  0.00000000000E+00 0. -1.
        -12    1    4    4    0    0 -0.32373670810E+02  0.98313635391E+02 -0.18068760712E+03  0.20823457166E+03  0.00000000000E+00 0.  1.
</event>
<event>
12    1  0.8493057E-002  0.1959238E+03  0.7818608E-02  0.1153320E+00
         21   -1    0    0  503  502  0.00000000000E+00  0.00000000000E+00  0.40902915895E+03  0.40902915895E+03  0.00000000000E+00 0.  1.
         21   -1    0    0  501  503 -0.00000000000E+00 -0.00000000000E+00 -0.10470548314E+03  0.10470548314E+03  0.00000000000E+00 0.  1.
          6    2    1    2  501    0 -0.54560212086E+01 -0.92740822648E+02  0.68797823688E+02  0.20765179299E+03  0.17249782095E+03 0.  0.
         24    2    3    3    0    0  0.62668469887E+02 -0.61240229087E+02  0.59959419921E+02  0.13193230367E+03  0.78315374845E+02 0.  0.
         -6    2    1    2    0  502  0.54560212086E+01  0.92740822648E+02  0.23552585213E+03  0.30608284910E+03  0.17199899750E+03 0.  0.
        -24    2    5    5    0    0 -0.47606496915E+02  0.27321518443E+02  0.18434159333E+03  0.20740542240E+03  0.77603751773E+02 0.  0.
          5    1    3    3  501    0 -0.68124491095E+02 -0.31500593561E+02  0.88384037668E+01  0.75719489320E+02  0.47000000000E+01 0. -1.
        -13    1    4    4    0    0  0.30333896737E+02 -0.59490021264E+02  0.35284329014E+01  0.66870455060E+02  0.00000000000E+00 0.  1.
         14    1    4    4    0    0  0.32334573149E+02 -0.17502078237E+01  0.56430987020E+02  0.65061848607E+02  0.00000000000E+00 0. -1.
         -5    1    5    5    0  502  0.53062518124E+02  0.65419304206E+02  0.51184258795E+02  0.98677426704E+02  0.47000000000E+01 0.  1.
         11    1    6    6    0    0 -0.29005554734E+02 -0.31953960441E+01  0.12260181979E+02  0.31651932381E+02  0.00000000000E+00 0. -1.
        -12    1    6    6    0    0 -0.18600942181E+02  0.30516914487E+02  0.17208141135E+03  0.17575349002E+03  0.00000000000E+00 0.  1.
</event>
<event>
12    1  0.8493057E-002  0.2218234E+03  0.7818608E-02  0.1132687E+00
         21   -1    0    0  503  502  0.00000000000E+00  0.00000000000E+00  0.74254880496E+02  0.74254880496E+02  0.00000000000E+00 0.  1.
         21   -1    0    0  501  503 -0.00000000000E+00 -0.00000000000E+00 -0.98260111844E+03  0.98260111844E+03  0.00000000000E+00 0. -1.
          6    2    1    2  501    0  0.13569446750E+03 -0.34208772297E+02 -0.75747435094E+03  0.78928640420E+03  0.17211161177E+03 0.  0.
         24    2    3    3    0    0  0.34946635309E+02  0.36739798579E+02 -0.28783767637E+03  0.30373051503E+03  0.82647551113E+02 0.  0.
         -6    2    1    2    0  502 -0.13569446750E+03  0.34208772297E+02 -0.15087188700E+03  0.26756959474E+03  0.17102027110E+03 0.  0.
        -24    2    5    5    0    0 -0.93422230607E+02  0.87056985644E+02 -0.12387526478E+03  0.19455738153E+03  0.78745549486E+02 0.  0.
          5    1    3    3  501    0  0.10074783219E+03 -0.70948570876E+02 -0.46963667457E+03  0.48555588917E+03  0.47000000000E+01 0. -1.
        -11    1    4    4    0    0 -0.16788401514E+02 -0.12385101506E+02 -0.32553187819E+02  0.38664598820E+02  0.00000000000E+00 0.  1.
         12    1    4    4    0    0  0.51735036823E+02  0.49124900084E+02 -0.25528448855E+03  0.26506591622E+03  0.00000000000E+00 0. -1.
         -5    1    5    5    0  502 -0.42272236892E+02 -0.52848213347E+02 -0.26996622227E+02  0.73012213208E+02  0.47000000000E+01 0.  1.
         11    1    6    6    0    0  0.10108932145E+02  0.21096411375E+02 -0.55190942529E+01  0.24035587852E+02  0.00000000000E+00 0. -1.
        -12    1    6    6    0    0 -0.10353116275E+03  0.65960574269E+02 -0.11835617052E+03  0.17052179368E+03  0.00000000000E+00 0.  1.
</event>
<event>
12    1  0.8493057E-002  0.2358248E+03  0.7818608E-02  0.1123013E+00
         21   -1    0    0  503  502  0.00000000000E+00  0.00000000000E+00  0.30908978809E+03  0.30908978809E+03  0.00000000000E+00 0.  1.
         21   -1    0    0  501  503 -0.00000000000E+00 -0.00000000000E+00 -0.26253128581E+03  0.26253128581E+03  0.00000000000E+00 0.  1.
          6    2    1    2  501    0 -0.61308338644E+02  0.14654313587E+03 -0.13870563133E+03  0.27359205098E+03  0.17429789195E+03 0.  0.
         24    2    3    3    0    0  0.33999160959E+02  0.51893891853E+02 -0.61584247744E+02  0.11863464819E+03  0.80203748189E+02 0.  0.
         -6    2    1    2    0  502  0.61308338644E+02 -0.14654313587E+03  0.18526413361E+03  0.29802902292E+03  0.17106985778E+03 0.  0.
        -24    2    5    5    0    0  0.56322984176E+02 -0.15966697825E+03  0.20089336210E+03  0.27650109266E+03  0.86191001952E+02 0.  0.
          5    1    3    3  501    0 -0.95307499603E+02  0.94649244016E+02 -0.77121383583E+02  0.15495740279E+03  0.47000000000E+01 0. -1.
        -13    1    4    4    0    0  0.14609734231E+02  0.11020336037E+02  0.18899758235E+02  0.26307660520E+02  0.00000000000E+00 0.  1.
         14    1    4    4    0    0  0.19389426728E+02  0.40873555815E+02 -0.80484005979E+02  0.92326987670E+02  0.00000000000E+00 0. -1.
         -5    1    5    5    0  502  0.49853544675E+01  0.13123842379E+02 -0.15629228489E+02  0.21527930256E+02  0.47000000000E+01 0.  1.
         13    1    6    6    0    0 -0.10032850183E+02  0.53069174624E+01  0.18986322543E+02  0.22120169517E+02  0.00000000000E+00 0. -1.
        -14    1    6    6    0    0  0.66355834359E+02 -0.16497389571E+03  0.18190703956E+03  0.25438092314E+03  0.00000000000E+00 0.  1.
</event>
<event>
12    1  0.8493057E-002  0.3210969E+03  0.7818608E-02  0.1075260E+00
         21   -1    0    0  503  502  0.00000000000E+00  0.00000000000E+00  0.10818822112E+03  0.10818822112E+03  0.00000000000E+00 0. -1.
         21   -1    0    0  501  503 -0.00000000000E+00 -0.00000000000E+00 -0.18524364231E+04  0.18524364231E+04  0.00000000000E+00 0.  1.
          6    2    1    2  501    0 -0.23758296229E+03 -0.13143889583E+03 -0.15556403480E+04  0.15882322266E+04  0.16953721178E+03 0.  0.
         24    2    3    3    0    0 -0.18778960826E+03 -0.35301625926E+02 -0.88482097958E+03  0.90871587821E+03  0.79657012489E+02 0.  0.
         -6    2    1    2    0  502  0.23758296229E+03  0.13143889583E+03 -0.18860785398E+03  0.37239241756E+03  0.17140986777E+03 0.  0.
        -24    2    5    5    0    0  0.13480899867E+03  0.14961721707E+03 -0.13576646020E+03  0.25531448686E+03  0.78703098539E+02 0.  0.
          5    1    3    3  501    0 -0.49793354027E+02 -0.96137269901E+02 -0.67081936838E+03  0.67951634841E+03  0.47000000000E+01 0. -1.
        -11    1    4    4    0    0 -0.81860791368E+02  0.23392361083E+02 -0.40458212685E+03  0.41344296957E+03  0.00000000000E+00 0.  1.
         12    1    4    4    0    0 -0.10592881689E+03 -0.58693987009E+02 -0.48023885273E+03  0.49527290864E+03  0.00000000000E+00 0. -1.
         -5    1    5    5    0  502  0.10277396362E+03 -0.18178321242E+02 -0.52841393779E+02  0.11707793070E+03  0.47000000000E+01 0.  1.
         13    1    6    6    0    0  0.56173175125E+02  0.10869637505E+03 -0.50656674670E+02  0.13242517224E+03  0.00000000000E+00 0. -1.
        -14    1    6    6    0    0  0.78635823547E+02  0.40920842018E+02 -0.85109785530E+02  0.12288931463E+03  0.00000000000E+00 0.  1.
</event>
<event>
12    1  0.8493057E-002  0.2256208E+03  0.7818608E-02  0.1131716E+00
         21   -1    0    0  503  502  0.00000000000E+00  0.00000000000E+00  0.15392295001E+03  0.15392295001E+03  0.00000000000E+00 0.  1.
         21   -1    0    0  501  503 -0.00000000000E+00 -0.00000000000E+00 -0.44467699466E+03  0.44467699466E+03  0.00000000000E+00 0. -1.
          6    2    1    2  501    0  0.60006733194E+02 -0.13086156586E+03 -0.30424494623E+03  0.37257612017E+03  0.15975738033E+03 0.  0.
         24    2    3    3    0    0 -0.90636014403E+01 -0.57709850568E+02 -0.75067468176E+02  0.12224375905E+03  0.76784348182E+02 0.  0.
         -6    2    1    2    0  502 -0.60006733194E+02  0.13086156586E+03  0.13490901580E+02  0.22602382450E+03  0.17372163759E+03 0.  0.
        -24    2    5    5    0    0 -0.26763595904E+01  0.96957947815E+02  0.66063394978E+02  0.14104039013E+03  0.78230511615E+02 0.  0.
          5    1    3    3  501    0  0.69070334634E+02 -0.73151715290E+02 -0.22917747805E+03  0.25033236112E+03  0.47000000000E+01 0. -1.
        -11    1    4    4    0    0 -0.43891226197E+01 -0.19063603932E+02  0.14653339748E+02  0.24441885321E+02  0.00000000000E+00 0.  1.
         12    1    4    4    0    0 -0.46744788207E+01 -0.38646246636E+02 -0.89720807924E+02  0.97801873734E+02  0.00000000000E+00 0. -1.
         -5    1    5    5    0  502 -0.57330373603E+02  0.33903618043E+02 -0.52572493398E+02  0.84983434362E+02  0.47000000000E+01 0.  1.
         11    1    6    6    0    0  0.43659556880E+01  0.13457320592E+02 -0.17631279773E+02  0.22605819450E+02  0.00000000000E+00 0. -1.
        -12    1    6    6    0    0 -0.70423152783E+01  0.83500627224E+02  0.83694674751E+02  0.11843457068E+03  0.00000000000E+00 0.  1.
</event>
<event>
12    1  0.8493057E-002  0.2668348E+03  0.7818608E-02  0.1103109E+00
         21   -1    0    0  503  502  0.00000000000E+00  0.00000000000E+00  0.44705261824E+03  0.44705261824E+03  0.00000000000E+00 0.  1.
         21   -1    0    0  501  503 -0.00000000000E+00 -0.00000000000E+00 -0.16293733822E+03  0.16293733822E+03  0.00000000000E+00 0.  1.
          6    2    1    2  501    0 -0.13923212067E+03 -0.14853527343E+03  0.96174747109E+02  0.28361214136E+03  0.17244695958E+03 0.  0.
         24    2    3    3    0    0 -0.58825967869E+02 -0.65633346440E+01  0.13225877784E+02  0.10051712304E+03  0.80157322340E+02 0.  0.
         -6    2    1    2    0  502  0.13923212067E+03  0.14853527343E+03  0.18794053292E+03  0.32637781510E+03  0.17248919791E+03 0.  0.
        -24    2    5    5    0    0  0.64539542307E+02  0.42525437033E+02  0.17940973099E+02  0.11251101774E+03  0.79768949348E+02 0.  0.
          5    1    3    3  501    0 -0.80406152802E+02 -0.14197193878E+03  0.82948869325E+02  0.18309501832E+03  0.47000000000E+01 0. -1.
        -11    1    4    4    0    0 -0.58089298362E+02 -0.28686807877E+02  0.31289204960E+02  0.71946604350E+02  0.00000000000E+00 0.  1.
         12    1    4    4    0    0 -0.73666950697E+00  0.22123473233E+02 -0.18063327176E+02  0.28570518695E+02  0.00000000000E+00 0. -1.
         -5    1    5    5    0  502  0.74692578364E+02  0.10600983639E+03  0.16999955982E+03  0.21386679736E+03  0.47000000000E+01 0.  1.
         13    1    6    6    0    0  0.16219259620E+02 -0.21925034884E+02 -0.70540083808E+01  0.28169674679E+02  0.00000000000E+00 0. -1.
        -14    1    6    6    0    0  0.48320282687E+02  0.64450471917E+02  0.24994981480E+02  0.84341343056E+02  0.00000000000E+00 0.  1.
</event>
<event>
12    1  0.8493057E-002  0.2091716E+03  0.7818608E-02  0.1142485E+00
         21   -1    0    0  501  502  0.00000000000E+00  0.00000000000E+00  0.17997882769E+03  0.17997882769E+03  0.00000000000E+00 0. -1.
         21   -1    0    0  502  503 -0.00000000000E+00 -0.00000000000E+00 -0.35236248848E+03  0.35236248848E+03  0.00000000000E+00 0. -1.
         -6    2    1    2    0  503 -0.11363077649E+03  0.25458648277E+02 -0.23562282157E+03  0.31507282681E+03  0.17376039830E+03 0.  0.
        -24    2    3    3    0    0 -0.90746539047E+02 -0.20824529694E+02 -0.69472705213E+02  0.14102176520E+03  0.79950522845E+02 0.  0.
          6    2    1    2  501    0  0.11363077649E+03 -0.25458648277E+02  0.63239160773E+02  0.21726848936E+03  0.17218103518E+03 0.  0.
         24    2    5    5    0    0  0.65499349954E+02 -0.45300260660E+02 -0.23966338068E+02  0.11559640454E+03  0.80286144028E+02 0.  0.
          5    1    5    5  501    0  0.48131426535E+02  0.19841612383E+02  0.87205498841E+02  0.10167208481E+03  0.47000000000E+01 0. -1.
        -11    1    6    6    0    0 -0.14255063069E+01  0.18179065828E+02  0.50095999827E+01  0.18910489010E+02  0.00000000000E+00 0.  1.
         12    1    6    6    0    0  0.66924856261E+02 -0.63479326487E+02 -0.28975938050E+02  0.96685915534E+02  0.00000000000E+00 0. -1.
         -5    1    3    3    0  503 -0.22884237443E+02  0.46283177971E+02 -0.16615011635E+03  0.17405106162E+03  0.47000000000E+01 0.  1.
         13    1    4    4    0    0 -0.26945824194E+02  0.23820567596E+02 -0.48494528413E+02  0.60375625612E+02  0.00000000000E+00 0. -1.
        -14    1    4    4    0    0 -0.63800714852E+02 -0.44645097290E+02 -0.20978176800E+02  0.80646139583E+02  0.00000000000E+00 0.  1.
</event>
<event>
12    1  0.8493057E-002  0.6143889E+03  0.7818608E-02  0.9876855E-01
         21   -1    0    0  503  502  0.00000000000E+00  0.00000000000E+00  0.18900616680E+04  0.18900616680E+04  0.00000000000E+00 0.  1.
         21   -1    0    0  501  503 -0.00000000000E+00 -0.00000000000E+00 -0.19949756729E+03  0.19949756729E+03  0.00000000000E+00 0.  1.
          6    2    1    2  501    0 -0.56707613231E+03 -0.16007142088E+03  0.88699434956E+03  0.10780267299E+04  0.16788226399E+03 0.  0.
         24    2    3    3    0    0 -0.16321001431E+03 -0.56158754253E+02  0.34986239594E+03  0.39799841491E+03  0.78789134602E+02 0.  0.
         -6    2    1    2    0  502  0.56707613231E+03  0.16007142088E+03  0.80356975110E+03  0.10115325054E+04  0.17399846236E+03 0.  0.
        -24    2    5    5    0    0  0.21166898901E+03  0.11083480221E+03  0.28334170526E+03  0.37955324003E+03  0.81792577850E+02 0.  0.
          5    1    3    3  501    0 -0.40386611800E+03 -0.10391266663E+03  0.53713195362E+03  0.68002831496E+03  0.47000000000E+01 0. -1.
        -11    1    4    4    0    0 -0.16523947512E+03 -0.37328830642E+02  0.32729515079E+03  0.36853716430E+03  0.00000000000E+00 0.  1.
         12    1    4    4    0    0  0.20294608117E+01 -0.18829923611E+02  0.22567245143E+02  0.29461250614E+02  0.00000000000E+00 0. -1.
         -5    1    5    5    0  502  0.35540714330E+03  0.49236618672E+02  0.52022804585E+03  0.63197926534E+03  0.47000000000E+01 0.  1.
         11    1    6    6    0    0  0.33671376336E+02  0.37812577980E+02  0.22431329084E+02  0.55377948340E+02  0.00000000000E+00 0. -1.
        -12    1    6    6    0    0  0.17799761267E+03  0.73022224230E+02  0.26091037617E+03  0.32417529169E+03  0.00000000000E+00 0.  1.
</event>
<event>
12    1  0.8493057E-002  0.2146786E+03  0.7818608E-02  0.1138231E+00
         21   -1    0    0  503  502  0.00000000000E+00  0.00000000000E+00  0.11480007270E+03  0.11480007270E+03  0.00000000000E+00 0.  1.
         21   -1    0    0  501  503 -0.00000000000E+00 -0.00000000000E+00 -0.43024065572E+03  0.43024065572E+03  0.00000000000E+00 0.  1.
          6    2    1    2  501    0 -0.10192185631E+03  0.76020204458E+02 -0.23131418102E+03  0.31446722620E+03  0.17092761548E+03 0.  0.
         24    2    3    3    0    0 -0.10741535981E+03  0.96075291010E+02 -0.12575573935E+03  0.20677758099E+03  0.78574429401E+02 0.  0.
         -6    2    1    2    0  502  0.10192185631E+03 -0.76020204458E+02 -0.84126402006E+02  0.23057350222E+03  0.17297327000E+03 0.  0.
        -24    2    5    5    0    0  0.74696665469E+02  0.19146520412E+02 -0.19369368162E+02  0.11219495699E+03  0.79160311238E+02 0.  0.
          5    1    3    3  501    0  0.54935035005E+01 -0.20055086552E+02 -0.10555844167E+03  0.10768964520E+03  0.47000000000E+01 0. -1.
        -13    1    4    4    0    0 -0.11139632714E+02  0.40632426684E+01  0.10797359725E+02  0.16036967763E+02  0.00000000000E+00 0.  1.
         14    1    4    4    0    0 -0.96275727094E+02  0.92012048342E+02 -0.13655309908E+03  0.19074061323E+03  0.00000000000E+00 0. -1.
         -5    1    5    5    0  502  0.27225190838E+02 -0.95166724870E+02 -0.64757033844E+02  0.11837854523E+03  0.47000000000E+01 0.  1.
         13    1    6    6    0    0  0.53369587997E+02  0.24804676960E+02  0.23982331045E+02  0.63551059192E+02  0.00000000000E+00 0. -1.
        -14    1    6    6    0    0  0.21327077472E+02 -0.56581565480E+01 -0.43351699207E+02  0.48643897799E+02  0.00000000000E+00 0.  1.
</event>
<event>
12    1  0.8493057E-002  0.4352823E+03  0.7818608E-02  0.1032364E+00
         21   -1    0    0  501  502  0.00000000000E+00  0.00000000000E+00  0.33281569732E+03  0.33281569732E+03  0.00000000000E+00 0. -1.
         21   -1    0    0  502  503 -0.00000000000E+00 -0.00000000000E+00 -0.63132020781E+03  0.63132020781E+03  0.00000000000E+00 0.  1.
         -6    2    1    2    0  503  0.13836552690E+01 -0.39990300616E+03 -0.30390248650E+03  0.53087419968E+03  0.17189056330E+03 0.  0.
        -24    2    3    3    0    0  0.48973294520E+02 -0.32084986810E+03 -0.19184152776E+03  0.38563673594E+03  0.81052445340E+02 0.  0.
          6    2    1    2  501    0 -0.13836552690E+01  0.39990300616E+03  0.53979760122E+01  0.43326170545E+03  0.16662004209E+03 0.  0.
         24    2    5    5    0    0  0.25645700672E+02  0.27783279037E+03  0.61149218122E+02  0.29628720175E+03  0.78728125087E+02 0.  0.
          5    1    5    5  501    0 -0.27029355941E+02  0.12207021579E+03 -0.55751242110E+02  0.13697450370E+03  0.47000000000E+01 0. -1.
        -13    1    6    6    0    0 -0.81498807592E+01  0.11637501681E+01 -0.52471435033E+01  0.97625501682E+01  0.00000000000E+00 0.  1.
         14    1    6    6    0    0  0.33795581431E+02  0.27666904020E+03  0.66396361626E+02  0.28652465158E+03  0.00000000000E+00 0. -1.
         -5    1    3    3    0  503 -0.47589639251E+02 -0.79053138053E+02 -0.11206095874E+03  0.14523746374E+03  0.47000000000E+01 0.  1.
         13    1    4    4    0    0 -0.16486947378E+02 -0.51350431707E+02 -0.12485134972E+02  0.55358512133E+02  0.00000000000E+00 0. -1.
        -14    1    4    4    0    0  0.65460241899E+02 -0.26949943640E+03 -0.17935639279E+03  0.33027822381E+03  0.00000000000E+00 0.  1.
</event>
<event>
12    1  0.8493057E-002  0.2135261E+03  0.7818608E-02  0.1139262E+00
         21   -1    0    0  503  502  0.00000000000E+00  0.00000000000E+00  0.25560016626E+02  0.25560016626E+02  0.00000000000E+00 0. -1.
         21   -1    0    0  501  503 -0.00000000000E+00 -0.00000000000E+00 -0.19489239761E+04  0.19489239761E+04  0.00000000000E+00 0.  1.
          6    2    1    2  501    0 -0.96835639519E+02 -0.74208921606E+02 -0.12704408129E+04  0.12882597705E+04  0.17524061199E+03 0.  0.
         24    2    3    3    0    0 -0.11996884443E+02 -0.50241760512E+00 -0.28281041989E+03  0.29424460649E+03  0.80336649107E+02 0.  0.
         -6    2    1    2    0  502  0.96835639519E+02  0.74208921606E+02 -0.65292314663E+03  0.68622422227E+03  0.17236862449E+03 0.  0.
        -24    2    5    5    0    0 -0.15478660608E+02  0.37778943669E+02 -0.23090263790E+03  0.24797196034E+03  0.80667387504E+02 0.  0.
          5    1    3    3  501    0 -0.84838755077E+02 -0.73706504001E+02 -0.98763039301E+03  0.99401516401E+03  0.47000000000E+01 0. -1.
        -11    1    4    4    0    0  0.83539793791E+00 -0.24354261811E+02 -0.25218931998E+03  0.25336393009E+03  0.00000000000E+00 0.  1.
         12    1    4    4    0    0 -0.12832282381E+02  0.23851844206E+02 -0.30621099903E+02  0.40880676393E+02  0.00000000000E+00 0. -1.
         -5    1    5    5    0  502  0.11231430013E+03  0.36429977938E+02 -0.42202050873E+03  0.43825226193E+03  0.47000000000E+01 0.  1.
         13    1    6    6    0    0  0.20504904000E+02 -0.12952133093E+02 -0.36176733005E+02  0.43554159969E+02  0.00000000000E+00 0. -1.
        -14    1    6    6    0    0 -0.35983564607E+02  0.50731076762E+02 -0.19472590490E+03  0.20441780037E+03  0.00000000000E+00 0.  1.
</event>
<event>
12    1  0.8493057E-002  0.2346426E+03  0.7818608E-02  0.1123558E+00
         21   -1    0    0  503  502  0.00000000000E+00  0.00000000000E+00  0.61949425544E+02  0.61949425544E+02  0.00000000000E+00 0.  1.
         21   -1    0    0  501  503 -0.00000000000E+00 -0.00000000000E+00 -0.16921021089E+04  0.16921021089E+04  0.00000000000E+00 0. -1.
          6    2    1    2  501    0  0.11135868714E+03  0.11475428077E+03 -0.14213375186E+04  0.14405754048E+04  0.17172027530E+03 0.  0.
         24    2    3    3    0    0  0.66272236038E+01  0.31522779961E+02 -0.80293782681E+03  0.80785395661E+03  0.82953334703E+02 0.  0.
         -6    2    1    2    0  502 -0.11135868714E+03 -0.11475428077E+03 -0.20881516476E+03  0.31347612965E+03  0.17057024557E+03 0.  0.
        -24    2    5    5    0    0 -0.53818548804E+02 -0.76455734463E+02 -0.58705507108E+02  0.14815025301E+03  0.98793954139E+02 0.  0.
          5    1    3    3  501    0  0.10473146354E+03  0.83231500807E+02 -0.61839969178E+03  0.63272144817E+03  0.47000000000E+01 0. -1.
        -11    1    4    4    0    0  0.22568765033E+02  0.22300559543E+02 -0.76524464558E+03  0.76590210321E+03  0.00000000000E+00 0.  1.
         12    1    4    4    0    0 -0.15941541429E+02  0.92222204182E+01 -0.37693181238E+02  0.41951853408E+02  0.00000000000E+00 0. -1.
         -5    1    5    5    0  502 -0.57540138337E+02 -0.38298546306E+02 -0.15010965765E+03  0.16532587664E+03  0.47000000000E+01 0.  1.
         13    1    6    6    0    0 -0.34654917186E+01  0.20589793068E+02 -0.27355630704E+02  0.34413365756E+02  0.00000000000E+00 0. -1.
        -14    1    6    6    0    0 -0.50353057085E+02 -0.97045527531E+02 -0.31349876405E+02  0.11373688725E+03  0.00000000000E+00 0.  1.
</event>
<event>
12    1  0.8493057E-002  0.1757421E+03  0.7818608E-02  0.1172319E+00
         21   -1    0    0  501  502  0.00000000000E+00  0.00000000000E+00  0.14755933109E+04  0.14755933109E+04  0.00000000000E+00 0.  1.
         21   -1    0    0  502  503 -0.00000000000E+00 -0.00000000000E+00 -0.22236880052E+02  0.22236880052E+02  0.00000000000E+00 0.  1.
         -6    2    1    2    0  503 -0.22035606472E+02  0.21745090272E+02  0.53205737799E+03  0.55991909448E+03  0.17165640678E+03 0.  0.
        -24    2    3    3    0    0  0.73694662579E+01  0.65839771114E+02  0.45344780507E+03  0.46499515580E+03  0.78844140549E+02 0.  0.
          6    2    1    2  501    0  0.22035606472E+02 -0.21745090272E+02  0.92129905284E+03  0.93791109645E+03  0.17299382410E+03 0.  0.
         24    2    5    5    0    0  0.21366159179E+02  0.44847658924E+02  0.71505819782E+03  0.72113373904E+03  0.79106371731E+02 0.  0.
          5    1    5    5  501    0  0.66944729298E+00 -0.66592749196E+02  0.20624085502E+03  0.21677735741E+03  0.47000000000E+01 0. -1.
        -13    1    6    6    0    0  0.50991124735E+02  0.22186888480E+02  0.39055165707E+03  0.39449074725E+03  0.00000000000E+00 0.  1.
         14    1    6    6    0    0 -0.29624965556E+02  0.22660770444E+02  0.32450654075E+03  0.32664299180E+03  0.00000000000E+00 0. -1.
         -5    1    3    3    0  503 -0.29405072730E+02 -0.44094680842E+02  0.78609572914E+02  0.94923938681E+02  0.47000000000E+01 0.  1.
         13    1    4    4    0    0  0.22766382459E+02  0.44007198213E+01  0.26855494069E+03  0.26955413310E+03  0.00000000000E+00 0. -1.
        -14    1    4    4    0    0 -0.15396916201E+02  0.61439051293E+02  0.18489286438E+03  0.19544102270E+03  0.00000000000E+00 0.  1.
</event>
<event>
12    1  0.8493057E-002  0.3142328E+03  0.7818608E-02  0.1078399E+00
         21   -1    0    0  501  502  0.00000000000E+00  0.00000000000E+00  0.13695207774E+03  0.13695207774E+03  0.00000000000E+00 0. -1.
         21   -1    0    0  502  503 -0.00000000000E+00 -0.00000000000E+00 -0.73143669134E+03  0.73143669134E+03  0.00000000000E+00 0.  1.
         -6    2    1    2    0  503  0.18984011544E+03 -0.18154715301E+03 -0.24259118518E+03  0.39697948102E+03  0.17246329183E+03 0.  0.
        -24    2    3    3    0    0  0.47835166752E+02 -0.11002594937E+03 -0.58016106428E+02  0.15331836858E+03  0.75807261027E+02 0.  0.
          6    2    1    2  501    0 -0.18984011544E+03  0.18154715301E+03 -0.35189342842E+03  0.47140928806E+03  0.17146163916E+03 0.  0.
         24    2    5    5    0    0 -0.18764143978E+03  0.16103215372E+03 -0.36385910458E+03  0.44709947982E+03  0.79773632356E+02 0.  0.
          5    1    5    5  501    0 -0.21986756598E+01  0.20514999290E+02  0.11965676155E+02  0.24309808234E+02  0.47000000000E+01 0. -1.
        -13    1    6    6    0    0 -0.11548084743E+03  0.14592291401E+03 -0.26124212355E+03  0.32074408813E+03  0.00000000000E+00 0.  1.
         14    1    6    6    0    0 -0.72160592356E+02  0.15109239706E+02 -0.10261698103E+03  0.12635539169E+03  0.00000000000E+00 0. -1.
         -5    1    3    3    0  503  0.14200494869E+03 -0.71521203632E+02 -0.18457507875E+03  0.24366111245E+03  0.47000000000E+01 0.  1.
         13    1    4    4    0    0  0.52126863119E+02 -0.60170482180E+02 -0.40352546825E+01  0.79711856488E+02  0.00000000000E+00 0. -1.
        -14    1    4    4    0    0 -0.42916963666E+01 -0.49855467194E+02 -0.53980851746E+02  0.73606512090E+02  0.00000000000E+00 0.  1.
</event>
<event>
12    1  0.8493057E-002  0.2038206E+03  0.7818608E-02  0.1146613E+00
         21   -1    0    0  503  502  0.00000000000E+00  0.00000000000E+00  0.46732798072E+03  0.46732798072E+03  0.00000000000E+00 0.  1.
         21   -1    0    0  501  503 -0.00000000000E+00 -0.00000000000E+00 -0.90794865782E+02  0.90794865782E+02  0.00000000000E+00 0. -1.
          6    2    1    2  501    0  0.10623985364E+02  0.10797579942E+03  0.14673705049E+03  0.25114656422E+03  0.17254330589E+03 0.  0.
         24    2    3    3    0    0 -0.28237594737E+01  0.13849870711E+03  0.14759629968E+03  0.21745208331E+03  0.79441018164E+02 0.  0.
         -6    2    1    2    0  502 -0.10623985364E+02 -0.10797579942E+03  0.22979606444E+03  0.30697628228E+03  0.17221081360E+03 0.  0.
        -24    2    5    5    0    0  0.79680888308E+01 -0.35425817477E+02  0.21281975954E+03  0.23003832005E+03  0.79415991201E+02 0.  0.
          5    1    3    3  501    0  0.13447744838E+02 -0.30522907692E+02 -0.85924918192E+00  0.33694480918E+02  0.47000000000E+01 0. -1.
        -11    1    4    4    0    0 -0.38876361074E+02  0.49944793359E+02  0.69487198389E+02  0.93991087737E+02  0.00000000000E+00 0.  1.
         12    1    4    4    0    0  0.36052601600E+02  0.88553913752E+02  0.78109101287E+02  0.12346099557E+03  0.00000000000E+00 0. -1.
         -5    1    5    5    0  502 -0.18592074195E+02 -0.72549981943E+02  0.16976304900E+02  0.76937962222E+02  0.47000000000E+01 0.  1.
         11    1    6    6    0    0  0.33149619860E+02 -0.43342161586E+02  0.97444989528E+02  0.11168243484E+03  0.00000000000E+00 0. -1.
        -12    1    6    6    0    0 -0.25181531029E+02  0.79163441095E+01  0.11537477001E+03  0.11835588521E+03  0.00000000000E+00 0.  1.
</event>
<event>
12    1  0.8493057E-002  0.1919977E+03  0.7818608E-02  0.1157105E+00
         21   -1    0    0  503  502  0.00000000000E+00  0.00000000000E+00  0.60439308916E+03  0.60439308916E+03  0.00000000000E+00 0. -1.
         21   -1    0    0  501  503 -0.00000000000E+00 -0.00000000000E+00 -0.65565079446E+02  0.65565079446E+02  0.00000000000E+00 0. -1.
          6    2    1    2  501    0  0.28712414569E+02 -0.73327753021E+02  0.36237232203E+03  0.40919058367E+03  0.17297939727E+03 0.  0.
         24    2    3    3    0    0  0.48071584223E+02 -0.87565193780E+02  0.15457822898E+03  0.19995875704E+03  0.78169912827E+02 0.  0.
         -6    2    1    2    0  502 -0.28712414569E+02  0.73327753021E+02  0.17645568768E+03  0.26076758493E+03  0.17510500142E+03 0.  0.
        -24    2    5    5    0    0 -0.29111378376E+02  0.13001453788E+02  0.14981423882E+02  0.88327887005E+02  0.80999150673E+02 0.  0.
          5    1    3    3  501    0 -0.19359169654E+02  0.14237440759E+02  0.20779409305E+03  0.20923182663E+03  0.47000000000E+01 0. -1.
        -11    1    4    4    0    0  0.15655874207E+02  0.13466716060E+02  0.27992149317E+02  0.34785331133E+02  0.00000000000E+00 0.  1.
         12    1    4    4    0    0  0.32415710015E+02 -0.10103190984E+03  0.12658607967E+03  0.16517342591E+03  0.00000000000E+00 0. -1.
         -5    1    5    5    0  502  0.39896380741E+00  0.60326299233E+02  0.16147426380E+03  0.17243969792E+03  0.47000000000E+01 0.  1.
         11    1    6    6    0    0 -0.55483706677E+02  0.20850730413E+02  0.13392588120E+02  0.60766405866E+02  0.00000000000E+00 0. -1.
        -12    1    6    6    0    0  0.26372328300E+02 -0.78492766242E+01  0.15888357617E+01  0.27561481139E+02  0.00000000000E+00 0.  1.
</event>
<event>
12    1  0.8493057E-002  0.1986609E+03  0.7818608E-02  0.1150887E+00
         21   -1    0    0  503  502  0.00000000000E+00  0.00000000000E+00  0.63468347917E+02  0.63468347917E+02  0.00000000000E+00 0.  1.
         21   -1    0    0  501  503 -0.00000000000E+00 -0.00000000000E+00 -0.62345935277E+03  0.62345935277E+03  0.00000000000E+00 0.  1.
          6    2    1    2  501    0  0.84555189215E+02  0.54222456963E+02 -0.26137711960E+03  0.32826850103E+03  0.17132587445E+03 0.  0.
         24    2    3    3    0    0  0.10460115523E+03  0.54568884635E+02 -0.27132671265E+03  0.30539832028E+03  0.75701943093E+02 0.  0.
         -6    2    1    2    0  502 -0.84555189215E+02 -0.54222456963E+02 -0.29861388525E+03  0.35865919965E+03  0.17139578224E+03 0.  0.
        -24    2    5    5    0    0  0.72234725267E+01 -0.57573183593E+02 -0.19271088279E+03  0.21840198576E+03  0.84823894112E+02 0.  0.
          5    1    3    3  501    0 -0.20045966016E+02 -0.34642767148E+00  0.99495930485E+01  0.22870180748E+02  0.47000000000E+01 0. -1.
        -13    1    4    4    0    0  0.33083433603E+02 -0.17691463996E+02 -0.90156833255E+02  0.97651195895E+02  0.00000000000E+00 0.  1.
         14    1    4    4    0    0  0.71517721628E+02  0.72260348630E+02 -0.18116987939E+03  0.20774712439E+03  0.00000000000E+00 0. -1.
         -5    1    5    5    0  502 -0.91778661742E+02  0.33507266299E+01 -0.10590300245E+03  0.14025721389E+03  0.47000000000E+01 0.  1.
         11    1    6    6    0    0  0.28273895350E+02 -0.10440321978E+02 -0.15631720074E+02  0.33952380679E+02  0.00000000000E+00 0. -1.
        -12    1    6    6    0    0 -0.21050422824E+02 -0.47132861615E+02 -0.17707916272E+03  0.18444960508E+03  0.00000000000E+00 0.  1.
</event>
<event>
12    1  0.8493057E-002  0.1755905E+03  0.7818608E-02  0.1172829E+00
         21   -1    0    0  503  502  0.00000000000E+00  0.00000000000E+00  0.12295734930E+03  0.12295734930E+03  0.00000000000E+00 0. -1.
         21   -1    0    0  501  503 -0.00000000000E+00 -0.00000000000E+00 -0.29243814619E+03  0.29243814619E+03  0.00000000000E+00 0. -1.
          6    2    1    2  501    0 -0.24365478106E+02 -0.19866917355E+02 -0.16616660056E+03  0.23977370282E+03  0.16997564088E+03 0.  0.
         24    2    3    3    0    0 -0.11449160763E+02 -0.38798299212E+01 -0.86483624127E+01  0.80850754294E+02  0.79472724472E+02 0.  0.
         -6    2    1    2    0  502  0.24365478106E+02  0.19866917355E+02 -0.33141963228E+01  0.17562179267E+03  0.17275317432E+03 0.  0.
        -24    2    5    5    0    0  0.41493068402E+02 -0.48870491418E+02 -0.12083038693E+02  0.10408740716E+03  0.81106034602E+02 0.  0.
          5    1    3    3  501    0 -0.12916317343E+02 -0.15987087433E+02 -0.15751823815E+03  0.15892294853E+03  0.47000000000E+01 0. -1.
        -11    1    4    4    0    0  0.30220726007E+02  0.79023296072E+01  0.11241153137E+02  0.33197930921E+02  0.00000000000E+00 0.  1.
         12    1    4    4    0    0 -0.41669886769E+02 -0.11782159528E+02 -0.19889515550E+02  0.47652823372E+02  0.00000000000E+00 0. -1.
         -5    1    5    5    0  502 -0.17127590296E+02  0.68737408773E+02  0.87688423699E+01  0.71534385513E+02  0.47000000000E+01 0.  1.
         11    1    6    6    0    0  0.41683379763E+02  0.68607991251E+01  0.11175179623E+02  0.43697360935E+02  0.00000000000E+00 0. -1.
        -12    1    6    6    0    0 -0.19031136114E+00 -0.55731290544E+02 -0.23258218315E+02  0.60390046227E+02  0.00000000000E+00 0.  1.
</event>
<event>
12    1  0.8493057E-002  0.2574692E+03  0.7818608E-02  0.1108818E+00
         21   -1    0    0  503  502  0.00000000000E+00  0.00000000000E+00  0.41107295885E+02  0.41107295885E+02  0.00000000000E+00 0.  1.
         21   -1    0    0  501  503 -0.00000000000E+00 -0.00000000000E+00 -0.19967718243E+04  0.19967718243E+04  0.00000000000E+00 0. -1.
          6    2    1    2  501    0 -0.15415570189E+03 -0.11355846767E+03 -0.14296573975E+04  0.14526564172E+04  0.17213624324E+03 0.  0.
         24    2    3    3    0    0 -0.56982851981E+02 -0.61472681487E+02 -0.10753185736E+04  0.10815316619E+04  0.79842125324E+02 0.  0.
         -6    2    1    2    0  502  0.15415570189E+03  0.11355846767E+03 -0.52600713089E+03  0.58522270295E+03  0.17071205082E+03 0.  0.
        -24    2    5    5    0    0  0.16174073612E+03  0.13929460990E+03 -0.43845530432E+03  0.49353140512E+03  0.75941687410E+02 0.  0.
          5    1    3    3  501    0 -0.97172849905E+02 -0.52085786181E+02 -0.35433882387E+03  0.37112475528E+03  0.47000000000E+01 0. -1.
        -11    1    4    4    0    0 -0.58250048977E+02 -0.73018966220E+02 -0.72133468790E+03  0.72735725033E+03  0.00000000000E+00 0.  1.
         12    1    4    4    0    0  0.12671969955E+01  0.11546284733E+02 -0.35398388573E+03  0.35417441160E+03  0.00000000000E+00 0. -1.
         -5    1    5    5    0  502 -0.75850342322E+01 -0.25736142234E+02 -0.87551826567E+02  0.91691297823E+02  0.47000000000E+01 0.  1.
         11    1    6    6    0    0  0.14298482429E+03  0.10334402658E+03 -0.28829122687E+03  0.33798887452E+03  0.00000000000E+00 0. -1.
        -12    1    6    6    0    0  0.18755911824E+02  0.35950583319E+02 -0.15016407746E+03  0.15554253061E+03  0.00000000000E+00 0.  1.
</event>
<event>
12    1  0.8493057E-002  0.2450361E+03  0.7818608E-02  0.1116500E+00
         21   -1    0    0  503  502  0.00000000000E+00  0.00000000000E+00  0.14978919846E+03  0.14978919846E+03  0.00000000000E+00 0. -1.
         21   -1    0    0  501  503 -0.00000000000E+00 -0.00000000000E+00 -0.51954831017E+03  0.51954831017E+03  0.00000000000E+00 0. -1.
          6    2    1    2  501    0 -0.17134173775E+03  0.35170171082E+02 -0.34493014504E+03  0.42304667845E+03  0.17145481961E+03 0.  0.
         24    2    3    3    0    0 -0.21302476034E+02  0.48370657800E+02 -0.12476173896E+03  0.15624665983E+03  0.77807526481E+02 0.  0.
         -6    2    1    2    0  502  0.17134173775E+03 -0.35170171082E+02 -0.24828966669E+02  0.24629083018E+03  0.17160350643E+03 0.  0.
        -24    2    5    5    0    0  0.82589452975E+02 -0.76038221621E+02  0.21227710541E+02  0.13816833890E+03  0.77698425264E+02 0.  0.
          5    1    3    3  501    0 -0.15003926171E+03 -0.13200486718E+02 -0.22016840608E+03  0.26680001863E+03  0.47000000000E+01 0. -1.
        -11    1    4    4    0    0  0.25251547379E+01 -0.18170888715E+02 -0.50489299225E+02  0.53718962568E+02  0.00000000000E+00 0.  1.
         12    1    4    4    0    0 -0.23827630772E+02  0.66541546515E+02 -0.74272439739E+02  0.10252769726E+03  0.00000000000E+00 0. -1.
         -5    1    5    5    0  502  0.88752284770E+02  0.40868050538E+02 -0.46056677210E+02  0.10812249129E+03  0.47000000000E+01 0.  1.
         13    1    6    6    0    0  0.13738567151E+02 -0.28814375778E+02  0.41398378485E+02  0.52276593424E+02  0.00000000000E+00 0. -1.
        -14    1    6    6    0    0  0.68850885825E+02 -0.47223845842E+02 -0.20170667944E+02  0.85891745472E+02  0.00000000000E+00 0.  1.
</event>
<event>
12    1  0.8493057E-002  0.2036817E+03  0.7818608E-02  0.1146829E+00
         21   -1    0    0  503  502  0.00000000000E+00  0.00000000000E+00  0.29423802702E+03  0.29423802702E+03  0.00000000000E+00 0. -1.
         21   -1    0    0  501  503 -0.00000000000E+00 -0.00000000000E+00 -0.43314735975E+03  0.43314735975E+03  0.00000000000E+00 0.  1.
          6    2    1    2  501    0  0.64594166259E+02 -0.86443202426E+02 -0.36837530103E+03  0.42056153324E+03  0.17183366165E+03 0.  0.
         24    2    3    3    0    0  0.45331348308E+02  0.17598966934E+02 -0.13938968060E+03  0.16826739236E+03  0.80745139161E+02 0.  0.
         -6    2    1    2    0  502 -0.64594166259E+02  0.86443202426E+02  0.22946596829E+03  0.30682385353E+03  0.17274667271E+03 0.  0.
        -24    2    5    5    0    0 -0.85262331243E+02  0.19484958529E+02  0.20193247092E+03  0.23138670786E+03  0.71510537870E+02 0.  0.
          5    1    3    3  501    0  0.19262817951E+02 -0.10404216936E+03 -0.22898562043E+03  0.25229414088E+03  0.47000000000E+01 0. -1.
        -13    1    4    4    0    0  0.51541334763E+02 -0.16401969540E+02 -0.11123479022E+03  0.12368796364E+03  0.00000000000E+00 0.  1.
         14    1    4    4    0    0 -0.62099864545E+01  0.34000936473E+02 -0.28154890373E+02  0.44579428717E+02  0.00000000000E+00 0. -1.
         -5    1    5    5    0  502  0.20668164984E+02  0.66958243897E+02  0.27533497379E+02  0.75437145674E+02  0.47000000000E+01 0.  1.
         11    1    6    6    0    0 -0.55758551189E+01  0.16175485582E+02  0.10250996787E+03  0.10392800396E+03  0.00000000000E+00 0. -1.
        -12    1    6    6    0    0 -0.79686476124E+02  0.33094729465E+01  0.99422503042E+02  0.12745870390E+03  0.00000000000E+00 0.  1.
</event>
<event>
12    1  0.8493057E-002  0.1897618E+03  0.7818608E-02  0.1159392E+00
         21   -1    0    0  501  502  0.00000000000E+00  0.00000000000E+00  0.84879881851E+03  0.84879881851E+03  0.00000000000E+00 0. -1.
         21   -1    0    0  502  503 -0.00000000000E+00 -0.00000000000E+00 -0.76153444546E+02  0.76153444546E+02  0.00000000000E+00 0. -1.
         -6    2    1    2    0  503  0.45343858335E+02  0.55989703600E+02  0.73604169632E+02  0.20061246375E+03  0.17215363611E+03 0.  0.
        -24    2    3    3    0    0 -0.26638926639E+02  0.73881213052E+02  0.41662751761E+02  0.11971764551E+03  0.80177700807E+02 0.  0.
          6    2    1    2  501    0 -0.45343858335E+02 -0.55989703600E+02  0.69904120434E+03  0.72433979931E+03  0.17555234862E+03 0.  0.
         24    2    5    5    0    0 -0.77917564626E+02 -0.15477520458E+02  0.27622740668E+03  0.29831646566E+03  0.79877612425E+02 0.  0.
          5    1    5    5  501    0  0.32573706291E+02 -0.40512183142E+02  0.42281379765E+03  0.42602333365E+03  0.47000000000E+01 0. -1.
        -11    1    6    6    0    0  0.36612035001E+01  0.16855032434E+02  0.15398609662E+02  0.23121715095E+02  0.00000000000E+00 0.  1.
         12    1    6    6    0    0 -0.81578768126E+02 -0.32332552891E+02  0.26082879702E+03  0.27519475057E+03  0.00000000000E+00 0. -1.
         -5    1    3    3    0  503  0.71982784974E+02 -0.17891509452E+02  0.31941417870E+02  0.80894818243E+02  0.47000000000E+01 0.  1.
         11    1    4    4    0    0 -0.45076074380E+02  0.22249345077E+02 -0.95412470564E+00  0.50277193555E+02  0.00000000000E+00 0. -1.
        -12    1    4    4    0    0  0.18437147741E+02  0.51631867974E+02  0.42616876467E+02  0.69440451951E+02  0.00000000000E+00 0.  1.
</event>
<event>
12    1  0.8493057E-002  0.1737300E+03  0.7818608E-02  0.1174640E+00
         21   -1    0    0  501  502  0.00000000000E+00  0.00000000000E+00  0.47029653185E+03  0.47029653185E+03  0.00000000000E+00 0. -1.
         21   -1    0    0  502  503 -0.00000000000E+00 -0.00000000000E+00 -0.69982233303E+02  0.69982233303E+02  0.00000000000E+00 0. -1.
         -6    2    1    2    0  503 -0.27865063868E+01  0.12890274651E+01  0.28250811379E+03  0.33037306176E+03  0.17124864779E+03 0.  0.
        -24    2    3    3    0    0 -0.63800512154E+02  0.25281630475E+02  0.15719268435E+03  0.18886546213E+03  0.79062991214E+02 0.  0.
          6    2    1    2  501    0  0.27865063868E+01 -0.12890274651E+01  0.11780618476E+03  0.20990570340E+03  0.17370285243E+03 0.  0.
         24    2    5    5    0    0 -0.10572608308E+02 -0.64027501005E+02  0.45660683848E+02  0.11325351610E+03  0.80809404948E+02 0.  0.
          5    1    5    5  501    0  0.13359114695E+02  0.62738473540E+02  0.72145500913E+02  0.96652187298E+02  0.47000000000E+01 0. -1.
        -13    1    6    6    0    0 -0.41894651121E+02 -0.52136635224E+02  0.16623750809E+02  0.68918354711E+02  0.00000000000E+00 0.  1.
         14    1    6    6    0    0  0.31322042813E+02 -0.11890865780E+02  0.29036933039E+02  0.44335161388E+02  0.00000000000E+00 0. -1.
         -5    1    3    3    0  503  0.61014005767E+02 -0.23992603010E+02  0.12531542944E+03  0.14150759963E+03  0.47000000000E+01 0.  1.
         13    1    4    4    0    0 -0.46237739919E+02  0.17346353083E+02  0.16170004145E+03  0.16907314382E+03  0.00000000000E+00 0. -1.
        -14    1    4    4    0    0 -0.17562772235E+02  0.79352773923E+01 -0.45073570945E+01  0.19792318304E+02  0.00000000000E+00 0.  1.
</event>
<event>
12    1  0.8493057E-002  0.4002291E+03  0.7818608E-02  0.1043746E+00
         21   -1    0    0  503  502  0.00000000000E+00  0.00000000000E+00  0.31762160943E+03  0.31762160943E+03  0.00000000000E+00 0.  1.
         21   -1    0    0  501  503 -0.00000000000E+00 -0.00000000000E+00 -0.68980019983E+03  0.68980019983E+03  0.00000000000E+00 0. -1.
          6    2    1    2  501    0  0.60448731983E+02 -0.35615984243E+03 -0.44766699543E+03  0.60013587886E+03  0.17103640473E+03 0.  0.
         24    2    3    3    0    0  0.63408970110E+02 -0.36616207582E+03 -0.44920702388E+03  0.58859164350E+03  0.80980301528E+02 0.  0.
         -6    2    1    2    0  502 -0.60448731983E+02  0.35615984243E+03  0.75488405022E+02  0.40728593039E+03  0.17227723948E+03 0.  0.
        -24    2    5    5    0    0 -0.17888017012E+01  0.94953673946E+02 -0.42807569164E+01  0.12790293329E+03  0.85565387021E+02 0.  0.
          5    1    3    3  501    0 -0.29602381274E+01  0.10002233386E+02  0.15400284523E+01  0.11544235363E+02  0.47000000000E+01 0. -1.
        -11    1    4    4    0    0  0.33272943985E+02 -0.21404467149E+03 -0.19855651985E+03  0.29384843333E+03  0.00000000000E+00 0.  1.
         12    1    4    4    0    0  0.30136026125E+02 -0.15211740433E+03 -0.25065050403E+03  0.29474321017E+03  0.00000000000E+00 0. -1.
         -5    1    5    5    0  502 -0.58659930282E+02  0.26120616849E+03  0.79769161938E+02  0.27938299711E+03  0.47000000000E+01 0.  1.
         11    1    6    6    0    0 -0.16397344519E+02  0.10723366438E+03 -0.65868035550E+01  0.10867988620E+03  0.00000000000E+00 0. -1.
        -12    1    6    6    0    0  0.14608542818E+02 -0.12279990431E+02  0.23060466386E+01  0.19223047088E+02  0.00000000000E+00 0.  1.
</event>
<event>
12    1  0.8493057E-002  0.1752034E+03  0.7818608E-02  0.1172543E+00
         21   -1    0    0  503  502  0.00000000000E+00  0.00000000000E+00  0.66070796517E+02  0.66070796517E+02  0.00000000000E+00 0.  1.
         21   -1    0    0  501  503 -0.00000000000E+00 -0.00000000000E+00 -0.85617079518E+03  0.85617079518E+03  0.00000000000E+00 0.  1.
          6    2    1    2  501    0 -0.34581043659E+02  0.71120565927E+01 -0.70699995678E+03  0.72838531555E+03  0.17160943767E+03 0.  0.
         24    2    3    3    0    0 -0.27642029478E+02 -0.25792118946E+02 -0.67261901916E+03  0.68006375145E+03  0.92957226227E+02 0.  0.
         -6    2    1    2    0  502  0.34581043659E+02 -0.71120565927E+01 -0.83100041883E+02  0.19385627615E+03  0.17154652113E+03 0.  0.
        -24    2    5    5    0    0 -0.25542836707E+02  0.48804412109E+02 -0.31677726227E+02  0.96862064928E+02  0.73105910396E+02 0.  0.
          5    1    3    3  501    0 -0.69390141803E+01  0.32904175539E+02 -0.34380937621E+02  0.48321564103E+02  0.47000000000E+01 0. -1.
        -11    1    4    4    0    0 -0.45717807649E+02  0.65187901569E+01 -0.55106018191E+03  0.55299180523E+03  0.00000000000E+00 0.  1.
         12    1    4    4    0    0  0.18075778170E+02 -0.32310909103E+02 -0.12155883725E+03  0.12707194622E+03  0.00000000000E+00 0. -1.
         -5    1    5    5    0  502  0.60123880366E+02 -0.55916468701E+02 -0.51422315656E+02  0.96994211218E+02  0.47000000000E+01 0.  1.
         11    1    6    6    0    0 -0.22643618769E+02  0.39827375332E+02  0.15795346688E+02  0.48460770463E+02  0.00000000000E+00 0. -1.
        -12    1    6    6    0    0 -0.28992179379E+01  0.89770367761E+01 -0.47473072915E+02  0.48401294465E+02  0.00000000000E+00 0.  1.
</event>
<event>
12    1  0.8493057E-002  0.1717830E+03  0.7818608E-02  0.1176097E+00
         21   -1    0    0  503  502  0.00000000000E+00  0.00000000000E+00  0.72979486877E+03  0.72979486877E+03  0.00000000000E+00 0. -1.
         21   -1    0    0  501  503 -0.00000000000E+00 -0.00000000000E+00 -0.21273312770E+03  0.21273312770E+03  0.00000000000E+00 0. -1.
          6    2    1    2  501    0  0.26527691343E+01  0.59804139826E+01 -0.16574888352E+03  0.23844011215E+03  0.17128395185E+03 0.  0.
         24    2    3    3    0    0  0.35384326914E+02  0.17416159252E+02 -0.22394331443E+02  0.90877417868E+02  0.78751671749E+02 0.  0.
         -6    2    1    2    0  502 -0.26527691343E+01 -0.59804139826E+01  0.68281062459E+03  0.70408788431E+03  0.17165837369E+03 0.  0.
        -24    2    5    5    0    0 -0.15397291942E+02 -0.58395654375E+02  0.58006927816E+03  0.58795152243E+03  0.74562029282E+02 0.  0.
          5    1    3    3  501    0 -0.32731557780E+02 -0.11435745269E+02 -0.14335455207E+03  0.14756269429E+03  0.47000000000E+01 0. -1.
        -13    1    4    4    0    0  0.35372932339E+01  0.43305912010E+02  0.13311957930E+01  0.43470524964E+02  0.00000000000E+00 0.  1.
         14    1    4    4    0    0  0.31847033680E+02 -0.25889752758E+02 -0.23725527236E+02  0.47406892903E+02  0.00000000000E+00 0. -1.
         -5    1    5    5    0  502  0.12744522808E+02  0.52415240393E+02  0.10274134642E+03  0.11613636189E+03  0.47000000000E+01 0.  1.
         11    1    6    6    0    0 -0.13356236547E+02 -0.44939651899E+02  0.13940731809E+03  0.14707944012E+03  0.00000000000E+00 0. -1.
        -12    1    6    6    0    0 -0.20410553950E+01 -0.13456002477E+02  0.44066196007E+03  0.44087208231E+03  0.00000000000E+00 0.  1.
</event>
<event>
12    1  0.8493057E-002  0.2035653E+03  0.7818608E-02  0.1147481E+00
         21   -1    0    0  501  502  0.00000000000E+00  0.00000000000E+00  0.79603531453E+03  0.79603531453E+03  0.00000000000E+00 0. -1.
         21   -1    0    0  502  503 -0.00000000000E+00 -0.00000000000E+00 -0.10693239593E+03  0.10693239593E+03  0.00000000000E+00 0. -1.
         -6    2    1    2    0  503  0.10309773154E+03 -0.29143388926E+02  0.17150924972E+02  0.20085781750E+03  0.16903026137E+03 0.  0.
        -24    2    3    3    0    0 -0.57416019814E+01 -0.33987616687E+02  0.30514937322E+02  0.90993565402E+02  0.78489129587E+02 0.  0.
          6    2    1    2  501    0 -0.10309773154E+03  0.29143388926E+02  0.67195199363E+03  0.70210989296E+03  0.17309055629E+03 0.  0.
         24    2    5    5    0    0 -0.11869080721E+03  0.52976863638E+02  0.39041115869E+03  0.41909309087E+03  0.79524148447E+02 0.  0.
          5    1    5    5  501    0  0.15593075674E+02 -0.23833474712E+02  0.28154083494E+03  0.28301680209E+03  0.47000000000E+01 0. -1.
        -11    1    6    6    0    0 -0.94177410026E+02  0.32725204176E+00  0.24951163881E+03  0.26669373737E+03  0.00000000000E+00 0.  1.
         12    1    6    6    0    0 -0.24513397185E+02  0.52649611597E+02  0.14089951988E+03  0.15239935350E+03  0.00000000000E+00 0. -1.
         -5    1    3    3    0  503  0.10883933352E+03  0.48442277614E+01 -0.13364012350E+02  0.10986425210E+03  0.47000000000E+01 0.  1.
         13    1    4    4    0    0  0.16535826418E+02  0.60095325009E+01 -0.17384093456E+02  0.24733676263E+02  0.00000000000E+00 0. -1.
        -14    1    4    4    0    0 -0.22277428399E+02 -0.39997149188E+02  0.47899030778E+02  0.66259889139E+02  0.00000000000E+00 0.  1.
</event>
<event>
12    1  0.8493057E-002  0.2505655E+03  0.7818608E-02  0.1114841E+00
         21   -1    0    0  503  502  0.00000000000E+00  0.00000000000E+00  0.76031482967E+02  0.76031482967E+02  0.00000000000E+00 0.  1.
         21   -1    0    0  501  503 -0.00000000000E+00 -0.00000000000E+00 -0.26112745033E+04  0.26112745033E+04  0.00000000000E+00 0. -1.
          6    2    1    2  501    0 -0.15675837052E+03  0.94142877891E+02 -0.23995556522E+04  0.24126024101E+04  0.17130964144E+03 0.  0.
         24    2    3    3    0    0 -0.10375062205E+03 -0.97093633704E+01 -0.10526080597E+04  0.10606094308E+04  0.77782863947E+02 0.  0.
         -6    2    1    2    0  502  0.15675837052E+03 -0.94142877891E+02 -0.13568736811E+03  0.27470357610E+03  0.15367148294E+03 0.  0.
        -24    2    5    5    0    0  0.51794894599E+02 -0.22729053661E+02 -0.10515140806E+03  0.14404447605E+03  0.80577115095E+02 0.  0.
          5    1    3    3  501    0 -0.53007748473E+02  0.10385224126E+03 -0.13469475925E+04  0.13519929794E+04  0.47000000000E+01 0. -1.
        -13    1    4    4    0    0 -0.20004876439E+02 -0.30455787320E+02 -0.17394004920E+03  0.17771575838E+03  0.00000000000E+00 0.  1.
         14    1    4    4    0    0 -0.83745745610E+02  0.20746423950E+02 -0.87866801052E+03  0.88289367238E+03  0.00000000000E+00 0. -1.
         -5    1    5    5    0  502  0.10496347592E+03 -0.71413824230E+02 -0.30535960052E+02  0.13065910005E+03  0.47000000000E+01 0.  1.
         11    1    6    6    0    0 -0.16238244203E+02 -0.22260076148E+02 -0.15876003865E+02  0.31799985277E+02  0.00000000000E+00 0. -1.
        -12    1    6    6    0    0  0.68033138802E+02 -0.46897751343E+00 -0.89275404194E+02  0.11224449077E+03  0.00000000000E+00 0.  1.
</event>
<event>
12    1  0.8493057E-002  0.1723871E+03  0.7818608E-02  0.1176669E+00
         21   -1    0    0  501  502  0.00000000000E+00  0.00000000000E+00  0.28412387447E+03  0.28412387447E+03  0.00000000000E+00 0. -1.
         21   -1    0    0  502  503 -0.00000000000E+00 -0.00000000000E+00 -0.13108264326E+03  0.13108264326E+03  0.00000000000E+00 0. -1.
         -6    2    1    2    0  503  0.37612990565E+00  0.13988153940E+02 -0.21047469290E+02  0.17366722093E+03  0.17181821131E+03 0.  0.
        -24    2    3    3    0    0  0.10884100730E+02 -0.57065855783E+02 -0.23281781739E+02  0.10165213986E+03  0.80100815432E+02 0.  0.
          6    2    1    2  501    0 -0.37612990565E+00 -0.13988153940E+02  0.17408870049E+03  0.24153929681E+03  0.16684887275E+03 0.  0.
         24    2    5    5    0    0  0.54519031459E+02 -0.40449815695E+02  0.12579669174E+03  0.16364252926E+03  0.79659006710E+02 0.  0.
          5    1    5    5  501    0 -0.54895161365E+02  0.26461661754E+02  0.48292008756E+02  0.77896767544E+02  0.47000000000E+01 0. -1.
        -11    1    6    6    0    0  0.12751717430E+02  0.20795115336E+00 -0.97768106906E+01  0.16069709654E+02  0.00000000000E+00 0.  1.
         12    1    6    6    0    0  0.41767314030E+02 -0.40657766848E+02  0.13557350243E+03  0.14757281961E+03  0.00000000000E+00 0. -1.
         -5    1    3    3    0  503 -0.10507970824E+02  0.71054009723E+02  0.22343124494E+01  0.72015081064E+02  0.47000000000E+01 0.  1.
         13    1    4    4    0    0  0.23238976859E+02 -0.57624712688E+02 -0.44959713307E+02  0.76694415563E+02  0.00000000000E+00 0. -1.
        -14    1    4    4    0    0 -0.12354876129E+02  0.55885690553E+00  0.21677931568E+02  0.24957724301E+02  0.00000000000E+00 0.  1.
</event>
<event>
12    1  0.8493057E-002  0.1986618E+03  0.7818608E-02  0.1151370E+00
         21   -1    0    0  503  502  0.00000000000E+00  0.00000000000E+00  0.32557170033E+03  0.32557170033E+03  0.00000000000E+00 0.  1.
         21   -1    0    0  501  503 -0.00000000000E+00 -0.00000000000E+00 -0.12668887625E+03  0.12668887625E+03  0.00000000000E+00 0.  1.
          6    2    1    2  501    0 -0.98761184790E+02  0.16876740036E+01  0.47298866512E+02  0.20421478613E+03  0.17236553089E+03 0.  0.
         24    2    3    3    0    0 -0.70357382813E+01  0.46695178851E+02  0.21503759795E+01  0.92412687642E+02  0.79407426474E+02 0.  0.
         -6    2    1    2    0  502  0.98761184790E+02 -0.16876740036E+01  0.15158395757E+03  0.24804579045E+03  0.16968322870E+03 0.  0.
        -24    2    5    5    0    0  0.52332139150E+02 -0.51355532598E+02  0.39262695602E+02  0.11666577543E+03  0.81812593005E+02 0.  0.
          5    1    3    3  501    0 -0.91725446508E+02 -0.45007504848E+02  0.45148490532E+02  0.11180209849E+03  0.47000000000E+01 0. -1.
        -11    1    4    4    0    0 -0.43206001988E+02  0.25204518101E+02  0.48396251701E+01  0.50253838781E+02  0.00000000000E+00 0.  1.
         12    1    4    4    0    0  0.36170263706E+02  0.21490660750E+02 -0.26892491905E+01  0.42158848861E+02  0.00000000000E+00 0. -1.
         -5    1    5    5    0  502  0.46429045640E+02  0.49667858594E+02  0.11232126197E+03  0.13138001502E+03  0.47000000000E+01 0.  1.
         13    1    6    6    0    0 -0.15473049200E+02  0.65259365588E+01  0.18778997500E+02  0.25192337061E+02  0.00000000000E+00 0. -1.
        -14    1    6    6    0    0  0.67805188350E+02 -0.57881469157E+02  0.20483698102E+02  0.91473438368E+02  0.00000000000E+00 0.  1.
</event>
<event>
12    1  0.8493057E-002  0.1812392E+03  0.7818608E-02  0.1166715E+00
         21   -1    0    0  501  502  0.00000000000E+00  0.00000000000E+00  0.31703779556E+03  0.31703779556E+03  0.00000000000E+00 0.  1.
         21   -1    0    0  502  503 -0.00000000000E+00 -0.00000000000E+00 -0.13470158586E+03  0.13470158586E+03  0.00000000000E+00 0. -1.
         -6    2    1    2    0  503  0.48985650071E+02 -0.24523782159E+02 -0.17703149597E+02  0.18210178898E+03  0.17276183097E+03 0.  0.
        -24    2    3    3    0    0  0.75591942759E+02  0.22360787573E+02 -0.43987907306E+02  0.12194336333E+03  0.81982322728E+02 0.  0.
          6    2    1    2  501    0 -0.48985650071E+02  0.24523782159E+02  0.20003935929E+03  0.26963759244E+03  0.17230112068E+03 0.  0.
         24    2    5    5    0    0 -0.92376002285E+02  0.40375096113E+02  0.11646653385E+03  0.17403166181E+03  0.80988219024E+02 0.  0.
          5    1    5    5  501    0  0.43390352215E+02 -0.15851313954E+02  0.83572825445E+02  0.95605930633E+02  0.47000000000E+01 0. -1.
        -13    1    6    6    0    0 -0.53106666963E+02 -0.17926310530E+02  0.33531751133E+02  0.65314998425E+02  0.00000000000E+00 0.  1.
         14    1    6    6    0    0 -0.39269335322E+02  0.58301406643E+02  0.82934782716E+02  0.10871666338E+03  0.00000000000E+00 0. -1.
         -5    1    3    3    0  503 -0.26606292688E+02 -0.46884569731E+02  0.26284757709E+02  0.60158425655E+02  0.47000000000E+01 0.  1.
         11    1    4    4    0    0  0.84631656900E+02 -0.40097987606E+01 -0.25453878379E+02  0.88467484198E+02  0.00000000000E+00 0. -1.
        -12    1    4    4    0    0 -0.90397141417E+01  0.26370586333E+02 -0.18534028927E+02  0.33475879131E+02  0.00000000000E+00 0.  1.
</event>
<event>
12    1  0.8493057E-002  0.1998247E+03  0.7818608E-02  0.1153425E+00
         21   -1    0    0  501  502  0.00000000000E+00  0.00000000000E+00  0.30687408661E+03  0.30687408661E+03  0.00000000000E+00 0.  1.
         21   -1    0    0  502  503 -0.00000000000E+00 -0.00000000000E+00 -0.12046847347E+03  0.12046847347E+03  0.00000000000E+00 0.  1.
         -6    2    1    2    0  503 -0.27403295808E+02 -0.64047213272E+02  0.11182221403E+03  0.22898501058E+03  0.18728839091E+03 0.  0.
        -24    2    3    3    0    0 -0.89302681954E+02 -0.62052799044E+02  0.58793375654E+02  0.14731702791E+03  0.80125693876E+02 0.  0.
          6    2    1    2  501    0  0.27403295808E+02  0.64047213272E+02  0.74583399109E+02  0.19835754951E+03  0.17008835314E+03 0.  0.
         24    2    5    5    0    0  0.73313131501E+02  0.75856701111E+02  0.69021308161E+02  0.15039710881E+03  0.82013992726E+02 0.  0.
          5    1    5    5  501    0 -0.45909835693E+02 -0.11809487839E+02  0.55620909477E+01  0.47960440700E+02  0.47000000000E+01 0. -1.
        -13    1    6    6    0    0  0.36161541075E+02  0.80797375363E+02  0.23800917010E+02  0.91664369136E+02  0.00000000000E+00 0.  1.
         14    1    6    6    0    0  0.37151590426E+02 -0.49406742528E+01  0.45220391151E+02  0.58732739669E+02  0.00000000000E+00 0. -1.
         -5    1    3    3    0  503  0.61899386146E+02 -0.19944142284E+01  0.53028838378E+02  0.81667982668E+02  0.47000000000E+01 0.  1.
         13    1    4    4    0    0 -0.64715070831E+02  0.34026826409E+01  0.22984678395E+02  0.68759828990E+02  0.00000000000E+00 0. -1.
        -14    1    4    4    0    0 -0.24587611123E+02 -0.65455481684E+02  0.35808697258E+02  0.78557198923E+02  0.00000000000E+00 0.  1.
</event>
<event>
12    1  0.8493057E-002  0.2211282E+03  0.7818608E-02  0.1133549E+00
         21   -1    0    0  503  502  0.00000000000E+00  0.00000000000E+00  0.19972474666E+03  0.19972474666E+03  0.00000000000E+00 0.  1.
         21   -1    0    0  501  503 -0.00000000000E+00 -0.00000000000E+00 -0.32761260211E+03  0.32761260211E+03  0.00000000000E+00 0. -1.
          6    2    1    2  501    0 -0.76446154926E+02 -0.11267288584E+03 -0.19856377337E+03  0.29518920931E+03  0.17079198866E+03 0.  0.
         24    2    3    3    0    0 -0.85243474663E+02 -0.31222110018E+02 -0.17011025830E+03  0.20833695409E+03  0.78901941267E+02 0.  0.
         -6    2    1    2    0  502  0.76446154926E+02  0.11267288584E+03  0.70675917918E+02  0.23214813947E+03  0.17423684880E+03 0.  0.
        -24    2    5    5    0    0  0.90954991431E+02  0.10922437460E+03  0.43445148440E+01  0.16399871834E+03  0.81694126691E+02 0.  0.
          5    1    3    3  501    0  0.87973197377E+01 -0.81450775817E+02 -0.28453515072E+02  0.86852255214E+02  0.47000000000E+01 0. -1.
        -13    1    4    4    0    0 -0.19848030473E+02 -0.44739106796E+02 -0.44836939172E+02  0.66376826565E+02  0.00000000000E+00 0.  1.
         14    1    4    4    0    0 -0.65395444190E+02  0.13516996778E+02 -0.12527331912E+03  0.14196012753E+03  0.00000000000E+00 0. -1.
         -5    1    5    5    0  502 -0.14508836505E+02  0.34485112374E+01  0.66331403074E+02  0.68149421129E+02  0.47000000000E+01 0.  1.
         13    1    6    6    0    0  0.80222733824E+02  0.57956628041E+02  0.32960845502E+02  0.10431239184E+03  0.00000000000E+00 0. -1.
        -14    1    6    6    0    0  0.10732257607E+02  0.51267746557E+02 -0.28616330658E+02  0.59686326497E+02  0.00000000000E+00 0.  1.
</event>
<event>
12    1  0.8493057E-002  0.2109804E+03  0.7818608E-02  0.1141481E+00
         21   -1    0    0  501  502  0.00000000000E+00  0.00000000000E+00  0.25438553292E+03  0.25438553292E+03  0.00000000000E+00 0.  1.
         21   -1    0    0  502  503 -0.00000000000E+00 -0.00000000000E+00 -0.29390728264E+03  0.29390728264E+03  0.00000000000E+00 0.  1.
         -6    2    1    2    0  503 -0.39983668201E+02 -0.11580639474E+03 -0.19613901574E+03  0.28553492698E+03  0.16748094293E+03 0.  0.
        -24    2    3    3    0    0 -0.73983923544E+02 -0.42778806845E+02 -0.15632134517E+03  0.19555391317E+03  0.80630780352E+02 0.  0.
          6    2    1    2  501    0  0.39983668201E+02  0.11580639474E+03  0.15661726602E+03  0.26275788858E+03  0.17176415578E+03 0.  0.
         24    2    5    5    0    0 -0.35496899107E+02  0.57852292068E+02  0.12099542497E+03  0.16103768597E+03  0.81769957180E+02 0.  0.
          5    1    5    5  501    0  0.75480567308E+02  0.57954102676E+02  0.35621841049E+02  0.10172020260E+03  0.47000000000E+01 0. -1.
        -13    1    6    6    0    0 -0.33996787659E+00  0.33701378370E+02  0.11263991091E+03  0.11757401078E+03  0.00000000000E+00 0.  1.
         14    1    6    6    0    0 -0.35156931230E+02  0.24150913697E+02  0.83555140593E+01  0.43463675191E+02  0.00000000000E+00 0. -1.
         -5    1    3    3    0  503  0.34000255343E+02 -0.73027587899E+02 -0.39817670562E+02  0.89981013813E+02  0.47000000000E+01 0.  1.
         13    1    4    4    0    0  0.33162612761E+01 -0.16491133911E+01 -0.77962388089E+02  0.78050311468E+02  0.00000000000E+00 0. -1.
        -14    1    4    4    0    0 -0.77300184820E+02 -0.41129693454E+02 -0.78358957085E+02  0.11750360170E+03  0.00000000000E+00 0.  1.
</event>
<event>
12    1  0.8493057E-002  0.2107150E+03  0.7818608E-02  0.1144105E+00
         21   -1    0    0  503  502  0.00000000000E+00  0.00000000000E+00  0.80094537019E+03  0.80094537019E+03  0.00000000000E+00 0. -1.
         21   -1    0    0  501  503 -0.00000000000E+00 -0.00000000000E+00 -0.53546074772E+02  0.53546074772E+02  0.00000000000E+00 0. -1.
          6    2    1    2  501    0 -0.50021202140E+02 -0.76887013573E+02  0.30416298748E+03  0.37002154259E+03  0.18970262389E+03 0.  0.
         24    2    3    3    0    0 -0.10920975382E+03 -0.64736442242E+02  0.21230450807E+03  0.25997159360E+03  0.79965292790E+02 0.  0.
         -6    2    1    2    0  502  0.50021202140E+02  0.76887013573E+02  0.44323630794E+03  0.48446990238E+03  0.17273948045E+03 0.  0.
        -24    2    5    5    0    0  0.48749840354E+02  0.96974550066E+02  0.44376912512E+03  0.46379384431E+03  0.79956759019E+02 0.  0.
          5    1    3    3  501    0  0.59188551676E+02 -0.12150571331E+02  0.91858479404E+02  0.11004994899E+03  0.47000000000E+01 0. -1.
        -11    1    4    4    0    0  0.35234287373E+01  0.10638897009E+02  0.35007752953E+02  0.36757903184E+02  0.00000000000E+00 0.  1.
         12    1    4    4    0    0 -0.11273318255E+03 -0.75375339251E+02  0.17729675512E+03  0.22321369042E+03  0.00000000000E+00 0. -1.
         -5    1    5    5    0  502  0.12713617857E+01 -0.20087536492E+02 -0.53281717514E+00  0.20676058069E+02  0.47000000000E+01 0.  1.
         11    1    6    6    0    0  0.26155641987E+02  0.10244246210E+03  0.40514629972E+03  0.41871481921E+03  0.00000000000E+00 0. -1.
        -12    1    6    6    0    0  0.22594198367E+02 -0.54679120338E+01  0.38622825396E+02  0.45079025094E+02  0.00000000000E+00 0.  1.
</event>
<event>
12    1  0.8493057E-002  0.2196581E+03  0.7818608E-02  0.1134731E+00
         21   -1    0    0  503  502  0.00000000000E+00  0.00000000000E+00  0.11443802661E+03  0.11443802661E+03  0.00000000000E+00 0.  1.
         21   -1    0    0  501  503 -0.00000000000E+00 -0.00000000000E+00 -0.16702791737E+04  0.16702791737E+04  0.00000000000E+00 0.  1.
          6    2    1    2  501    0 -0.43413563026E+01  0.13183017225E+03 -0.15527283095E+04  0.15681884136E+04  0.17564639407E+03 0.  0.
         24    2    3    3    0    0  0.32138476094E+02  0.97460366686E+02 -0.14234279660E+04  0.14294342045E+04  0.81262328115E+02 0.  0.
         -6    2    1    2    0  502  0.43413563026E+01 -0.13183017225E+03 -0.31128375852E+01  0.21652878669E+03  0.17168862519E+03 0.  0.
        -24    2    5    5    0    0  0.45183824613E+02 -0.15631997662E+02  0.54392911249E+01  0.92975753947E+02  0.79554808632E+02 0.  0.
          5    1    3    3  501    0 -0.36479832396E+02  0.34369805562E+02 -0.12930034348E+03  0.13875420905E+03  0.47000000000E+01 0. -1.
        -11    1    4    4    0    0 -0.56940584582E+01  0.96868008654E+01 -0.65345056676E+03  0.65354716709E+03  0.00000000000E+00 0.  1.
         12    1    4    4    0    0  0.37832534552E+02  0.87773565821E+02 -0.76997739925E+03  0.77588703745E+03  0.00000000000E+00 0. -1.
         -5    1    5    5    0  502 -0.40842468311E+02 -0.11619817459E+03 -0.85521287102E+01  0.12355303274E+03  0.47000000000E+01 0.  1.
         13    1    6    6    0    0 -0.25403191778E+01  0.83525966207E+01 -0.28423332012E+02  0.29733901434E+02  0.00000000000E+00 0. -1.
        -14    1    6    6    0    0  0.47724143791E+02 -0.23984594283E+02  0.33862623137E+02  0.63241852513E+02  0.00000000000E+00 0.  1.
</event>
<event>
12    1  0.8493057E-002  0.2095053E+03  0.7818608E-02  0.1142261E+00
         21   -1    0    0  501  502  0.00000000000E+00  0.00000000000E+00  0.22922648822E+03  0.22922648822E+03  0.00000000000E+00 0. -1.
         21   -1    0    0  502  503 -0.00000000000E+00 -0.00000000000E+00 -0.19712262045E+03  0.19712262045E+03  0.00000000000E+00 0.  1.
         -6    2    1    2    0  503  0.10285887471E+03 -0.57535455418E+02 -0.24142047369E+02  0.21089166057E+03  0.17321136599E+03 0.  0.
        -24    2    3    3    0    0  0.13710135071E+03 -0.67627802031E+02 -0.33219652885E+01  0.16929877127E+03  0.72668690135E+02 0.  0.
          6    2    1    2  501    0 -0.10285887471E+03  0.57535455418E+02  0.56245915144E+02  0.21545744810E+03  0.17137103675E+03 0.  0.
         24    2    5    5    0    0 -0.23115401859E+02  0.26146831033E+02 -0.33414239009E+02  0.91339357376E+02  0.77513794005E+02 0.  0.
          5    1    5    5  501    0 -0.79743472849E+02  0.31388624385E+02  0.89660154153E+02  0.12411809073E+03  0.47000000000E+01 0. -1.
        -13    1    6    6    0    0 -0.15927844047E+02  0.53573954610E+02 -0.27847572680E+02  0.62444792679E+02  0.00000000000E+00 0.  1.
         14    1    6    6    0    0 -0.71875578117E+01 -0.27427123577E+02 -0.55666663290E+01  0.28894564697E+02  0.00000000000E+00 0. -1.
         -5    1    3    3    0  503 -0.34242475997E+02  0.10092346613E+02 -0.20820082080E+02  0.41592889301E+02  0.47000000000E+01 0.  1.
         13    1    4    4    0    0  0.31717429090E+02 -0.26302005872E+02  0.30377739425E+02  0.51191775448E+02  0.00000000000E+00 0. -1.
        -14    1    4    4    0    0  0.10538392162E+03 -0.41325796159E+02 -0.33699704714E+02  0.11810699582E+03  0.00000000000E+00 0.  1.
</event>
<event>
12    1  0.8493057E-002  0.3153318E+03  0.7818608E-02  0.1077849E+00
         21   -1    0    0  503  502  0.00000000000E+00  0.00000000000E+00  0.26572465750E+03  0.26572465750E+03  0.00000000000E+00 0.  1.
         21   -1    0    0  501  503 -0.00000000000E+00 -0.00000000000E+00 -0.40619461420E+03  0.40619461420E+03  0.00000000000E+00 0. -1.
          6    2    1    2  501    0 -0.15149029718E+03  0.21632541824E+03 -0.16496099110E+03  0.35563782000E+03  0.17181424190E+03 0.  0.
         24    2    3    3    0    0 -0.71913629350E+02  0.85756614462E+02 -0.14710821732E+03  0.20162006092E+03  0.80523626050E+02 0.  0.
         -6    2    1    2    0  502  0.15149029718E+03 -0.21632541824E+03  0.24491034398E+02  0.31628145170E+03  0.17230249333E+03 0.  0.
        -24    2    5    5    0    0  0.11945957145E+03 -0.84765535492E+02  0.57532203710E+02  0.17682615775E+03  0.80633432177E+02 0.  0.
          5    1    3    3  501    0 -0.79576667828E+02  0.13056880378E+03 -0.17852773779E+02  0.15401775909E+03  0.47000000000E+01 0. -1.
        -13    1    4    4    0    0 -0.14323708427E+02  0.60766831073E+02 -0.31179992653E+02  0.69785158333E+02  0.00000000000E+00 0.  1.
         14    1    4    4    0    0 -0.57589920923E+02  0.24989783389E+02 -0.11592822466E+03  0.13183490258E+03  0.00000000000E+00 0. -1.
         -5    1    5    5    0  502  0.32030725732E+02 -0.13155988275E+03 -0.33041169313E+02  0.13945529394E+03  0.47000000000E+01 0.  1.
         13    1    6    6    0    0  0.70137123702E+02 -0.11746171643E+01  0.23887984201E+02  0.74102844991E+02  0.00000000000E+00 0. -1.
        -14    1    6    6    0    0  0.49322447745E+02 -0.83590918327E+02  0.33644219510E+02  0.10272331276E+03  0.00000000000E+00 0.  1.
</event>
<event>
12    1  0.8493057E-002  0.2421350E+03  0.7818608E-02  0.1118738E+00
         21   -1    0    0  501  502  0.00000000000E+00  0.00000000000E+00  0.21080124639E+03  0.21080124639E+03  0.00000000000E+00 0. -1.
         21   -1    0    0  502  503 -0.00000000000E+00 -0.00000000000E+00 -0.53370997746E+03  0.53370997746E+03  0.00000000000E+00 0. -1.
         -6    2    1    2    0  503 -0.94895808542E+02  0.13946897321E+03  0.97775199824E+02  0.25912033192E+03  0.17066501618E+03 0.  0.
        -24    2    3    3    0    0 -0.12903464834E+03  0.10742168721E+03  0.48949195589E+02  0.19130766635E+03  0.77545084305E+02 0.  0.
          6    2    1    2  501    0  0.94895808542E+02 -0.13946897321E+03 -0.42068393089E+03  0.48539089192E+03  0.17370244467E+03 0.  0.
         24    2    5    5    0    0  0.10817322820E+03 -0.11636900795E+03 -0.21943458329E+03  0.28233107764E+03  0.79473943817E+02 0.  0.
          5    1    5    5  501    0 -0.13277419653E+02 -0.23099965256E+02 -0.20124934760E+03  0.20305981429E+03  0.47000000000E+01 0. -1.
        -13    1    6    6    0    0  0.42330802993E+00  0.38809410127E+01  0.46905290455E+01  0.61026187460E+01  0.00000000000E+00 0.  1.
         14    1    6    6    0    0  0.10774992017E+03 -0.12024994896E+03 -0.22412511234E+03  0.27622845889E+03  0.00000000000E+00 0. -1.
         -5    1    3    3    0  503  0.34138839796E+02  0.32047286000E+02  0.48826004235E+02  0.67812665573E+02  0.47000000000E+01 0.  1.
         13    1    4    4    0    0 -0.95286329639E+02  0.11592812773E+03  0.37621811198E+02  0.15470687151E+03  0.00000000000E+00 0. -1.
        -14    1    4    4    0    0 -0.33748318698E+02 -0.85064405228E+01  0.11327384391E+02  0.36600794834E+02  0.00000000000E+00 0.  1.
</event>
<event>
12    1  0.8493057E-002  0.1843674E+03  0.7818608E-02  0.1164041E+00
         21   -1    0    0  503  502  0.00000000000E+00  0.00000000000E+00  0.49590457655E+02  0.49590457655E+02  0.00000000000E+00 0. -1.
         21   -1    0    0  501  503 -0.00000000000E+00 -0.00000000000E+00 -0.76405896631E+03  0.76405896631E+03  0.00000000000E+00 0.  1.
          6    2    1    2  501    0  0.12104666474E+02  0.52022993446E+02 -0.49430786904E+03  0.52757143740E+03  0.17646086639E+03 0.  0.
         24    2    3    3    0    0 -0.38652371065E+02  0.39562920538E+02 -0.14832160235E+03  0.17762841773E+03  0.80581180128E+02 0.  0.
         -6    2    1    2    0  502 -0.12104666474E+02 -0.52022993446E+02 -0.22016063961E+03  0.28607798657E+03  0.17469113419E+03 0.  0.
        -24    2    5    5    0    0 -0.55545344986E+02  0.21729221389E+02 -0.10224844359E+03  0.14029781743E+03  0.75307960714E+02 0.  0.
          5    1    3    3  501    0  0.50757037539E+02  0.12460072908E+02 -0.34598626669E+03  0.34994301967E+03  0.47000000000E+01 0. -1.
        -11    1    4    4    0    0 -0.23019553974E+02 -0.13669774978E+01 -0.12667904939E+03  0.12876082497E+03  0.00000000000E+00 0.  1.
         12    1    4    4    0    0 -0.15632817092E+02  0.40929898035E+02 -0.21642552959E+02  0.48867592758E+02  0.00000000000E+00 0. -1.
         -5    1    5    5    0  502  0.43440678512E+02 -0.73752214834E+02 -0.11791219603E+03  0.14578016914E+03  0.47000000000E+01 0.  1.
         13    1    6    6    0    0 -0.47206751820E+01  0.30422565496E+02 -0.63774369476E+01  0.31440244394E+02  0.00000000000E+00 0. -1.
        -14    1    6    6    0    0 -0.50824669804E+02 -0.86933441075E+01 -0.95871006640E+02  0.10885757303E+03  0.00000000000E+00 0.  1.
</event>
<event>
12    1  0.8493057E-002  0.2696061E+03  0.7818608E-02  0.1101604E+00
         21   -1    0    0  503  502  0.00000000000E+00  0.00000000000E+00  0.44224515616E+03  0.44224515616E+03  0.00000000000E+00 0.  1.
         21   -1    0    0  501  503 -0.00000000000E+00 -0.00000000000E+00 -0.16396933244E+03  0.16396933244E+03  0.00000000000E+00 0.  1.
          6    2    1    2  501    0 -0.14739475536E+03 -0.14675910105E+03  0.14285091728E+03  0.30450706885E+03  0.17045445950E+03 0.  0.
         24    2    3    3    0    0 -0.75275335353E+02 -0.12921397093E+03  0.15338025188E+03  0.22939382621E+03  0.82057293627E+02 0.  0.
         -6    2    1    2    0  502  0.14739475536E+03  0.14675910105E+03  0.13542490644E+03  0.30170741975E+03  0.17153429454E+03 0.  0.
        -24    2    5    5    0    0  0.11474811118E+03  0.16744754830E+03  0.14455821987E+03  0.26171588765E+03  0.79951963476E+02 0.  0.
          5    1    3    3  501    0 -0.72119420002E+02 -0.17545130116E+02 -0.10529334606E+02  0.75113242638E+02  0.47000000000E+01 0. -1.
        -11    1    4    4    0    0 -0.78914865455E+02 -0.57024022559E+02  0.99749465038E+02  0.13938884788E+03  0.00000000000E+00 0.  1.
         12    1    4    4    0    0  0.36395301015E+01 -0.72189948376E+02  0.53630786847E+02  0.90004978327E+02  0.00000000000E+00 0. -1.
         -5    1    5    5    0  502  0.32646644172E+02 -0.20688447252E+02 -0.91333134361E+01  0.39991532100E+02  0.47000000000E+01 0.  1.
         11    1    6    6    0    0  0.23596564498E+02 -0.13163483440E+01  0.41150012344E+01  0.23988827904E+02  0.00000000000E+00 0. -1.
        -12    1    6    6    0    0  0.91151546686E+02  0.16876389665E+03  0.14044321864E+03  0.23772705975E+03  0.00000000000E+00 0.  1.
</event>
<event>
12    1  0.8493057E-002  0.2027851E+03  0.7818608E-02  0.1147448E+00
         21   -1    0    0  503  502  0.00000000000E+00  0.00000000000E+00  0.96462245463E+03  0.96462245463E+03  0.00000000000E+00 0.  1.
         21   -1    0    0  501  503 -0.00000000000E+00 -0.00000000000E+00 -0.63213064378E+02  0.63213064378E+02  0.00000000000E+00 0. -1.
          6    2    1    2  501    0  0.41687216944E+02 -0.98719344245E+02  0.15704498220E+03  0.25634335543E+03  0.17194608590E+03 0.  0.
         24    2    3    3    0    0 -0.35397070281E+02 -0.89684626912E+02  0.93313683292E+02  0.15580787953E+03  0.79198276153E+02 0.  0.
         -6    2    1    2    0  502 -0.41687216944E+02  0.98719344245E+02  0.74436440805E+03  0.77149216358E+03  0.17215822229E+03 0.  0.
        -24    2    5    5    0    0 -0.50550234319E+02  0.15039749213E+02  0.56740139586E+03  0.57548495609E+03  0.80355898471E+02 0.  0.
          5    1    3    3  501    0  0.77084287225E+02 -0.90347173331E+01  0.63731298909E+02  0.10053547590E+03  0.47000000000E+01 0. -1.
        -11    1    4    4    0    0 -0.39254424530E+02 -0.36529301626E+02  0.66011835589E+01  0.54026617022E+02  0.00000000000E+00 0.  1.
         12    1    4    4    0    0  0.38573542484E+01 -0.53155325285E+02  0.86712499733E+02  0.10178126251E+03  0.00000000000E+00 0. -1.
         -5    1    5    5    0  502  0.88630173754E+01  0.83679595032E+02  0.17696301220E+03  0.19600720749E+03  0.47000000000E+01 0.  1.
         13    1    6    6    0    0 -0.55116712375E+02 -0.55440965940E+01  0.20147348253E+03  0.20895012121E+03  0.00000000000E+00 0. -1.
        -14    1    6    6    0    0  0.45664780559E+01  0.20583845807E+02  0.36592791332E+03  0.36653483488E+03  0.00000000000E+00 0.  1.
</event>
<event>
12    1  0.8493057E-002  0.1981087E+03  0.7818608E-02  0.1151466E+00
         21   -1    0    0  503  502  0.00000000000E+00  0.00000000000E+00  0.16211121372E+03  0.16211121372E+03  0.00000000000E+00 0. -1.
         21   -1    0    0  501  503 -0.00000000000E+00 -0.00000000000E+00 -0.68921129148E+03  0.68921129148E+03  0.00000000000E+00 0. -1.
          6    2    1    2  501    0 -0.90547043387E+02 -0.37730343702E+02 -0.60652664045E+03  0.63788485950E+03  0.17146481417E+03 0.  0.
         24    2    3    3    0    0  0.30617870162E+01 -0.28153086534E+02 -0.42148970614E+03  0.43024311504E+03  0.81569570504E+02 0.  0.
         -6    2    1    2    0  502  0.90547043387E+02  0.37730343702E+02  0.79426562698E+02  0.21343764570E+03  0.17211828443E+03 0.  0.
        -24    2    5    5    0    0  0.16870149220E+02  0.44982904437E+02 -0.12898279803E+02  0.95002638566E+02  0.80938693382E+02 0.  0.
          5    1    3    3  501    0 -0.93608830403E+02 -0.95772571678E+01 -0.18503693431E+03  0.20764174446E+03  0.47000000000E+01 0. -1.
        -11    1    4    4    0    0  0.16924402865E+02 -0.39159341038E+02 -0.10607238042E+03  0.11432952064E+03  0.00000000000E+00 0.  1.
         12    1    4    4    0    0 -0.13862615848E+02  0.11006254504E+02 -0.31541732573E+03  0.31591359440E+03  0.00000000000E+00 0. -1.
         -5    1    5    5    0  502  0.73676894167E+02 -0.72525607350E+01  0.92324842501E+02  0.11843500713E+03  0.47000000000E+01 0.  1.
         11    1    6    6    0    0  0.20681741505E+02  0.12884587202E+02  0.31662180316E+02  0.39952980883E+02  0.00000000000E+00 0. -1.
        -12    1    6    6    0    0 -0.38115922851E+01  0.32098317234E+02 -0.44560460119E+02  0.55049657683E+02  0.00000000000E+00 0.  1.
</event>
<event>
12    1  0.8493057E-002  0.2097130E+03  0.7818608E-02  0.1142338E+00
         21   -1    0    0  503  502  0.00000000000E+00  0.00000000000E+00  0.14151824943E+03  0.14151824943E+03  0.00000000000E+00 0.  1.
         21   -1    0    0  501  503 -0.00000000000E+00 -0.00000000000E+00 -0.11734493256E+04  0.11734493256E+04  0.00000000000E+00 0.  1.
          6    2    1    2  501    0 -0.11297291158E+03  0.30541884235E+02 -0.10818992718E+04  0.11020370190E+04  0.17402261800E+03 0.  0.
         24    2    3    3    0    0 -0.79624974701E+02  0.21587906909E+02 -0.10450994799E+04  0.10513559251E+04  0.79436666050E+02 0.  0.
         -6    2    1    2    0  502  0.11297291158E+03 -0.30541884235E+02  0.49968195606E+02  0.21293055601E+03  0.17072467797E+03 0.  0.
        -24    2    5    5    0    0  0.28570175475E+02  0.23845272511E+02  0.68050272213E+02  0.11079909085E+03  0.79124882547E+02 0.  0.
          5    1    3    3  501    0 -0.33347936879E+02  0.89539773258E+01 -0.36799791859E+02  0.50681093959E+02  0.47000000000E+01 0. -1.
        -13    1    4    4    0    0 -0.60335094995E+02  0.41753311515E+02 -0.48075800303E+03  0.48632491216E+03  0.00000000000E+00 0.  1.
         14    1    4    4    0    0 -0.19289879706E+02 -0.20165404606E+02 -0.56434147691E+03  0.56503101292E+03  0.00000000000E+00 0. -1.
         -5    1    5    5    0  502  0.84402736106E+02 -0.54387156746E+02 -0.18082076608E+02  0.10213146516E+03  0.47000000000E+01 0.  1.
         11    1    6    6    0    0  0.21335009565E+02  0.36156874313E+02  0.73791348605E+00  0.41988649771E+02  0.00000000000E+00 0. -1.
        -12    1    6    6    0    0  0.72351659102E+01 -0.12311601802E+02  0.67312358727E+02  0.68810441084E+02  0.00000000000E+00 0.  1.
</event>
<event>
12    1  0.8493057E-002  0.1915776E+03  0.7818608E-02  0.1157290E+00
         21   -1    0    0  501  502  0.00000000000E+00  0.00000000000E+00  0.23833967917E+03  0.23833967917E+03  0.00000000000E+00 0. -1.
         21   -1    0    0  502  503 -0.00000000000E+00 -0.00000000000E+00 -0.17720196214E+03  0.17720196214E+03  0.00000000000E+00 0. -1.
         -6    2    1    2    0  503  0.61008396713E+02  0.53721500172E+02 -0.45955442087E+02  0.19701239962E+03  0.17347610469E+03 0.  0.
        -24    2    3    3    0    0  0.44511729414E+02  0.34119230706E+02  0.41311147845E+02  0.10594134649E+03  0.79821939342E+02 0.  0.
          6    2    1    2  501    0 -0.61008396713E+02 -0.53721500172E+02  0.10709315911E+03  0.21852924169E+03  0.17227321525E+03 0.  0.
         24    2    5    5    0    0 -0.43952027733E+02 -0.29018543025E+02 -0.17830090594E+02  0.89963833696E+02  0.70722858126E+02 0.  0.
          5    1    5    5  501    0 -0.17056368980E+02 -0.24702957147E+02  0.12492324971E+03  0.12856540799E+03  0.47000000000E+01 0. -1.
        -13    1    6    6    0    0 -0.43621532398E+02  0.91586701537E+01  0.59755839965E+01  0.44971401266E+02  0.00000000000E+00 0.  1.
         14    1    6    6    0    0 -0.33049533544E+00 -0.38177213179E+02 -0.23805674591E+02  0.44992432430E+02  0.00000000000E+00 0. -1.
         -5    1    3    3    0  503  0.16496667299E+02  0.19602269466E+02 -0.87266589932E+02  0.91071053132E+02  0.47000000000E+01 0.  1.
         13    1    4    4    0    0  0.61163045910E+02  0.67069750479E+01  0.12412384448E+02  0.62769172266E+02  0.00000000000E+00 0. -1.
        -14    1    4    4    0    0 -0.16651316496E+02  0.27412255658E+02  0.28898763397E+02  0.43172174223E+02  0.00000000000E+00 0.  1.
</event>
<event>
12    1  0.8493057E-002  0.2428438E+03  0.7818608E-02  0.1119164E+00
         21   -1    0    0  501  502  0.00000000000E+00  0.00000000000E+00  0.96554635605E+03  0.96554635605E+03  0.00000000000E+00 0.  1.
         21   -1    0    0  502  503 -0.00000000000E+00 -0.00000000000E+00 -0.71230354113E+02  0.71230354113E+02  0.00000000000E+00 0.  1.
         -6    2    1    2    0  503  0.85481116835E+02  0.13623312200E+03  0.24001948100E+03  0.34144176896E+03  0.18195231646E+03 0.  0.
        -24    2    3    3    0    0  0.55126426448E+02  0.98664774204E+01  0.44693380845E+02  0.10678390846E+03  0.79177235021E+02 0.  0.
          6    2    1    2  501    0 -0.85481116835E+02 -0.13623312200E+03  0.65429652094E+03  0.69533494121E+03  0.17181460440E+03 0.  0.
         24    2    5    5    0    0 -0.79202630898E+02 -0.16826314400E+03  0.57493924240E+03  0.60939886408E+03  0.78906911732E+02 0.  0.
          5    1    5    5  501    0 -0.62784859367E+01  0.32030021999E+02  0.79357278536E+02  0.85936077125E+02  0.47000000000E+01 0. -1.
        -13    1    6    6    0    0 -0.96489835456E+01 -0.33189509705E+01  0.12113911213E+03  0.12156809946E+03  0.00000000000E+00 0.  1.
         14    1    6    6    0    0 -0.69553647353E+02 -0.16494419303E+03  0.45380013027E+03  0.48783076462E+03  0.00000000000E+00 0. -1.
         -5    1    3    3    0  503  0.30354690387E+02  0.12636664458E+03  0.19532610016E+03  0.23465786050E+03  0.47000000000E+01 0.  1.
         13    1    4    4    0    0  0.40801893752E+02  0.16613447264E+02 -0.13815777398E+02  0.46170086299E+02  0.00000000000E+00 0. -1.
        -14    1    4    4    0    0  0.14324532695E+02 -0.67469698432E+01  0.58509158243E+02  0.60613822164E+02  0.00000000000E+00 0.  1.
</event>
<event>
12    1  0.8493057E-002  0.2323157E+03  0.7818608E-02  0.1125194E+00
         21   -1    0    0  503  502  0.00000000000E+00  0.00000000000E+00  0.73662094582E+02  0.73662094582E+02  0.00000000000E+00 0. -1.
         21   -1    0    0  501  503 -0.00000000000E+00 -0.00000000000E+00 -0.73486516285E+03  0.73486516285E+03  0.00000000000E+00 0.  1.
          6    2    1    2  501    0  0.15368049486E+03  0.23365754572E+02 -0.36576134055E+03  0.43330353736E+03  0.17264687737E+03 0.  0.
         24    2    3    3    0    0  0.17586818437E+03  0.37696822259E+02 -0.26941060412E+03  0.33328740128E+03  0.78407586099E+02 0.  0.
         -6    2    1    2    0  502 -0.15368049486E+03 -0.23365754572E+02 -0.29544172772E+03  0.37522372007E+03  0.17129907367E+03 0.  0.
        -24    2    5    5    0    0 -0.82304554476E+02  0.36728731624E+02 -0.23724056519E+03  0.26515402644E+03  0.76814924010E+02 0.  0.
          5    1    3    3  501    0 -0.22187689513E+02 -0.14331067687E+02 -0.96350736426E+02  0.10001613608E+03  0.47000000000E+01 0. -1.
        -11    1    4    4    0    0  0.14008652359E+03 -0.51624140527E+01 -0.19928421470E+03  0.24364950819E+03  0.00000000000E+00 0.  1.
         12    1    4    4    0    0  0.35781660778E+02  0.42859236311E+02 -0.70126389420E+02  0.89637893094E+02  0.00000000000E+00 0. -1.
         -5    1    5    5    0  502 -0.71375940379E+02 -0.60094486196E+02 -0.58201162531E+02  0.11006969363E+03  0.47000000000E+01 0.  1.
         13    1    6    6    0    0 -0.41944634356E+02 -0.22287255204E+01 -0.33191578135E+02  0.53535039252E+02  0.00000000000E+00 0. -1.
        -14    1    6    6    0    0 -0.40359920120E+02  0.38957457145E+02 -0.20404898706E+03  0.21161898719E+03  0.00000000000E+00 0.  1.
</event>
<event>
12    1  0.8493057E-002  0.4566110E+03  0.7818608E-02  0.1025798E+00
         21   -1    0    0  501  502  0.00000000000E+00  0.00000000000E+00  0.90576366002E+03  0.90576366002E+03  0.00000000000E+00 0. -1.
         21   -1    0    0  502  503 -0.00000000000E+00 -0.00000000000E+00 -0.23041401274E+03  0.23041401274E+03  0.00000000000E+00 0.  1.
         -6    2    1    2    0  503  0.23836493304E+03  0.34904034412E+03  0.36205181158E+03  0.58241860946E+03  0.17170590918E+03 0.  0.
        -24    2    3    3    0    0  0.41586414274E+02  0.12395430170E+03  0.16390710206E+03  0.22371409617E+03  0.78027943447E+02 0.  0.
          6    2    1    2  501    0 -0.23836493304E+03 -0.34904034412E+03  0.31329783570E+03  0.55375906330E+03  0.17276157909E+03 0.  0.
         24    2    5    5    0    0 -0.20283773117E+03 -0.34527876786E+03  0.31761378665E+03  0.51746789411E+03  0.80832736250E+02 0.  0.
          5    1    5    5  501    0 -0.35527201867E+02 -0.37615762671E+01 -0.43159509507E+01  0.36291169189E+02  0.47000000000E+01 0. -1.
        -13    1    6    6    0    0 -0.10912654873E+02 -0.17640780450E+02 -0.24095329069E+01  0.20882744554E+02  0.00000000000E+00 0.  1.
         14    1    6    6    0    0 -0.19192507630E+03 -0.32763798741E+03  0.32002331956E+03  0.49658514956E+03  0.00000000000E+00 0. -1.
         -5    1    3    3    0  503  0.19677851877E+03  0.22508604243E+03  0.19814470951E+03  0.35870451329E+03  0.47000000000E+01 0.  1.
         13    1    4    4    0    0 -0.59518864332E+01 -0.88599932928E+01  0.16771412118E+02  0.19879755977E+02  0.00000000000E+00 0. -1.
        -14    1    4    4    0    0  0.47538300707E+02  0.13281429499E+03  0.14713568994E+03  0.20383434019E+03  0.00000000000E+00 0.  1.
</event>
<event>
12    1  0.8493057E-002  0.2626218E+03  0.7818608E-02  0.1105716E+00
         21   -1    0    0  501  502  0.00000000000E+00  0.00000000000E+00  0.54524969113E+03  0.54524969113E+03  0.00000000000E+00 0. -1.
         21   -1    0    0  502  503 -0.00000000000E+00 -0.00000000000E+00 -0.12776880587E+03  0.12776880587E+03  0.00000000000E+00 0.  1.
         -6    2    1    2    0  503 -0.19177992391E+03 -0.43100947362E+02  0.24816010262E+03  0.36132210975E+03  0.17416371488E+03 0.  0.
        -24    2    3    3    0    0 -0.20890742821E+03 -0.64338005795E+02  0.23708313726E+03  0.33150343748E+03  0.76840240345E+02 0.  0.
          6    2    1    2  501    0  0.19177992391E+03  0.43100947362E+02  0.16932078264E+03  0.31169638725E+03  0.17276538864E+03 0.  0.
         24    2    5    5    0    0  0.11093889666E+03  0.25385579866E+02  0.19807053697E+02  0.14074156551E+03  0.80399020078E+02 0.  0.
          5    1    5    5  501    0  0.80841027255E+02  0.17715367495E+02  0.14951372894E+03  0.17095482174E+03  0.47000000000E+01 0. -1.
        -13    1    6    6    0    0  0.48732267077E+02 -0.28649299440E+02  0.27502363464E+01  0.56596643124E+02  0.00000000000E+00 0.  1.
         14    1    6    6    0    0  0.62206629578E+02  0.54034879306E+02  0.17056817351E+02  0.84144922385E+02  0.00000000000E+00 0. -1.
         -5    1    3    3    0  503  0.17127504299E+02  0.21237058434E+02  0.11076965366E+02  0.29818672274E+02  0.47000000000E+01 0.  1.
         13    1    4    4    0    0 -0.12336409479E+03 -0.54225255834E+02  0.19117328373E+03  0.23389378501E+03  0.00000000000E+00 0. -1.
        -14    1    4    4    0    0 -0.85543333419E+02 -0.10112749962E+02  0.45909853530E+02  0.97609652470E+02  0.00000000000E+00 0.  1.
</event>
<event>
12    1  0.8493057E-002  0.1944590E+03  0.7818608E-02  0.1154774E+00
         21   -1    0    0  503  502  0.00000000000E+00  0.00000000000E+00  0.48122417314E+03  0.48122417314E+03  0.00000000000E+00 0.  1.
         21   -1    0    0  501  503 -0.00000000000E+00 -0.00000000000E+00 -0.11596774502E+03  0.11596774502E+03  0.00000000000E+00 0.  1.
          6    2    1    2  501    0  0.84877921294E+02 -0.27440641191E+02  0.12342033426E+02  0.19485023322E+03  0.17279189010E+03 0.  0.
         24    2    3    3    0    0  0.63471348976E+02  0.21717072694E+02 -0.47438474159E+02  0.11441068287E+03  0.79618792617E+02 0.  0.
         -6    2    1    2    0  502 -0.84877921294E+02  0.27440641191E+02  0.35291439469E+03  0.40234168494E+03  0.17138556283E+03 0.  0.
        -24    2    5    5    0    0  0.66733627777E+01  0.55856912340E+02  0.18136209077E+03  0.20576751303E+03  0.79268739258E+02 0.  0.
          5    1    3    3  501    0  0.21406572318E+02 -0.49157713885E+02  0.59780507585E+02  0.80439550347E+02  0.47000000000E+01 0. -1.
        -13    1    4    4    0    0  0.36098741134E+02  0.19065166072E+02  0.17097342888E+02  0.44259674678E+02  0.00000000000E+00 0.  1.
         14    1    4    4    0    0  0.27372607842E+02  0.26519066219E+01 -0.64535817047E+02  0.70151008195E+02  0.00000000000E+00 0. -1.
         -5    1    5    5    0  502 -0.91551284072E+02 -0.28416271148E+02  0.17155230392E+03  0.19657417191E+03  0.47000000000E+01 0.  1.
         11    1    6    6    0    0  0.40790865921E+01 -0.60414645425E+01  0.11405854528E+03  0.11429125073E+03  0.00000000000E+00 0. -1.
        -12    1    6    6    0    0  0.25942761856E+01  0.61898376882E+02  0.67303545491E+02  0.91476262305E+02  0.00000000000E+00 0.  1.
</event>
<event>
12    1  0.8493057E-002  0.2334246E+03  0.7818608E-02  0.1124376E+00
         21   -1    0    0  503  502  0.00000000000E+00  0.00000000000E+00  0.11290435034E+03  0.11290435034E+03  0.00000000000E+00 0.  1.
         21   -1    0    0  501  503 -0.00000000000E+00 -0.00000000000E+00 -0.48113971698E+03  0.48113971698E+03  0.00000000000E+00 0.  1.
          6    2    1    2  501    0 -0.15586013933E+03 -0.27394382502E+02 -0.18571138160E+03  0.29772999773E+03  0.17062121518E+03 0.  0.
         24    2    3    3    0    0 -0.86602834124E+02  0.38790028017E+02 -0.55009630620E+02  0.13561279251E+03  0.79749939680E+02 0.  0.
         -6    2    1    2    0  502  0.15586013933E+03  0.27394382502E+02 -0.18252398505E+03  0.29631406959E+03  0.17159308697E+03 0.  0.
        -24    2    5    5    0    0  0.14490172423E+03  0.49651131042E+02 -0.80108148188E+02  0.19083163809E+03  0.80855761631E+02 0.  0.
          5    1    3    3  501    0 -0.69257305205E+02 -0.66184410519E+02 -0.13070175098E+03  0.16211720522E+03  0.47000000000E+01 0. -1.
        -13    1    4    4    0    0 -0.63672351371E+02 -0.49630261307E+01 -0.30778587826E+01  0.63939605661E+02  0.00000000000E+00 0.  1.
         14    1    4    4    0    0 -0.22930482753E+02  0.43753054147E+02 -0.51931771837E+02  0.71673186846E+02  0.00000000000E+00 0. -1.
         -5    1    5    5    0  502  0.10958415095E+02 -0.22256748540E+02 -0.10241583686E+03  0.10548243151E+03  0.47000000000E+01 0.  1.
         13    1    6    6    0    0  0.15526570096E+03  0.47933846916E+02 -0.77368838025E+02  0.17997507792E+03  0.00000000000E+00 0. -1.
        -14    1    6    6    0    0 -0.10363976730E+02  0.17172841265E+01 -0.27393101627E+01  0.10856560164E+02  0.00000000000E+00 0.  1.
</event>
<event>
12    1  0.8493057E-002  0.1833536E+03  0.7818608E-02  0.1164674E+00
         21   -1    0    0  503  502  0.00000000000E+00  0.00000000000E+00  0.63162674339E+03  0.63162674339E+03  0.00000000000E+00 0.  1.
         21   -1    0    0  501  503 -0.00000000000E+00 -0.00000000000E+00 -0.61347276098E+02  0.61347276098E+02  0.00000000000E+00 0.  1.
          6    2    1    2  501    0 -0.13067312124E+02  0.60602370404E+02  0.41172647967E+03  0.45057432854E+03  0.17220664776E+03 0.  0.
         24    2    3    3    0    0  0.37451736499E+02  0.20785486479E+02  0.34919680755E+03  0.36074332936E+03  0.79766347898E+02 0.  0.
         -6    2    1    2    0  502  0.13067312124E+02 -0.60602370404E+02  0.15855298762E+03  0.24239969094E+03  0.17255479808E+03 0.  0.
        -24    2    5    5    0    0  0.12880002843E+02  0.33260123703E+02  0.92391910015E+02  0.12746674930E+03  0.80245727857E+02 0.  0.
          5    1    3    3  501    0 -0.50519048623E+02  0.39816883925E+02  0.62529672124E+02  0.89830999189E+02  0.47000000000E+01 0. -1.
        -13    1    4    4    0    0  0.35136603558E+02  0.34065990465E+02  0.10152503532E+03  0.11270494849E+03  0.00000000000E+00 0.  1.
         14    1    4    4    0    0  0.23151329409E+01 -0.13280503987E+02  0.24767177223E+03  0.24803838087E+03  0.00000000000E+00 0. -1.
         -5    1    5    5    0  502  0.18730928123E+00 -0.93862494107E+02  0.66161077602E+02  0.11493294164E+03  0.47000000000E+01 0.  1.
         13    1    6    6    0    0 -0.28065979463E+02  0.36298370615E+02  0.39755820452E+02  0.60710758291E+02  0.00000000000E+00 0. -1.
        -14    1    6    6    0    0  0.40945982306E+02 -0.30382469114E+01  0.52636089563E+02  0.66755991010E+02  0.00000000000E+00 0.  1.
</event>
<event>
12    1  0.8493057E-002  0.1949255E+03  0.7818608E-02  0.1154384E+00
         21   -1    0    0  503  502  0.00000000000E+00  0.00000000000E+00  0.24560805216E+02  0.24560805216E+02  0.00000000000E+00 0.  1.
         21   -1    0    0  501  503 -0.00000000000E+00 -0.00000000000E+00 -0.16095138631E+04  0.16095138631E+04  0.00000000000E+00 0.  1.
          6    2    1    2  501    0 -0.86166695585E+02 -0.22949228465E+02 -0.96912062742E+03  0.98852959242E+03  0.17333377650E+03 0.  0.
         24    2    3    3    0    0 -0.90901352220E+02  0.15840776518E+02 -0.90621039436E+03  0.91432131199E+03  0.79070833316E+02 0.  0.
         -6    2    1    2    0  502  0.86166695585E+02  0.22949228465E+02 -0.61583243051E+03  0.64554507594E+03  0.17183566595E+03 0.  0.
        -24    2    5    5    0    0  0.40965539667E+02 -0.46447682965E+02 -0.43692878331E+03  0.44834547962E+03  0.79191822248E+02 0.  0.
          5    1    3    3  501    0  0.47346566345E+01 -0.38790004982E+02 -0.62910233069E+02  0.74208280433E+02  0.47000000000E+01 0. -1.
        -11    1    4    4    0    0 -0.74112429721E+02  0.45256474540E+02 -0.69668781356E+03  0.70207884905E+03  0.00000000000E+00 0.  1.
         12    1    4    4    0    0 -0.16788922498E+02 -0.29415698022E+02 -0.20952258080E+03  0.21224246294E+03  0.00000000000E+00 0. -1.
         -5    1    5    5    0  502  0.45201155918E+02  0.69396911429E+02 -0.17890364719E+03  0.19719959633E+03  0.47000000000E+01 0.  1.
         13    1    6    6    0    0 -0.10021053342E+02  0.11541294005E+02 -0.16379952328E+03  0.16451111453E+03  0.00000000000E+00 0. -1.
        -14    1    6    6    0    0  0.50986593010E+02 -0.57988976970E+02 -0.27312926004E+03  0.28383436509E+03  0.00000000000E+00 0.  1.
</event>
<event>
12    1  0.8493057E-002  0.1889810E+03  0.7818608E-02  0.1159391E+00
         21   -1    0    0  503  502  0.00000000000E+00  0.00000000000E+00  0.21432344980E+04  0.21432344980E+04  0.00000000000E+00 0.  1.
         21   -1    0    0  501  503 -0.00000000000E+00 -0.00000000000E+00 -0.62654037417E+02  0.62654037417E+02  0.00000000000E+00 0.  1.
          6    2    1    2  501    0  0.78105193599E+02  0.15396088103E+01  0.95325305011E+02  0.21166185998E+03  0.17207857953E+03 0.  0.
         24    2    3    3    0    0 -0.15614449614E+02 -0.56250635367E+01  0.41461966387E+01  0.80625895998E+02  0.78790175672E+02 0.  0.
         -6    2    1    2    0  502 -0.78105193599E+02 -0.15396088103E+01  0.19852551556E+04  0.19942266755E+04  0.17204420546E+03 0.  0.
        -24    2    5    5    0    0 -0.60277341263E+02  0.22819285013E+02  0.62437353146E+03  0.63300219987E+03  0.81825427691E+02 0.  0.
          5    1    3    3  501    0  0.93719643213E+02  0.71646723470E+01  0.91179108372E+02  0.13103596398E+03  0.47000000000E+01 0. -1.
        -13    1    4    4    0    0  0.46677571027E+01 -0.38726699564E+02  0.12412655218E+02  0.40934328198E+02  0.00000000000E+00 0.  1.
         14    1    4    4    0    0 -0.20282206717E+02  0.33101636027E+02 -0.82664585793E+01  0.39691567800E+02  0.00000000000E+00 0. -1.
         -5    1    5    5    0  502 -0.17827852336E+02 -0.24358893823E+02  0.13608816241E+04  0.13612244756E+04  0.47000000000E+01 0.  1.
         13    1    6    6    0    0  0.21029478667E+01 -0.16736299369E+02  0.33272332971E+02  0.37303810095E+02  0.00000000000E+00 0. -1.
        -14    1    6    6    0    0 -0.62380289130E+02  0.39555584381E+02  0.59110119849E+03  0.59569838978E+03  0.00000000000E+00 0.  1.
</event>
<event>
12    1  0.8493057E-002  0.1922248E+03  0.7818608E-02  0.1159002E+00
         21   -1    0    0  503  502  0.00000000000E+00  0.00000000000E+00  0.15518550192E+03  0.15518550192E+03  0.00000000000E+00 0.  1.
         21   -1    0    0  501  503 -0.00000000000E+00 -0.00000000000E+00 -0.25657850706E+03  0.25657850706E+03  0.00000000000E+00 0.  1.
          6    2    1    2  501    0  0.52346295088E+02 -0.15089573388E+02 -0.12202001463E+03  0.21843570197E+03  0.17279306146E+03 0.  0.
         24    2    3    3    0    0  0.22328038168E+02 -0.60948461792E+02 -0.12580607785E+03  0.16329445000E+03  0.81391964563E+02 0.  0.
         -6    2    1    2    0  502 -0.52346295088E+02  0.15089573388E+02  0.20627009495E+02  0.19332830700E+03  0.18434351340E+03 0.  0.
        -24    2    5    5    0    0 -0.21085806473E+01 -0.95534842473E+01 -0.56374713082E+02  0.98026347311E+02  0.79594857362E+02 0.  0.
          5    1    3    3  501    0  0.30018256920E+02  0.45858888404E+02  0.37860632109E+01  0.55141251970E+02  0.47000000000E+01 0. -1.
        -13    1    4    4    0    0 -0.16190394348E+02  0.89582655412E+01 -0.62242916999E+01  0.19522325625E+02  0.00000000000E+00 0.  1.
         14    1    4    4    0    0  0.38518432516E+02 -0.69906727333E+02 -0.11958178615E+03  0.14377212438E+03  0.00000000000E+00 0. -1.
         -5    1    5    5    0  502 -0.50237714440E+02  0.24643057635E+02  0.77001722576E+02  0.95301959694E+02  0.47000000000E+01 0.  1.
         11    1    6    6    0    0  0.82383667238E+01  0.33190927189E+02 -0.35677615411E+02  0.49420649281E+02  0.00000000000E+00 0. -1.
        -12    1    6    6    0    0 -0.10346947371E+02 -0.42744411437E+02 -0.20697097671E+02  0.48605698030E+02  0.00000000000E+00 0.  1.
</event>
<event>
12    1  0.8493057E-002  0.1944718E+03  0.7818608E-02  0.1154739E+00
         21   -1    0    0  503  502  0.00000000000E+00  0.00000000000E+00  0.11464661918E+03  0.11464661918E+03  0.00000000000E+00 0.  1.
         21   -1    0    0  501  503 -0.00000000000E+00 -0.00000000000E+00 -0.37218627296E+03  0.37218627296E+03  0.00000000000E+00 0.  1.
          6    2    1    2  501    0  0.35138406092E+02  0.83402886464E+02 -0.21302491863E+03  0.28844216070E+03  0.17212935560E+03 0.  0.
         24    2    3    3    0    0  0.15331012433E+02  0.89767794988E+02 -0.61716290321E+02  0.13563759302E+03  0.79343299583E+02 0.  0.
         -6    2    1    2    0  502 -0.35138406092E+02 -0.83402886464E+02 -0.44514735146E+02  0.19839073143E+03  0.17084077856E+03 0.  0.
        -24    2    5    5    0    0  0.44650181578E+02 -0.43638993642E+02 -0.31779052508E+02  0.10821493918E+03  0.82477660026E+02 0.  0.
          5    1    3    3  501    0  0.19807393660E+02 -0.63649085241E+01 -0.15130862831E+03  0.15280456769E+03  0.47000000000E+01 0. -1.
        -13    1    4    4    0    0 -0.19251321791E+02  0.58666446157E+02 -0.64184151482E+02  0.89061611242E+02  0.00000000000E+00 0.  1.
         14    1    4    4    0    0  0.34582334224E+02  0.31101348831E+02  0.24678611611E+01  0.46575981774E+02  0.00000000000E+00 0. -1.
         -5    1    5    5    0  502 -0.79788587671E+02 -0.39763892822E+02 -0.12735682638E+02  0.90175792245E+02  0.47000000000E+01 0.  1.
         11    1    6    6    0    0 -0.14686707119E+02  0.13120756528E+02  0.11913666340E+01  0.19730001833E+02  0.00000000000E+00 0. -1.
        -12    1    6    6    0    0  0.59336888698E+02 -0.56759750170E+02 -0.32970419142E+02  0.88484937352E+02  0.00000000000E+00 0.  1.
</event>
<event>
12    1  0.8493057E-002  0.1823213E+03  0.7818608E-02  0.1166715E+00
         21   -1    0    0  501  502  0.00000000000E+00  0.00000000000E+00  0.10821671494E+03  0.10821671494E+03  0.00000000000E+00 0.  1.
         21   -1    0    0  502  503 -0.00000000000E+00 -0.00000000000E+00 -0.40648071271E+03  0.40648071271E+03  0.00000000000E+00 0.  1.
         -6    2    1    2    0  503 -0.92601262826E+01 -0.42976615519E+02 -0.27985199922E+03  0.33144876943E+03  0.17207093267E+03 0.  0.
        -24    2    3    3    0    0 -0.62284756946E+02  0.65467385091E-01 -0.21600102656E+03  0.23783643548E+03  0.77655208021E+02 0.  0.
          6    2    1    2  501    0  0.92601262826E+01  0.42976615519E+02 -0.18411998551E+02  0.18324865822E+03  0.17694159949E+03 0.  0.
         24    2    5    5    0    0 -0.11332388497E+02 -0.30130870599E+02 -0.50633415763E+02  0.10061049562E+03  0.80761603781E+02 0.  0.
          5    1    5    5  501    0  0.20592514779E+02  0.73107486118E+02  0.32221417211E+02  0.82638162604E+02  0.47000000000E+01 0. -1.
        -11    1    6    6    0    0 -0.21630929616E+02 -0.27651134959E+02  0.11989811186E+02  0.37097681233E+02  0.00000000000E+00 0.  1.
         12    1    6    6    0    0  0.10298541119E+02 -0.24797356399E+01 -0.62623226949E+02  0.63512814388E+02  0.00000000000E+00 0. -1.
         -5    1    3    3    0  503  0.53024630664E+02 -0.43042082904E+02 -0.63850972654E+02  0.93612333945E+02  0.47000000000E+01 0.  1.
         11    1    4    4    0    0 -0.58697720072E+01 -0.21643025760E+02 -0.12769174956E+02  0.25805553986E+02  0.00000000000E+00 0. -1.
        -12    1    4    4    0    0 -0.56414984939E+02  0.21708493145E+02 -0.20323185161E+03  0.21203088150E+03  0.00000000000E+00 0.  1.
</event>
<event>
12    1  0.8493057E-002  0.2456272E+03  0.7818608E-02  0.1116172E+00
         21   -1    0    0  503  502  0.00000000000E+00  0.00000000000E+00  0.16247709742E+04  0.16247709742E+04  0.00000000000E+00 0. -1.
         21   -1    0    0  501  503 -0.00000000000E+00 -0.00000000000E+00 -0.37922618877E+02  0.37922618877E+02  0.00000000000E+00 0. -1.
          6    2    1    2  501    0 -0.12923061477E+03  0.11674260985E+03  0.66774560944E+03  0.71133530049E+03  0.17258134909E+03 0.  0.
         24    2    3    3    0    0 -0.48067718339E+02  0.10391912272E+03  0.55156617569E+03  0.56895690184E+03  0.79856248118E+02 0.  0.
         -6    2    1    2    0  502  0.12923061477E+03 -0.11674260985E+03  0.91910274593E+03  0.95135829263E+03  0.17321476446E+03 0.  0.
        -24    2    5    5    0    0  0.11610203074E+03 -0.15139735034E+03  0.76215927225E+03  0.79003050616E+03  0.82828770074E+02 0.  0.
          5    1    3    3  501    0 -0.81162896429E+02  0.12823487129E+02  0.11617943374E+03  0.14237839866E+03  0.47000000000E+01 0. -1.
        -11    1    4    4    0    0  0.16642335379E+02  0.11680074335E+01  0.98369620913E+02  0.99774314765E+02  0.00000000000E+00 0.  1.
         12    1    4    4    0    0 -0.64710053719E+02  0.10275111529E+03  0.45319655478E+03  0.46918258707E+03  0.00000000000E+00 0. -1.
         -5    1    5    5    0  502  0.13128584033E+02  0.34654740486E+02  0.15694347368E+03  0.16132778647E+03  0.47000000000E+01 0.  1.
         11    1    6    6    0    0  0.10072008376E+02 -0.78836022413E+02  0.28421944873E+03  0.29512244716E+03  0.00000000000E+00 0. -1.
        -12    1    6    6    0    0  0.10603002236E+03 -0.72561327925E+02  0.47793982352E+03  0.49490805899E+03  0.00000000000E+00 0.  1.
</event>
<event>
12    1  0.8493057E-002  0.2321642E+03  0.7818608E-02  0.1125272E+00
         21   -1    0    0  501  502  0.00000000000E+00  0.00000000000E+00  0.49505825083E+02  0.49505825083E+02  0.00000000000E+00 0. -1.
         21   -1    0    0  502  503 -0.00000000000E+00 -0.00000000000E+00 -0.10895411553E+04  0.10895411553E+04  0.00000000000E+00 0. -1.
         -6    2    1    2    0  503 -0.12868943820E+03 -0.86485027569E+02 -0.48349271276E+03  0.53634451328E+03  0.17279931173E+03 0.  0.
        -24    2    3    3    0    0 -0.11315683649E+03 -0.57934617332E+02 -0.19879222655E+03  0.24975622935E+03  0.81847023333E+02 0.  0.
          6    2    1    2  501    0  0.12868943820E+03  0.86485027569E+02 -0.55654261747E+03  0.60270246712E+03  0.17166813133E+03 0.  0.
         24    2    5    5    0    0  0.58868879377E+02  0.10946838806E+03 -0.27951387412E+03  0.31604908770E+03  0.79436434098E+02 0.  0.
          5    1    5    5  501    0  0.69820558821E+02 -0.22983360495E+02 -0.27702874335E+03  0.28665337942E+03  0.47000000000E+01 0. -1.
        -13    1    6    6    0    0  0.44776652846E+01 -0.12172228419E+02 -0.38882402757E+02  0.40988460269E+02  0.00000000000E+00 0.  1.
         14    1    6    6    0    0  0.54391214092E+02  0.12164061648E+03 -0.24063147137E+03  0.27506062743E+03  0.00000000000E+00 0. -1.
         -5    1    3    3    0  503 -0.15532601706E+02 -0.28550410237E+02 -0.28470048621E+03  0.28658828393E+03  0.47000000000E+01 0.  1.
         13    1    4    4    0    0 -0.65028024191E+02 -0.26502156543E+02 -0.17308294737E+03  0.18678521061E+03  0.00000000000E+00 0. -1.
        -14    1    4    4    0    0 -0.48128812301E+02 -0.31432460789E+02 -0.25709279185E+02  0.62971018738E+02  0.00000000000E+00 0.  1.
</event>
<event>
12    1  0.8493057E-002  0.2143791E+03  0.7818608E-02  0.1138364E+00
         21   -1    0    0  501  502  0.00000000000E+00  0.00000000000E+00  0.17977988847E+03  0.17977988847E+03  0.00000000000E+00 0.  1.
         21   -1    0    0  502  503 -0.00000000000E+00 -0.00000000000E+00 -0.25672013947E+03  0.25672013947E+03  0.00000000000E+00 0.  1.
         -6    2    1    2    0  503 -0.18789639433E+02  0.12625634160E+03 -0.59636046397E+02  0.22142366932E+03  0.17081647743E+03 0.  0.
        -24    2    3    3    0    0  0.49064275272E+02  0.86470624003E+02 -0.62880509091E+02  0.14255876202E+03  0.80526829569E+02 0.  0.
          6    2    1    2  501    0  0.18789639433E+02 -0.12625634160E+03 -0.17304204601E+02  0.21507635862E+03  0.17223440480E+03 0.  0.
         24    2    5    5    0    0  0.67289020598E+02 -0.12849996027E+03 -0.18568717153E+02  0.16628176066E+03  0.79150329053E+02 0.  0.
          5    1    5    5  501    0 -0.48499381165E+02  0.22436186731E+01  0.12645125525E+01  0.48794597961E+02  0.47000000000E+01 0. -1.
        -11    1    6    6    0    0  0.46834816446E+02 -0.64723674015E+02 -0.47915161398E+02  0.93158556780E+02  0.00000000000E+00 0.  1.
         12    1    6    6    0    0  0.20454204152E+02 -0.63776286257E+02  0.29346444245E+02  0.73123203882E+02  0.00000000000E+00 0. -1.
         -5    1    3    3    0  503 -0.67853914706E+02  0.39785717595E+02  0.32444626947E+01  0.78864907301E+02  0.47000000000E+01 0.  1.
         11    1    4    4    0    0  0.20518695937E+02 -0.71473811602E+01  0.63948252004E+01  0.22649409038E+02  0.00000000000E+00 0. -1.
        -12    1    4    4    0    0  0.28545579335E+02  0.93618005163E+02 -0.69275334292E+02  0.11990935298E+03  0.00000000000E+00 0.  1.
</event>
<event>
12    1  0.8493057E-002  0.1956874E+03  0.7818608E-02  0.1153617E+00
         21   -1    0    0  503  502  0.00000000000E+00  0.00000000000E+00  0.54165954919E+03  0.54165954919E+03  0.00000000000E+00 0. -1.
         21   -1    0    0  501  503 -0.00000000000E+00 -0.00000000000E+00 -0.72249181446E+02  0.72249181446E+02  0.00000000000E+00 0. -1.
          6    2    1    2  501    0 -0.62496448360E+02 -0.67834054885E+02  0.18490231862E+03  0.26859958241E+03  0.17160886684E+03 0.  0.
         24    2    3    3    0    0  0.32008244396E+02 -0.36395485167E+02  0.10939207066E+03  0.14352597142E+03  0.79271182010E+02 0.  0.
         -6    2    1    2    0  502  0.62496448360E+02  0.67834054885E+02  0.28450804912E+03  0.34530914822E+03  0.17258711648E+03 0.  0.
        -24    2    5    5    0    0  0.18158944255E+02  0.78182380967E+01  0.24973927629E+03  0.26285509982E+03  0.79575280540E+02 0.  0.
          5    1    3    3  501    0 -0.94504692757E+02 -0.31438569718E+02  0.75510247960E+02  0.12507361099E+03  0.47000000000E+01 0. -1.
        -11    1    4    4    0    0  0.33920846063E+02 -0.15703864416E+02  0.57475713420E+01  0.37818907064E+02  0.00000000000E+00 0.  1.
         12    1    4    4    0    0 -0.19126016664E+01 -0.20691620751E+02  0.10364449932E+03  0.10570706435E+03  0.00000000000E+00 0. -1.
         -5    1    5    5    0  502  0.44337504105E+02  0.60015816788E+02  0.34768772821E+02  0.82454048406E+02  0.47000000000E+01 0.  1.
         11    1    6    6    0    0  0.18625369626E+02 -0.26606492903E+02  0.46491906061E+02  0.56712495867E+02  0.00000000000E+00 0. -1.
        -12    1    6    6    0    0 -0.46642537081E+00  0.34424730999E+02  0.20324737023E+03  0.20614260395E+03  0.00000000000E+00 0.  1.
</event>
<event>
12    1  0.8493057E-002  0.1976428E+03  0.7818608E-02  0.1151819E+00
         21   -1    0    0  503  502  0.00000000000E+00  0.00000000000E+00  0.54239182179E+03  0.54239182179E+03  0.00000000000E+00 0. -1.
         21   -1    0    0  501  503 -0.00000000000E+00 -0.00000000000E+00 -0.74028231699E+02  0.74028231699E+02  0.00000000000E+00 0. -1.
          6    2    1    2  501    0 -0.31879275639E+02  0.93719170522E+02  0.18159514359E+03  0.26814024474E+03  0.17065410494E+03 0.  0.
         24    2    3    3    0    0 -0.39599007954E+02  0.72514545247E+02  0.41803779741E+02  0.12646122086E+03  0.86130387652E+02 0.  0.
         -6    2    1    2    0  502  0.31879275639E+02 -0.93719170522E+02  0.28676844651E+03  0.34827980876E+03  0.17106464316E+03 0.  0.
        -24    2    5    5    0    0  0.10370228648E+02 -0.89907888539E+02  0.29960509589E+03  0.32251094110E+03  0.77840372427E+02 0.  0.
          5    1    3    3  501    0  0.77197323144E+01  0.21204625275E+02  0.13979136385E+03  0.14167902388E+03  0.47000000000E+01 0. -1.
        -11    1    4    4    0    0  0.66743730108E+01 -0.17165962189E+02  0.72754994065E+01  0.19802787798E+02  0.00000000000E+00 0.  1.
         12    1    4    4    0    0 -0.46273380964E+02  0.89680507437E+02  0.34528280335E+02  0.10665843306E+03  0.00000000000E+00 0. -1.
         -5    1    5    5    0  502  0.21509046991E+02 -0.38112819832E+01 -0.12836649389E+02  0.25768867658E+02  0.47000000000E+01 0.  1.
         11    1    6    6    0    0  0.22373029422E+02 -0.99785949631E+02  0.23930996727E+03  0.26024420958E+03  0.00000000000E+00 0. -1.
        -12    1    6    6    0    0 -0.12002800775E+02  0.98780610916E+01  0.60295128627E+02  0.62266731515E+02  0.00000000000E+00 0.  1.
</event>
<event>
12    1  0.8493057E-002  0.1985205E+03  0.7818608E-02  0.1152624E+00
         21   -1    0    0  503  502  0.00000000000E+00  0.00000000000E+00  0.52559434767E+02  0.52559434767E+02  0.00000000000E+00 0.  1.
         21   -1    0    0  501  503 -0.00000000000E+00 -0.00000000000E+00 -0.72462181200E+03  0.72462181200E+03  0.00000000000E+00 0. -1.
          6    2    1    2  501    0 -0.68415225107E+02 -0.58017147771E+02 -0.31804438703E+03  0.37491684101E+03  0.17709820183E+03 0.  0.
         24    2    3    3    0    0 -0.92234344052E+02 -0.40650732176E+02 -0.12525323478E+03  0.17982849896E+03  0.80562149712E+02 0.  0.
         -6    2    1    2    0  502  0.68415225107E+02  0.58017147771E+02 -0.35401799021E+03  0.40226440576E+03  0.16864543365E+03 0.  0.
        -24    2    5    5    0    0  0.89547560762E+01  0.69173628883E+02 -0.30990719101E+03  0.32724529450E+03  0.78624659906E+02 0.  0.
          5    1    3    3  501    0  0.23819118946E+02 -0.17366415595E+02 -0.19279115225E+03  0.19508834205E+03  0.47000000000E+01 0. -1.
        -13    1    4    4    0    0 -0.10264710908E+03 -0.48003197078E+02 -0.12233246700E+03  0.16675121713E+03  0.00000000000E+00 0.  1.
         14    1    4    4    0    0  0.10412765025E+02  0.73524649017E+01 -0.29207677749E+01  0.13077281828E+02  0.00000000000E+00 0. -1.
         -5    1    5    5    0  502  0.59460469030E+02 -0.11156481112E+02 -0.44110799197E+02  0.75019111258E+02  0.47000000000E+01 0.  1.
         13    1    6    6    0    0 -0.16524923312E+02  0.33684210538E+02 -0.25162187232E+03  0.25440374557E+03  0.00000000000E+00 0. -1.
        -14    1    6    6    0    0  0.25479679388E+02  0.35489418346E+02 -0.58285318689E+02  0.72841548933E+02  0.00000000000E+00 0.  1.
</event>
<event>
12    1  0.8493057E-002  0.1871979E+03  0.7818608E-02  0.1162323E+00
         21   -1    0    0  501  502  0.00000000000E+00  0.00000000000E+00  0.83842336030E+03  0.83842336030E+03  0.00000000000E+00 0.  1.
         21   -1    0    0  502  503 -0.00000000000E+00 -0.00000000000E+00 -0.45366270013E+02  0.45366270013E+02  0.00000000000E+00 0.  1.
         -6    2    1    2    0  503 -0.16787024353E+02 -0.58356093129E+02  0.53504051225E+03  0.56501759719E+03  0.17114116274E+03 0.  0.
        -24    2    3    3    0    0 -0.30406897523E+02 -0.18176213744E+02  0.12455177217E+03  0.15231550198E+03  0.80199214643E+02 0.  0.
          6    2    1    2  501    0  0.16787024353E+02  0.58356093129E+02  0.25801657803E+03  0.31877203313E+03  0.17707573739E+03 0.  0.
         24    2    5    5    0    0  0.54414341585E+02  0.93216179703E+02  0.17504640645E+03  0.22111354650E+03  0.81239025753E+02 0.  0.
          5    1    5    5  501    0 -0.37627317232E+02 -0.34860086575E+02  0.82970171578E+02  0.97658486624E+02  0.47000000000E+01 0. -1.
        -11    1    6    6    0    0  0.35782326917E+02  0.83697871682E+02  0.17805754898E+03  0.19997549698E+03  0.00000000000E+00 0.  1.
         12    1    6    6    0    0  0.18632014667E+02  0.95183080216E+01 -0.30111425279E+01  0.21138049519E+02  0.00000000000E+00 0. -1.
         -5    1    3    3    0  503  0.13619873170E+02 -0.40179879385E+02  0.41048874008E+03  0.41270209521E+03  0.47000000000E+01 0.  1.
         13    1    4    4    0    0 -0.11379021847E+00 -0.58438987112E+01 -0.11224600120E+02  0.12655265632E+02  0.00000000000E+00 0. -1.
        -14    1    4    4    0    0 -0.30293107305E+02 -0.12332315032E+02  0.13577637229E+03  0.13966023635E+03  0.00000000000E+00 0.  1.
</event>
<event>
12    1  0.8493057E-002  0.3534922E+03  0.7818608E-02  0.1061237E+00
         21   -1    0    0  503  502  0.00000000000E+00  0.00000000000E+00  0.28155741513E+03  0.28155741513E+03  0.00000000000E+00 0. -1.
         21   -1    0    0  501  503 -0.00000000000E+00 -0.00000000000E+00 -0.81842564881E+03  0.81842564881E+03  0.00000000000E+00 0.  1.
          6    2    1    2  501    0 -0.20673052113E+03 -0.22909348634E+03 -0.64072623985E+03  0.73154961645E+03  0.17150333244E+03 0.  0.
         24    2    3    3    0    0 -0.40692341037E+02 -0.41969719267E+02 -0.13675430972E+03  0.16888294975E+03  0.80014908203E+02 0.  0.
         -6    2    1    2    0  502  0.20673052113E+03  0.22909348634E+03  0.10385800616E+03  0.36843344750E+03  0.17243951385E+03 0.  0.
        -24    2    5    5    0    0  0.10329171898E+03  0.17778639668E+03  0.12228513610E+03  0.25141356731E+03  0.77317173143E+02 0.  0.
          5    1    3    3  501    0 -0.16603818010E+03 -0.18712376708E+03 -0.50397193013E+03  0.56266666670E+03  0.47000000000E+01 0. -1.
        -13    1    4    4    0    0 -0.29189617978E+02 -0.65397343764E+02 -0.11181862374E+03  0.13278648646E+03  0.00000000000E+00 0.  1.
         14    1    4    4    0    0 -0.11502723058E+02  0.23427624496E+02 -0.24935685977E+02  0.36096463295E+02  0.00000000000E+00 0. -1.
         -5    1    5    5    0  502  0.10343880216E+03  0.51307089664E+02 -0.18427129938E+02  0.11701988019E+03  0.47000000000E+01 0.  1.
         11    1    6    6    0    0  0.19982467515E+01  0.39538530665E+01  0.29546403304E+02  0.29876678068E+02  0.00000000000E+00 0. -1.
        -12    1    6    6    0    0  0.10129347222E+03  0.17383254361E+03  0.92738732798E+02  0.22153688924E+03  0.00000000000E+00 0.  1.
</event>
<event>
12    1  0.8493057E-002  0.2047081E+03  0.7818608E-02  0.1145966E+00
         21   -1    0    0  503  502  0.00000000000E+00  0.00000000000E+00  0.39525792941E+03  0.39525792941E+03  0.00000000000E+00 0. -1.
         21   -1    0    0  501  503 -0.00000000000E+00 -0.00000000000E+00 -0.14786178623E+03  0.14786178623E+03  0.00000000000E+00 0.  1.
          6    2    1    2  501    0  0.28434657435E+02 -0.10493617100E+03 -0.21514594377E+02  0.20515759852E+03  0.17264597514E+03 0.  0.
         24    2    3    3    0    0  0.14604608517E+02  0.10479708290E+02 -0.29328282985E+02  0.88558974283E+02  0.81605299261E+02 0.  0.
         -6    2    1    2    0  502 -0.28434657435E+02  0.10493617100E+03  0.26891073756E+03  0.33796211712E+03  0.17345108275E+03 0.  0.
        -24    2    5    5    0    0 -0.38176260775E+02  0.55650838186E+02  0.53821344193E+02  0.11703344084E+03  0.79029402792E+02 0.  0.
          5    1    3    3  501    0  0.13830048918E+02 -0.11541587929E+03  0.78136886077E+01  0.11659862424E+03  0.47000000000E+01 0. -1.
        -11    1    4    4    0    0  0.31852551979E+02 -0.14002815585E+02 -0.43270345149E+02  0.55524649312E+02  0.00000000000E+00 0.  1.
         12    1    4    4    0    0 -0.17247943462E+02  0.24482523875E+02  0.13942062164E+02  0.33034324972E+02  0.00000000000E+00 0. -1.
         -5    1    5    5    0  502  0.97416033399E+01  0.49285332812E+02  0.21508939336E+03  0.22092867628E+03  0.47000000000E+01 0.  1.
         11    1    6    6    0    0 -0.48277085405E+01 -0.14240066177E+02  0.33881477944E+02  0.37068056357E+02  0.00000000000E+00 0. -1.
        -12    1    6    6    0    0 -0.33348552235E+02  0.69890904363E+02  0.19939866249E+02  0.79965384479E+02  0.00000000000E+00 0.  1.
</event>
<event>
12    1  0.8493057E-002  0.1749058E+03  0.7818608E-02  0.1173258E+00
         21   -1    0    0  503  502  0.00000000000E+00  0.00000000000E+00  0.11246070459E+04  0.11246070459E+04  0.00000000000E+00 0. -1.
         21   -1    0    0  501  503 -0.00000000000E+00 -0.00000000000E+00 -0.26966532690E+02  0.26966532690E+02  0.00000000000E+00 0. -1.
          6    2    1    2  501    0 -0.82938761306E+01  0.21988084481E+02  0.57056374422E+03  0.59677050847E+03  0.17331990458E+03 0.  0.
         24    2    3    3    0    0 -0.34110496262E+02  0.29256411730E+01  0.14427242393E+03  0.16924711219E+03  0.81596368451E+02 0.  0.
         -6    2    1    2    0  502  0.82938761306E+01 -0.21988084481E+02  0.52707676903E+03  0.55480307015E+03  0.17159330396E+03 0.  0.
        -24    2    5    5    0    0 -0.21344374943E+01  0.65118505873E+01  0.51343230990E+03  0.52119864651E+03  0.89377470564E+02 0.  0.
          5    1    3    3  501    0  0.25816620131E+02  0.19062443308E+02  0.42629132028E+03  0.42752339628E+03  0.47000000000E+01 0. -1.
        -11    1    4    4    0    0  0.12632277707E+02  0.25841285203E+02  0.21553076404E+02  0.35942753978E+02  0.00000000000E+00 0.  1.
         12    1    4    4    0    0 -0.46742773969E+02 -0.22915644030E+02  0.12271934753E+03  0.13330435821E+03  0.00000000000E+00 0. -1.
         -5    1    5    5    0  502  0.10428313625E+02 -0.28499935068E+02  0.13644459122E+02  0.33604423647E+02  0.47000000000E+01 0.  1.
         13    1    6    6    0    0  0.26738179113E+02 -0.83707083470E+01  0.56032965808E+02  0.62647364173E+02  0.00000000000E+00 0. -1.
        -14    1    6    6    0    0 -0.28872616607E+02  0.14882558934E+02  0.45739934409E+03  0.45855128233E+03  0.00000000000E+00 0.  1.
</event>
<event>
12    1  0.8493057E-002  0.2164170E+03  0.7818608E-02  0.1137654E+00
         21   -1    0    0  503  502  0.00000000000E+00  0.00000000000E+00  0.31838378072E+03  0.31838378072E+03  0.00000000000E+00 0. -1.
         21   -1    0    0  501  503 -0.00000000000E+00 -0.00000000000E+00 -0.34418275142E+03  0.34418275142E+03  0.00000000000E+00 0. -1.
          6    2    1    2  501    0 -0.12664695397E+03  0.36020052680E+02 -0.26601460325E+03  0.34292867725E+03  0.17175393268E+03 0.  0.
         24    2    3    3    0    0 -0.72292879637E+02  0.68493558799E+02 -0.24406099228E+03  0.27575022064E+03  0.80961646418E+02 0.  0.
         -6    2    1    2    0  502  0.12664695397E+03 -0.36020052680E+02  0.24021563255E+03  0.31963785490E+03  0.16470553425E+03 0.  0.
        -24    2    5    5    0    0  0.11250446278E+03  0.23179502883E+02  0.20662821065E+03  0.24996144321E+03  0.81184740888E+02 0.  0.
          5    1    3    3  501    0 -0.54354074337E+02 -0.32473506119E+02 -0.21953610969E+02  0.67178456601E+02  0.47000000000E+01 0. -1.
        -11    1    4    4    0    0 -0.23371355529E+02  0.63497487381E+02 -0.19449621070E+03  0.20592942272E+03  0.00000000000E+00 0.  1.
         12    1    4    4    0    0 -0.48921524108E+02  0.49960714177E+01 -0.49564781577E+02  0.69820797929E+02  0.00000000000E+00 0. -1.
         -5    1    5    5    0  502  0.14142491197E+02 -0.59199555563E+02  0.33587421900E+02  0.69676411691E+02  0.47000000000E+01 0.  1.
         11    1    6    6    0    0  0.22947904885E+02  0.41913900704E+02  0.88130506838E+02  0.10025152192E+03  0.00000000000E+00 0. -1.
        -12    1    6    6    0    0  0.89556557892E+02 -0.18734397821E+02  0.11849770382E+03  0.14970992129E+03  0.00000000000E+00 0.  1.
</event>
<event>
12    1  0.8493057E-002  0.2208349E+03  0.7818608E-02  0.1133966E+00
         21   -1    0    0  503  502  0.00000000000E+00  0.00000000000E+00  0.22127095783E+03  0.22127095783E+03  0.00000000000E+00 0. -1.
         21   -1    0    0  501  503 -0.00000000000E+00 -0.00000000000E+00 -0.10568259362E+04  0.10568259362E+04  0.00000000000E+00 0. -1.
          6    2    1    2  501    0 -0.11944454821E+03 -0.56698906903E+02 -0.98682676792E+03  0.10104194623E+04  0.17215880365E+03 0.  0.
         24    2    3    3    0    0 -0.14781911946E+03 -0.19938513407E+02 -0.71340694136E+03  0.73304438338E+03  0.78463798201E+02 0.  0.
         -6    2    1    2    0  502  0.11944454821E+03  0.56698906903E+02  0.15127178956E+03  0.26767743176E+03  0.17687930069E+03 0.  0.
        -24    2    5    5    0    0  0.27958862656E+02  0.60730559859E+02  0.14098499214E+03  0.17540721398E+03  0.80131291048E+02 0.  0.
          5    1    3    3  501    0  0.28374571251E+02 -0.36760393495E+02 -0.27341982656E+03  0.27737507887E+03  0.47000000000E+01 0. -1.
        -13    1    4    4    0    0 -0.22044842904E+02  0.15687946064E+02 -0.49712792230E+02  0.56599014670E+02  0.00000000000E+00 0.  1.
         14    1    4    4    0    0 -0.12577427656E+03 -0.35626459471E+02 -0.66369414914E+03  0.67644536871E+03  0.00000000000E+00 0. -1.
         -5    1    5    5    0  502  0.91485685556E+02 -0.40316529560E+01  0.10286797420E+02  0.92270217776E+02  0.47000000000E+01 0.  1.
         13    1    6    6    0    0  0.28496679300E+02  0.58115364416E+02  0.15139999027E+03  0.16465543832E+03  0.00000000000E+00 0. -1.
        -14    1    6    6    0    0 -0.53781664380E+00  0.26151954423E+01 -0.10414998129E+02  0.10751775666E+02  0.00000000000E+00 0.  1.
</event>
<event>
12    1  0.8493057E-002  0.3760450E+03  0.7818608E-02  0.1052426E+00
         21   -1    0    0  503  502  0.00000000000E+00  0.00000000000E+00  0.83805246533E+03  0.83805246533E+03  0.00000000000E+00 0. -1.
         21   -1    0    0  501  503 -0.00000000000E+00 -0.00000000000E+00 -0.16966789977E+03  0.16966789977E+03  0.00000000000E+00 0.  1.
          6    2    1    2  501    0 -0.32673945693E+03  0.70269640488E+02  0.29483468162E+03  0.47767378449E+03  0.17189607271E+03 0.  0.
         24    2    3    3    0    0 -0.31128636074E+03  0.31113632963E+02  0.21684541363E+03  0.38892466039E+03  0.79832333738E+02 0.  0.
         -6    2    1    2    0  502  0.32673945693E+03 -0.70269640488E+02  0.37354988394E+03  0.53004658061E+03  0.17237565584E+03 0.  0.
        -24    2    5    5    0    0  0.52617421234E+02 -0.30873704507E+02  0.95553456683E+02  0.13761947426E+03  0.78018446302E+02 0.  0.
          5    1    3    3  501    0 -0.15453096195E+02  0.39156007525E+02  0.77989267986E+02  0.88749124099E+02  0.47000000000E+01 0. -1.
        -11    1    4    4    0    0 -0.23790341541E+02  0.23125996496E+02  0.37091033718E+02  0.49764815350E+02  0.00000000000E+00 0.  1.
         12    1    4    4    0    0 -0.28749601920E+03  0.79876364670E+01  0.17975437992E+03  0.33915984504E+03  0.00000000000E+00 0. -1.
         -5    1    5    5    0  502  0.27412203570E+03 -0.39395935981E+02  0.27799642726E+03  0.39242710635E+03  0.47000000000E+01 0.  1.
         11    1    6    6    0    0  0.41148011897E+02  0.11253569931E+02  0.81088483101E+02  0.91625017386E+02  0.00000000000E+00 0. -1.
        -12    1    6    6    0    0  0.11469409337E+02 -0.42127274439E+02  0.14464973582E+02  0.45994456871E+02  0.00000000000E+00 0.  1.
</event>
<event>
12    1  0.8493057E-002  0.1940325E+03  0.7818608E-02  0.1155059E+00
         21   -1    0    0  503  502  0.00000000000E+00  0.00000000000E+00  0.11744559136E+03  0.11744559136E+03  0.00000000000E+00 0. -1.
         21   -1    0    0  501  503 -0.00000000000E+00 -0.00000000000E+00 -0.32282385031E+03  0.32282385031E+03  0.00000000000E+00 0. -1.
          6    2    1    2  501    0 -0.86162827713E+02 -0.19240893847E+02 -0.12588155947E+03  0.23058318140E+03  0.17183768986E+03 0.  0.
         24    2    3    3    0    0  0.13241816447E+02 -0.39844824239E+02 -0.43164092342E+02  0.99548550115E+02  0.79270544597E+02 0.  0.
         -6    2    1    2    0  502  0.86162827713E+02  0.19240893847E+02 -0.79496699478E+02  0.20968626026E+03  0.17278413596E+03 0.  0.
        -24    2    5    5    0    0  0.15713863007E+02  0.67587442838E+02 -0.61028113591E+02  0.12214413273E+03  0.79873466136E+02 0.  0.
          5    1    3    3  501    0 -0.99404644161E+02  0.20603930393E+02 -0.82717467130E+02  0.13103463129E+03  0.47000000000E+01 0. -1.
        -11    1    4    4    0    0 -0.88917479436E+01  0.21881343125E+02 -0.16231487271E+02  0.28658638095E+02  0.00000000000E+00 0.  1.
         12    1    4    4    0    0  0.22133564391E+02 -0.61726167364E+02 -0.26932605071E+02  0.70889912019E+02  0.00000000000E+00 0. -1.
         -5    1    5    5    0  502  0.70448964707E+02 -0.48346548991E+02 -0.18468585888E+02  0.87542127529E+02  0.47000000000E+01 0.  1.
         11    1    6    6    0    0 -0.20439575931E+02  0.10700998891E+02  0.91686988802E+01  0.24826451230E+02  0.00000000000E+00 0. -1.
        -12    1    6    6    0    0  0.36153438938E+02  0.56886443947E+02 -0.70196812471E+02  0.97317681502E+02  0.00000000000E+00 0.  1.
</event>
<event>
12    1  0.8493057E-002  0.1832200E+03  0.7818608E-02  0.1165053E+00
         21   -1    0    0  501  502  0.00000000000E+00  0.00000000000E+00  0.17470422052E+03  0.17470422052E+03  0.00000000000E+00 0.  1.
         21   -1    0    0  502  503 -0.00000000000E+00 -0.00000000000E+00 -0.47181546770E+03  0.47181546770E+03  0.00000000000E+00 0.  1.
         -6    2    1    2    0  503 -0.17996165547E+02 -0.59000050559E+02 -0.39830691316E+03  0.43842667574E+03  0.17252444753E+03 0.  0.
        -24    2    3    3    0    0 -0.47761347677E+02 -0.79429160984E+02 -0.18225038136E+03  0.21932434908E+03  0.79358872500E+02 0.  0.
          6    2    1    2  501    0  0.17996165547E+02  0.59000050559E+02  0.10119566597E+03  0.20809301248E+03  0.17104756967E+03 0.  0.
         24    2    5    5    0    0  0.68806266333E+02  0.63385055138E+02  0.97607488265E+02  0.15675238893E+03  0.79322898132E+02 0.  0.
          5    1    5    5  501    0 -0.50810100786E+02 -0.43850045789E+01  0.35881777055E+01  0.51340623548E+02  0.47000000000E+01 0. -1.
        -11    1    6    6    0    0  0.15391351524E+02  0.27871310824E+02 -0.83289606708E+01  0.32910108700E+02  0.00000000000E+00 0.  1.
         12    1    6    6    0    0  0.53414914809E+02  0.35513744314E+02  0.10593644894E+03  0.12384228023E+03  0.00000000000E+00 0. -1.
         -5    1    3    3    0  503  0.29765182130E+02  0.20429110424E+02 -0.21605653179E+03  0.21910232667E+03  0.47000000000E+01 0.  1.
         13    1    4    4    0    0 -0.15157245179E+01  0.97364311105E+01  0.14465338815E+01  0.99593158327E+01  0.00000000000E+00 0. -1.
        -14    1    4    4    0    0 -0.46245623159E+02 -0.89165592094E+02 -0.18369691525E+03  0.20936503325E+03  0.00000000000E+00 0.  1.
</event>
<event>
12    1  0.8493057E-002  0.1787994E+03  0.7818608E-02  0.1169325E+00
         21   -1    0    0  501  502  0.00000000000E+00  0.00000000000E+00  0.14774895108E+04  0.14774895108E+04  0.00000000000E+00 0. -1.
         21   -1    0    0  502  503 -0.00000000000E+00 -0.00000000000E+00 -0.49633068385E+02  0.49633068385E+02  0.00000000000E+00 0. -1.
         -6    2    1    2    0  503  0.12063897126E+02  0.48675875832E+02  0.13743129519E+03  0.22436922685E+03  0.17011558000E+03 0.  0.
        -24    2    3    3    0    0 -0.10952256844E+02  0.65348202592E+02  0.22700274852E+02  0.10607718633E+03  0.79666350920E+02 0.  0.
          6    2    1    2  501    0 -0.12063897126E+02 -0.48675875832E+02  0.12904251472E+04  0.13027533523E+04  0.17162271973E+03 0.  0.
         24    2    5    5    0    0 -0.41938247774E+02  0.17468305098E+02  0.41928217585E+03  0.42857963043E+03  0.76282359180E+02 0.  0.
          5    1    5    5  501    0  0.29874350649E+02 -0.66144180930E+02  0.87114297137E+03  0.87417372190E+03  0.47000000000E+01 0. -1.
        -13    1    6    6    0    0 -0.58791064989E+02 -0.63383859913E+01  0.25892246397E+03  0.26558879270E+03  0.00000000000E+00 0.  1.
         14    1    6    6    0    0  0.16852817215E+02  0.23806691090E+02  0.16035971188E+03  0.16299083773E+03  0.00000000000E+00 0. -1.
         -5    1    3    3    0  503  0.23016153970E+02 -0.16672326760E+02  0.11473102034E+03  0.11829204052E+03  0.47000000000E+01 0.  1.
         11    1    4    4    0    0 -0.69437656695E+01 -0.72401267504E+01  0.31302884619E+02  0.32871049611E+02  0.00000000000E+00 0. -1.
        -12    1    4    4    0    0 -0.40084911743E+01  0.72588329342E+02 -0.86026097675E+01  0.73206136717E+02  0.00000000000E+00 0.  1.
</event>
<event>
12    1  0.8493057E-002  0.1851441E+03  0.7818608E-02  0.1163757E+00
         21   -1    0    0  501  502  0.00000000000E+00  0.00000000000E+00  0.34979604928E+03  0.34979604928E+03  0.00000000000E+00 0.  1.
         21   -1    0    0  502  503 -0.00000000000E+00 -0.00000000000E+00 -0.16298815342E+03  0.16298815342E+03  0.00000000000E+00 0.  1.
         -6    2    1    2    0  503  0.57155820367E+02 -0.35859406361E+02 -0.71360369695E+02  0.19509066262E+03  0.16856861942E+03 0.  0.
        -24    2    3    3    0    0  0.35784372070E+02 -0.63921203089E+00 -0.10891289634E+03  0.13914887906E+03  0.78863563681E+02 0.  0.
          6    2    1    2  501    0 -0.57155820367E+02  0.35859406361E+02  0.25816826555E+03  0.31769354008E+03  0.17241127353E+03 0.  0.
         24    2    5    5    0    0 -0.12764974377E+02  0.85387550530E+02  0.17625879842E+03  0.21207708739E+03  0.80346428781E+02 0.  0.
          5    1    5    5  501    0 -0.44390845990E+02 -0.49528144169E+02  0.81909467130E+02  0.10561645269E+03  0.47000000000E+01 0. -1.
        -13    1    6    6    0    0  0.12376640787E+02  0.50041592886E+02  0.15582323921E+03  0.16412868163E+03  0.00000000000E+00 0.  1.
         14    1    6    6    0    0 -0.25141615165E+02  0.35345957643E+02  0.20435559219E+02  0.47948405765E+02  0.00000000000E+00 0. -1.
         -5    1    3    3    0  503  0.21371448297E+02 -0.35220194330E+02  0.37552526649E+02  0.55941783567E+02  0.47000000000E+01 0.  1.
         13    1    4    4    0    0 -0.13815132054E+02 -0.17519533628E+02 -0.71146506297E+02  0.74562841218E+02  0.00000000000E+00 0. -1.
        -14    1    4    4    0    0  0.49599504124E+02  0.16880321597E+02 -0.37766390047E+02  0.64586037839E+02  0.00000000000E+00 0.  1.
</event>
<event>
12    1  0.8493057E-002  0.1958635E+03  0.7818608E-02  0.1153805E+00
         21   -1    0    0  501  502  0.00000000000E+00  0.00000000000E+00  0.12752990122E+03  0.12752990122E+03  0.00000000000E+00 0.  1.
         21   -1    0    0  502  503 -0.00000000000E+00 -0.00000000000E+00 -0.30986491335E+03  0.30986491335E+03  0.00000000000E+00 0. -1.
         -6    2    1    2    0  503 -0.76697734085E+02 -0.47888419968E+02 -0.13609320200E+03  0.23850336576E+03  0.17374306508E+03 0.  0.
        -24    2    3    3    0    0 -0.38635085381E+02 -0.55429173345E+02 -0.16107686597E+03  0.19211477176E+03  0.79982908777E+02 0.  0.
          6    2    1    2  501    0  0.76697734085E+02  0.47888419968E+02 -0.46241810124E+02  0.19889144881E+03  0.17100777825E+03 0.  0.
         24    2    5    5    0    0  0.35011055777E+02 -0.41076492634E+01  0.36169986445E+02  0.92801088369E+02  0.77853241898E+02 0.  0.
          5    1    5    5  501    0  0.41686678308E+02  0.51996069231E+02 -0.82411796569E+02  0.10609036044E+03  0.47000000000E+01 0. -1.
        -13    1    6    6    0    0  0.57110602617E+02  0.89058563138E+01  0.34008960875E+02  0.67063735563E+02  0.00000000000E+00 0.  1.
         14    1    6    6    0    0 -0.22099546840E+02 -0.13013505577E+02  0.21610255703E+01  0.25737352806E+02  0.00000000000E+00 0. -1.
         -5    1    3    3    0  503 -0.38062648705E+02  0.75407533776E+01  0.24983663967E+02  0.46388593998E+02  0.47000000000E+01 0.  1.
         11    1    4    4    0    0  0.58547836397E+01  0.86737480920E+01 -0.75829300203E+02  0.76547992571E+02  0.00000000000E+00 0. -1.
        -12    1    4    4    0    0 -0.44489869020E+02 -0.64102921437E+02 -0.85247565769E+02  0.11556677919E+03  0.00000000000E+00 0.  1.
</event>
<event>
12    1  0.8493057E-002  0.2171638E+03  0.7818608E-02  0.1136592E+00
         21   -1    0    0  501  502  0.00000000000E+00  0.00000000000E+00  0.66251991604E+02  0.66251991604E+02  0.00000000000E+00 0.  1.
         21   -1    0    0  502  503 -0.00000000000E+00 -0.00000000000E+00 -0.10152358583E+04  0.10152358583E+04  0.00000000000E+00 0. -1.
         -6    2    1    2    0  503  0.48762569499E+02 -0.11877026610E+03 -0.77256581828E+03  0.80169605355E+03  0.17138977334E+03 0.  0.
        -24    2    3    3    0    0  0.50530444834E+02 -0.45583481853E+00 -0.29767792461E+03  0.31226574023E+03  0.79650562365E+02 0.  0.
          6    2    1    2  501    0 -0.48762569499E+02  0.11877026610E+03 -0.17641804838E+03  0.27979179633E+03  0.17514553149E+03 0.  0.
         24    2    5    5    0    0 -0.87406519812E+02  0.77704347437E+02 -0.68886929619E+02  0.15828131911E+03  0.81422979491E+02 0.  0.
          5    1    5    5  501    0  0.38643950313E+02  0.41065918662E+02 -0.10753111877E+03  0.12151047722E+03  0.47000000000E+01 0. -1.
        -11    1    6    6    0    0 -0.56240385922E+02 -0.24885957990E+01 -0.23451718085E+02  0.60984893202E+02  0.00000000000E+00 0.  1.
         12    1    6    6    0    0 -0.31166133890E+02  0.80192943236E+02 -0.45435211534E+02  0.97296425904E+02  0.00000000000E+00 0. -1.
         -5    1    3    3    0  503 -0.17678753354E+01 -0.11831443128E+03 -0.47488789368E+03  0.48943031332E+03  0.47000000000E+01 0.  1.
         13    1    4    4    0    0  0.40695003450E+02  0.30770586238E+02 -0.10399722052E+03  0.11583753347E+03  0.00000000000E+00 0. -1.
        -14    1    4    4    0    0  0.98354413846E+01 -0.31226421057E+02 -0.19368070408E+03  0.19642820677E+03  0.00000000000E+00 0.  1.
</event>
<event>
12    1  0.8493057E-002  0.2931645E+03  0.7818608E-02  0.1088723E+00
         21   -1    0    0  501  502  0.00000000000E+00  0.00000000000E+00  0.41391023566E+03  0.41391023566E+03  0.00000000000E+00 0.  1.
         21   -1    0    0  502  503 -0.00000000000E+00 -0.00000000000E+00 -0.29492641279E+03  0.29492641279E+03  0.00000000000E+00 0. -1.
         -6    2    1    2    0  503  0.23371291038E+03 -0.41985998387E+02 -0.13341343636E+03  0.32199067605E+03  0.17173905183E+03 0.  0.
        -24    2    3    3    0    0  0.93108693625E+02 -0.81383437415E+02 -0.64448108588E+02  0.16043569963E+03  0.79331975283E+02 0.  0.
          6    2    1    2  501    0 -0.23371291038E+03  0.41985998387E+02  0.25239725924E+03  0.38684597240E+03  0.17193278150E+03 0.  0.
         24    2    5    5    0    0 -0.24071001764E+03  0.44292257877E+01  0.20876053914E+03  0.32865899775E+03  0.80466412020E+02 0.  0.
          5    1    5    5  501    0  0.69971072664E+01  0.37556772600E+02  0.43636720097E+02  0.58186974651E+02  0.47000000000E+01 0. -1.
        -13    1    6    6    0    0 -0.15979395273E+03 -0.21993346407E+02  0.97164238005E+02  0.18830481609E+03  0.00000000000E+00 0.  1.
         14    1    6    6    0    0 -0.80916064918E+02  0.26422572194E+02  0.11159630113E+03  0.14035418166E+03  0.00000000000E+00 0. -1.
         -5    1    3    3    0  503  0.14060421675E+03  0.39397439028E+02 -0.68965327776E+02  0.16155497642E+03  0.47000000000E+01 0.  1.
         13    1    4    4    0    0  0.44640697159E+02 -0.19767831615E+02 -0.65916719286E+02  0.82027878743E+02  0.00000000000E+00 0. -1.
        -14    1    4    4    0    0  0.48467996465E+02 -0.61615605800E+02  0.14686106975E+01  0.78407820891E+02  0.00000000000E+00 0.  1.
</event>
<event>
12    1  0.8493057E-002  0.2012076E+03  0.7818608E-02  0.1148935E+00
         21   -1    0    0  503  502  0.00000000000E+00  0.00000000000E+00  0.43918255229E+03  0.43918255229E+03  0.00000000000E+00 0.  1.
         21   -1    0    0  501  503 -0.00000000000E+00 -0.00000000000E+00 -0.13919771858E+03  0.13919771858E+03  0.00000000000E+00 0. -1.
          6    2    1    2  501    0  0.10109384094E+03 -0.26783802141E+02 -0.18651262101E+02  0.20207015636E+03  0.17189282062E+03 0.  0.
         24    2    3    3    0    0 -0.61920945977E+00  0.26515727656E+02 -0.39599194599E+02  0.85248538611E+02  0.70680618906E+02 0.  0.
         -6    2    1    2    0  502 -0.10109384094E+03  0.26783802141E+02  0.31863609581E+03  0.37631011452E+03  0.17071322151E+03 0.  0.
        -24    2    5    5    0    0 -0.13351781881E+03  0.36412125104E+02  0.22049707399E+03  0.27239968892E+03  0.80185909543E+02 0.  0.
          5    1    3    3  501    0  0.10171305040E+03 -0.53299529797E+02  0.20947932498E+02  0.11682161775E+03  0.47000000000E+01 0. -1.
        -13    1    4    4    0    0 -0.10499037316E+02 -0.19997552988E+02  0.11650378419E+01  0.22616127503E+02  0.00000000000E+00 0.  1.
         14    1    4    4    0    0  0.98798278561E+01  0.46513280644E+02 -0.40764232441E+02  0.62632411108E+02  0.00000000000E+00 0. -1.
         -5    1    5    5    0  502  0.32423977869E+02 -0.96283229631E+01  0.98139021822E+02  0.10391042560E+03  0.47000000000E+01 0.  1.
         13    1    6    6    0    0 -0.58903698188E+02  0.18393282419E+01  0.32723057580E+02  0.67407917087E+02  0.00000000000E+00 0. -1.
        -14    1    6    6    0    0 -0.74614120621E+02  0.34572796862E+02  0.18777401641E+03  0.20499177183E+03  0.00000000000E+00 0.  1.
</event>
<event>
12    1  0.8493057E-002  0.1733530E+03  0.7818608E-02  0.1174405E+00
         21   -1    0    0  501  502  0.00000000000E+00  0.00000000000E+00  0.35667950546E+03  0.35667950546E+03  0.00000000000E+00 0.  1.
         21   -1    0    0  502  503 -0.00000000000E+00 -0.00000000000E+00 -0.85023121531E+02  0.85023121531E+02  0.00000000000E+00 0.  1.
         -6    2    1    2    0  503  0.20320118028E+02 -0.63759407674E+01  0.11455746772E+03  0.20775531245E+03  0.17200376921E+03 0.  0.
        -24    2    3    3    0    0  0.62897184243E+02 -0.46645721621E+02  0.90291379307E+02  0.14415189380E+03  0.80593772565E+02 0.  0.
          6    2    1    2  501    0 -0.20320118028E+02  0.63759407674E+01  0.15709891621E+03  0.23394731454E+03  0.17203986948E+03 0.  0.
         24    2    5    5    0    0  0.11839657593E+02  0.43682888424E+01  0.17685406534E+03  0.19586007585E+03  0.83213877715E+02 0.  0.
          5    1    5    5  501    0 -0.32159775621E+02  0.20076519250E+01 -0.19755149130E+02  0.38087238695E+02  0.47000000000E+01 0. -1.
        -13    1    6    6    0    0 -0.12752574191E+02 -0.29725876709E+02  0.33911102355E+02  0.46863832083E+02  0.00000000000E+00 0.  1.
         14    1    6    6    0    0  0.24592231784E+02  0.34094165552E+02  0.14294296299E+03  0.14899624377E+03  0.00000000000E+00 0. -1.
         -5    1    3    3    0  503 -0.42577066215E+02  0.40269780854E+02  0.24266088411E+02  0.63603418652E+02  0.47000000000E+01 0.  1.
         13    1    4    4    0    0 -0.18035615428E+02 -0.19859347273E+02  0.26184231039E+02  0.37487211860E+02  0.00000000000E+00 0. -1.
        -14    1    4    4    0    0  0.80932799670E+02 -0.26786374348E+02  0.64107148268E+02  0.10666468193E+03  0.00000000000E+00 0.  1.
</event>
<event>
12    1  0.8493057E-002  0.1800375E+03  0.7818608E-02  0.1169778E+00
         21   -1    0    0  503  502  0.00000000000E+00  0.00000000000E+00  0.87236301595E+03  0.87236301595E+03  0.00000000000E+00 0.  1.
         21   -1    0    0  501  503 -0.00000000000E+00 -0.00000000000E+00 -0.68666932080E+02  0.68666932080E+02  0.00000000000E+00 0.  1.
          6    2    1    2  501    0  0.11438062867E+02 -0.49704805808E+02  0.70102939954E+02  0.18566752382E+03  0.16418468324E+03 0.  0.
         24    2    3    3    0    0  0.15885402062E+02 -0.13169944107E+02 -0.24066895554E+02  0.84451799426E+02  0.78275778746E+02 0.  0.
         -6    2    1    2    0  502 -0.11438062867E+02  0.49704805808E+02  0.73359314392E+03  0.75536242421E+03  0.17266179109E+03 0.  0.
        -24    2    5    5    0    0  0.17704316349E+02  0.42294216592E+02  0.19486540785E+03  0.21577567613E+03  0.80525596283E+02 0.  0.
          5    1    3    3  501    0 -0.44473391949E+01 -0.36534861701E+02  0.94169835508E+02  0.10121572440E+03  0.47000000000E+01 0. -1.
        -13    1    4    4    0    0 -0.13716712731E+02  0.25999915327E+02  0.81859736395E+00  0.29407718490E+02  0.00000000000E+00 0.  1.
         14    1    4    4    0    0  0.29602114792E+02 -0.39169859434E+02 -0.24885492918E+02  0.55044080935E+02  0.00000000000E+00 0. -1.
         -5    1    5    5    0  502 -0.29142379216E+02  0.74105892155E+01  0.53872773606E+03  0.53958674808E+03  0.47000000000E+01 0.  1.
         11    1    6    6    0    0 -0.27236917041E+02  0.33432122937E+02  0.64416070755E+02  0.77517653896E+02  0.00000000000E+00 0. -1.
        -12    1    6    6    0    0  0.44941233391E+02  0.88620936553E+01  0.13044933710E+03  0.13825802223E+03  0.00000000000E+00 0.  1.
</event>
<event>
12    1  0.8493057E-002  0.1738048E+03  0.7818608E-02  0.1174071E+00
         21   -1    0    0  501  502  0.00000000000E+00  0.00000000000E+00  0.55354247039E+03  0.55354247039E+03  0.00000000000E+00 0.  1.
         21   -1    0    0  502  503 -0.00000000000E+00 -0.00000000000E+00 -0.15539146544E+03  0.15539146544E+03  0.00000000000E+00 0.  1.
         -6    2    1    2    0  503  0.95825746657E+01  0.19525350545E+02 -0.86783356554E+02  0.19379373240E+03  0.17190577271E+03 0.  0.
        -24    2    3    3    0    0  0.18262389763E+02  0.70696386886E+02 -0.21925331182E+02  0.11059236459E+03  0.80115272949E+02 0.  0.
          6    2    1    2  501    0 -0.95825746657E+01 -0.19525350545E+02  0.48493436150E+03  0.51514020344E+03  0.17243847940E+03 0.  0.
         24    2    5    5    0    0  0.18276374214E+02  0.73282222513E+01  0.12395868214E+03  0.15206615245E+03  0.85852379981E+02 0.  0.
          5    1    5    5  501    0 -0.27858948880E+02 -0.26853572797E+02  0.36097567937E+03  0.36307405098E+03  0.47000000000E+01 0. -1.
        -13    1    6    6    0    0  0.66644736656E+01  0.28390840832E+02  0.12463891051E+03  0.12800512906E+03  0.00000000000E+00 0.  1.
         14    1    6    6    0    0  0.11611900548E+02 -0.21062618581E+02 -0.68022837670E+00  0.24061023388E+02  0.00000000000E+00 0. -1.
         -5    1    3    3    0  503 -0.86798150969E+01 -0.51171036341E+02 -0.64858025371E+02  0.83201367810E+02  0.47000000000E+01 0.  1.
         13    1    4    4    0    0  0.43398510962E+02  0.46976751408E+02  0.85377136236E+01  0.64522387436E+02  0.00000000000E+00 0. -1.
        -14    1    4    4    0    0 -0.25136121200E+02  0.23719635479E+02 -0.30463044806E+02  0.46069977155E+02  0.00000000000E+00 0.  1.
</event>
<event>
12    1  0.8493057E-002  0.3115279E+03  0.7818608E-02  0.1079635E+00
         21   -1    0    0  501  502  0.00000000000E+00  0.00000000000E+00  0.31156883303E+03  0.31156883303E+03  0.00000000000E+00 0. -1.
         21   -1    0    0  502  503 -0.00000000000E+00 -0.00000000000E+00 -0.48169256813E+03  0.48169256813E+03  0.00000000000E+00 0. -1.
         -6    2    1    2    0  503  0.19423972729E+03  0.17202237422E+03 -0.32093021825E+03  0.44715122967E+03  0.17212567595E+03 0.  0.
        -24    2    3    3    0    0  0.18648992962E+03  0.10080899656E+03 -0.29531456346E+03  0.37093012831E+03  0.73739548843E+02 0.  0.
          6    2    1    2  501    0 -0.19423972729E+03 -0.17202237422E+03  0.15080648315E+03  0.34611017149E+03  0.17242066744E+03 0.  0.
         24    2    5    5    0    0 -0.18720223156E+03 -0.18227726731E+03  0.17076584004E+03  0.32212777991E+03  0.79596839074E+02 0.  0.
          5    1    5    5  501    0 -0.70374957368E+01  0.10254893091E+02 -0.19959356889E+02  0.23982391582E+02  0.47000000000E+01 0. -1.
        -13    1    6    6    0    0 -0.12475759028E+03 -0.78464782276E+02  0.12278423527E+03  0.19182582418E+03  0.00000000000E+00 0.  1.
         14    1    6    6    0    0 -0.62444641274E+02 -0.10381248503E+03  0.47981604767E+02  0.13030195573E+03  0.00000000000E+00 0. -1.
         -5    1    3    3    0  503  0.77497976763E+01  0.71213377658E+02 -0.25615654785E+02  0.76221101354E+02  0.47000000000E+01 0.  1.
         11    1    4    4    0    0  0.43990676545E+02 -0.72431816449E+01 -0.74006334536E+02  0.86397805845E+02  0.00000000000E+00 0. -1.
        -12    1    4    4    0    0  0.14249925307E+03  0.10805217820E+03 -0.22130822892E+03  0.28453232247E+03  0.00000000000E+00 0.  1.
</event>
<event>
12    1  0.8493057E-002  0.1951195E+03  0.7818608E-02  0.1154026E+00
         21   -1    0    0  503  502  0.00000000000E+00  0.00000000000E+00  0.18265912001E+03  0.18265912001E+03  0.00000000000E+00 0. -1.
         21   -1    0    0  501  503 -0.00000000000E+00 -0.00000000000E+00 -0.81775083202E+03  0.81775083202E+03  0.00000000000E+00 0. -1.
          6    2    1    2  501    0  0.59048436952E+01 -0.91752492707E+02 -0.74940470643E+03  0.77427042223E+03  0.17156306605E+03 0.  0.
         24    2    3    3    0    0  0.18448054484E+02 -0.13024871095E+03 -0.59096752694E+03  0.61067420957E+03  0.79845569131E+02 0.  0.
         -6    2    1    2    0  502 -0.59048436952E+01  0.91752492707E+02  0.11431299443E+03  0.22613952979E+03  0.17209950361E+03 0.  0.
        -24    2    5    5    0    0  0.82445818280E+01  0.11815452348E+03  0.44051353416E+02  0.14961462098E+03  0.80097119330E+02 0.  0.
          5    1    3    3  501    0 -0.12543210789E+02  0.38496218244E+02 -0.15843717949E+03  0.16359621267E+03  0.47000000000E+01 0. -1.
        -11    1    4    4    0    0  0.32599325472E+02 -0.77222151628E+02 -0.21568918949E+03  0.23140398265E+03  0.00000000000E+00 0.  1.
         12    1    4    4    0    0 -0.14151270988E+02 -0.53026559323E+02 -0.37527833745E+03  0.37927022691E+03  0.00000000000E+00 0. -1.
         -5    1    5    5    0  502 -0.14149425523E+02 -0.26402030772E+02  0.70261641011E+02  0.76524908815E+02  0.47000000000E+01 0.  1.
         11    1    6    6    0    0  0.49363606078E+01 -0.48688719992E+01  0.23928095459E+02  0.24912392958E+02  0.00000000000E+00 0. -1.
        -12    1    6    6    0    0  0.33082212202E+01  0.12302339548E+03  0.20123257957E+02  0.12470222802E+03  0.00000000000E+00 0.  1.
</event>
<event>
12    1  0.8493057E-002  0.1972202E+03  0.7818608E-02  0.1153750E+00
         21   -1    0    0  503  502  0.00000000000E+00  0.00000000000E+00  0.62128528796E+03  0.62128528796E+03  0.00000000000E+00 0.  1.
         21   -1    0    0  501  503 -0.00000000000E+00 -0.00000000000E+00 -0.71306694156E+02  0.71306694156E+02  0.00000000000E+00 0.  1.
          6    2    1    2  501    0 -0.70405880813E+02  0.40449157329E+02  0.14313871447E+03  0.24368933485E+03  0.17972945768E+03 0.  0.
         24    2    3    3    0    0 -0.91051568084E+02 -0.99074917372E+01  0.41674920642E+02  0.12845467008E+03  0.79845205308E+02 0.  0.
         -6    2    1    2    0  502  0.70405880813E+02 -0.40449157329E+02  0.40683987934E+03  0.44890264727E+03  0.17146946353E+03 0.  0.
        -24    2    5    5    0    0  0.35600048320E+02  0.58410335652E+00  0.37649548220E+03  0.38695067478E+03  0.81940661301E+02 0.  0.
          5    1    3    3  501    0  0.20645687271E+02  0.50356649066E+02  0.10146379383E+03  0.11523466478E+03  0.47000000000E+01 0. -1.
        -13    1    4    4    0    0 -0.10604267789E+02  0.27850495827E+02 -0.11151989887E+01  0.29821875896E+02  0.00000000000E+00 0.  1.
         14    1    4    4    0    0 -0.80447300295E+02 -0.37757987565E+02  0.42790119630E+02  0.98632794179E+02  0.00000000000E+00 0. -1.
         -5    1    5    5    0  502  0.34805832494E+02 -0.41033260685E+02  0.30344397135E+02  0.61951972491E+02  0.47000000000E+01 0.  1.
         11    1    6    6    0    0 -0.21058760524E+02 -0.75653753133E+01  0.41963860808E+02  0.47557038515E+02  0.00000000000E+00 0. -1.
        -12    1    6    6    0    0  0.56658808843E+02  0.81494786698E+01  0.33453162139E+03  0.33939363626E+03  0.00000000000E+00 0.  1.
</event>
<event>
12    1  0.8493057E-002  0.2106209E+03  0.7818608E-02  0.1141506E+00
         21   -1    0    0  501  502  0.00000000000E+00  0.00000000000E+00  0.64530651009E+03  0.64530651009E+03  0.00000000000E+00 0.  1.
         21   -1    0    0  502  503 -0.00000000000E+00 -0.00000000000E+00 -0.68050718861E+02  0.68050718861E+02  0.00000000000E+00 0. -1.
         -6    2    1    2    0  503 -0.11573696223E+03 -0.25906604823E+02  0.29205486848E+03  0.35881424571E+03  0.17142176093E+03 0.  0.
        -24    2    3    3    0    0 -0.15941995969E+01  0.16542429816E+02  0.12968087356E+03  0.15579233795E+03  0.84722666032E+02 0.  0.
          6    2    1    2  501    0  0.11573696223E+03  0.25906604823E+02  0.28520092275E+03  0.35454298325E+03  0.17405448582E+03 0.  0.
         24    2    5    5    0    0  0.66476089826E+02 -0.36753856058E+02  0.23572032456E+03  0.26061010027E+03  0.81139611154E+02 0.  0.
          5    1    5    5  501    0  0.49260872401E+02  0.62660460881E+02  0.49480598193E+02  0.93932882981E+02  0.47000000000E+01 0.  1.
        -11    1    6    6    0    0  0.18199335765E+01 -0.41198446192E+02  0.55884709479E+02  0.69453040829E+02  0.00000000000E+00 0.  1.
         12    1    6    6    0    0  0.64656156250E+02  0.44445901340E+01  0.17983561508E+03  0.19115705944E+03  0.00000000000E+00 0. -1.
         -5    1    3    3    0  503 -0.11414276263E+03 -0.42449034639E+02  0.16237399492E+03  0.20302190775E+03  0.47000000000E+01 0.  1.
         13    1    4    4    0    0 -0.86419794105E+01 -0.33591176479E+02  0.64775840432E+02  0.73477618695E+02  0.00000000000E+00 0. -1.
        -14    1    4    4    0    0  0.70477798136E+01  0.50133606296E+02  0.64905033131E+02  0.82314719256E+02  0.00000000000E+00 0.  1.
</event>
<event>
12    1  0.8493057E-002  0.1794368E+03  0.7818608E-02  0.1169346E+00
         21   -1    0    0  503  502  0.00000000000E+00  0.00000000000E+00  0.11774016452E+04  0.11774016452E+04  0.00000000000E+00 0. -1.
         21   -1    0    0  501  503 -0.00000000000E+00 -0.00000000000E+00 -0.36884073763E+02  0.36884073763E+02  0.00000000000E+00 0. -1.
          6    2    1    2  501    0  0.44798657437E+02  0.30303853018E+02  0.24702959819E+03  0.30295793423E+03  0.16683717905E+03 0.  0.
         24    2    3    3    0    0  0.45838516013E+02  0.71471756064E+02  0.11044721905E+03  0.16022491828E+03  0.79145781814E+02 0.  0.
         -6    2    1    2    0  502 -0.44798657437E+02 -0.30303853018E+02  0.89348797321E+03  0.91132778470E+03  0.17109158273E+03 0.  0.
        -24    2    5    5    0    0 -0.92308061049E+02 -0.36219481053E+02  0.54974413655E+03  0.56423406057E+03  0.79428146762E+02 0.  0.
          5    1    3    3  501    0 -0.10398585761E+01 -0.41167903046E+02  0.13658237915E+03  0.14273301594E+03  0.47000000000E+01 0. -1.
        -11    1    4    4    0    0 -0.15275690612E+02  0.10853928007E+02  0.54327323360E+02  0.57468361211E+02  0.00000000000E+00 0.  1.
         12    1    4    4    0    0  0.61114206625E+02  0.60617828057E+02  0.56119895687E+02  0.10275655707E+03  0.00000000000E+00 0. -1.
         -5    1    5    5    0  502  0.47509403611E+02  0.59156280350E+01  0.34374383666E+03  0.34709372413E+03  0.47000000000E+01 0.  1.
         13    1    6    6    0    0 -0.35773084025E+02  0.24880391730E+02  0.20537449356E+03  0.20994625512E+03  0.00000000000E+00 0. -1.
        -14    1    6    6    0    0 -0.56534977024E+02 -0.61099872783E+02  0.34436964299E+03  0.35428780546E+03  0.00000000000E+00 0.  1.
</event>
<event>
12    1  0.8493057E-002  0.3263180E+03  0.7818608E-02  0.1073009E+00
         21   -1    0    0  501  502  0.00000000000E+00  0.00000000000E+00  0.14411451269E+03  0.14411451269E+03  0.00000000000E+00 0. -1.
         21   -1    0    0  502  503 -0.00000000000E+00 -0.00000000000E+00 -0.12299570334E+04  0.12299570334E+04  0.00000000000E+00 0. -1.
         -6    2    1    2    0  503 -0.18432673552E+03 -0.20730871842E+03 -0.97806492892E+03  0.10304155660E+04  0.16790468544E+03 0.  0.
        -24    2    3    3    0    0 -0.66454745440E+02 -0.15873023099E+03 -0.47487523747E+03  0.51130514323E+03  0.79466589900E+02 0.  0.
          6    2    1    2  501    0  0.18432673552E+03  0.20730871842E+03 -0.10777759175E+03  0.34365598001E+03  0.17184345538E+03 0.  0.
         24    2    5    5    0    0  0.14197105237E+03  0.62806099617E+02 -0.64897545623E+02  0.18701690733E+03  0.81628710263E+02 0.  0.
          5    1    5    5  501    0  0.42355683150E+02  0.14450261880E+03 -0.42880046123E+02  0.15663907268E+03  0.47000000000E+01 0. -1.
        -13    1    6    6    0    0  0.10916149044E+03  0.81863653496E+02 -0.58840277168E+02  0.14859363033E+03  0.00000000000E+00 0.  1.
         14    1    6    6    0    0  0.32809561935E+02 -0.19057553879E+02 -0.60572684549E+01  0.38423276999E+02  0.00000000000E+00 0. -1.
         -5    1    3    3    0  503 -0.11787199008E+03 -0.48578487429E+02 -0.50318969145E+03  0.51911042281E+03  0.47000000000E+01 0.  1.
         13    1    4    4    0    0 -0.83023496077E+02 -0.12138279978E+03 -0.34166791477E+03  0.37197264545E+03  0.00000000000E+00 0. -1.
        -14    1    4    4    0    0  0.16568750636E+02 -0.37347431211E+02 -0.13320732270E+03  0.13933249778E+03  0.00000000000E+00 0.  1.
</event>
<event>
12    1  0.8493057E-002  0.2120666E+03  0.7818608E-02  0.1140401E+00
         21   -1    0    0  503  502  0.00000000000E+00  0.00000000000E+00  0.93163328637E+03  0.93163328637E+03  0.00000000000E+00 0. -1.
         21   -1    0    0  501  503 -0.00000000000E+00 -0.00000000000E+00 -0.47788446948E+02  0.47788446948E+02  0.00000000000E+00 0.  1.
          6    2    1    2  501    0 -0.89712791991E+02  0.80927014366E+02  0.45997798617E+03  0.50650961640E+03  0.17428332405E+03 0.  0.
         24    2    3    3    0    0 -0.11227396874E+02  0.92903761845E+02  0.21504037471E+03  0.24898306780E+03  0.83624409646E+02 0.  0.
         -6    2    1    2    0  502  0.89712791991E+02 -0.80927014366E+02  0.42386685325E+03  0.47291211692E+03  0.17142110238E+03 0.  0.
        -24    2    5    5    0    0  0.10120600405E+02 -0.67903099517E+02  0.34181145637E+03  0.35776127030E+03  0.80279495179E+02 0.  0.
          5    1    3    3  501    0 -0.78485395117E+02 -0.11976747479E+02  0.24493761146E+03  0.25752654860E+03  0.47000000000E+01 0. -1.
        -11    1    4    4    0    0 -0.38342368839E+02  0.70456734729E+02  0.18862774366E+03  0.20497491162E+03  0.00000000000E+00 0.  1.
         12    1    4    4    0    0  0.27114971965E+02  0.22447027116E+02  0.26412631058E+02  0.44008156181E+02  0.00000000000E+00 0. -1.
         -5    1    5    5    0  502  0.79592191586E+02 -0.13023914849E+02  0.82055396888E+02  0.11515084662E+03  0.47000000000E+01 0.  1.
         13    1    6    6    0    0  0.57535778338E+01  0.15824270845E+02  0.10942917957E+03  0.11071701110E+03  0.00000000000E+00 0. -1.
        -14    1    6    6    0    0  0.43670225709E+01 -0.83727370362E+02  0.23238227680E+03  0.24704425920E+03  0.00000000000E+00 0.  1.
</event>
<event>
12    1  0.8493057E-002  0.1744250E+03  0.7818608E-02  0.1173410E+00
         21   -1    0    0  503  502  0.00000000000E+00  0.00000000000E+00  0.15053509444E+03  0.15053509444E+03  0.00000000000E+00 0. -1.
         21   -1    0    0  501  503 -0.00000000000E+00 -0.00000000000E+00 -0.62765241263E+03  0.62765241263E+03  0.00000000000E+00 0. -1.
          6    2    1    2  501    0  0.13782183389E+02 -0.22009426811E+02 -0.55902576969E+03  0.58548810901E+03  0.17208181532E+03 0.  0.
         24    2    3    3    0    0 -0.46271556515E+02 -0.54696325099E+01 -0.45151980162E+03  0.46115130978E+03  0.81359851489E+02 0.  0.
         -6    2    1    2    0  502 -0.13782183389E+02  0.22009426811E+02  0.81908451497E+02  0.19269939806E+03  0.17248101385E+03 0.  0.
        -24    2    5    5    0    0 -0.53968367925E+02  0.56965663060E+02  0.25578100177E+02  0.11503301949E+03  0.80129176085E+02 0.  0.
          5    1    3    3  501    0  0.60053739903E+02 -0.16539794302E+02 -0.10750596808E+03  0.12433679923E+03  0.47000000000E+01 0. -1.
        -13    1    4    4    0    0 -0.24657045509E+02  0.36468887064E+02 -0.27178438107E+03  0.27532653234E+03  0.00000000000E+00 0.  1.
         14    1    4    4    0    0 -0.21614511006E+02 -0.41938519574E+02 -0.17973542055E+03  0.18582477744E+03  0.00000000000E+00 0. -1.
         -5    1    5    5    0  502  0.40186184537E+02 -0.34956236249E+02  0.56330351320E+02  0.77666378570E+02  0.47000000000E+01 0.  1.
         13    1    6    6    0    0 -0.20790759771E+02  0.29381462140E+02  0.52884806006E+02  0.63971311661E+02  0.00000000000E+00 0. -1.
        -14    1    6    6    0    0 -0.33177608154E+02  0.27584200920E+02 -0.27306705829E+02  0.51061707830E+02  0.00000000000E+00 0.  1.
</event>
<event>
12    1  0.8493057E-002  0.1918400E+03  0.7818608E-02  0.1157145E+00
         21   -1    0    0  501  502  0.00000000000E+00  0.00000000000E+00  0.39367354419E+03  0.39367354419E+03  0.00000000000E+00 0.  1.
         21   -1    0    0  502  503 -0.00000000000E+00 -0.00000000000E+00 -0.94539010286E+02  0.94539010286E+02  0.00000000000E+00 0. -1.
         -6    2    1    2    0  503  0.40696628862E+02 -0.69764931688E+02  0.18246710489E+03  0.26368223451E+03  0.17236796435E+03 0.  0.
        -24    2    3    3    0    0  0.90023872278E+02 -0.65326636873E+02  0.10761263899E+03  0.17380366938E+03  0.79090886678E+02 0.  0.
          6    2    1    2  501    0 -0.40696628862E+02  0.69764931688E+02  0.11666742902E+03  0.22453031997E+03  0.17400923625E+03 0.  0.
         24    2    5    5    0    0 -0.24300565017E+02  0.65955246907E+02  0.15165795557E+03  0.18541802579E+03  0.80243982603E+02 0.  0.
          5    1    5    5  501    0 -0.16396063846E+02  0.38096847809E+01 -0.34990526554E+02  0.39112294184E+02  0.47000000000E+01 0. -1.
        -13    1    6    6    0    0  0.18016800625E+02  0.33131229497E+02  0.18732144352E+02  0.42109104773E+02  0.00000000000E+00 0.  1.
         14    1    6    6    0    0 -0.42317365642E+02  0.32824017409E+02  0.13292581122E+03  0.14330892102E+03  0.00000000000E+00 0. -1.
         -5    1    3    3    0  503 -0.49327243416E+02 -0.44382948147E+01  0.74854465896E+02  0.89878565122E+02  0.47000000000E+01 0.  1.
         13    1    4    4    0    0  0.39412786339E+02 -0.50213660029E+01 -0.89752466343E+00  0.39741507194E+02  0.00000000000E+00 0. -1.
        -14    1    4    4    0    0  0.50611085939E+02 -0.60305270870E+02  0.10851016365E+03  0.13406216219E+03  0.00000000000E+00 0.  1.
</event>
<event>
12    1  0.8493057E-002  0.1825004E+03  0.7818608E-02  0.1165631E+00
         21   -1    0    0  503  502  0.00000000000E+00  0.00000000000E+00  0.52811544573E+03  0.52811544573E+03  0.00000000000E+00 0.  1.
         21   -1    0    0  501  503 -0.00000000000E+00 -0.00000000000E+00 -0.75187742119E+02  0.75187742119E+02  0.00000000000E+00 0.  1.
          6    2    1    2  501    0  0.43805734566E+02  0.40092596007E+02  0.34969712702E+03  0.39445467981E+03  0.17256898663E+03 0.  0.
         24    2    3    3    0    0  0.88463916182E+02  0.50049845597E+01  0.17831863409E+03  0.21384966466E+03  0.77995060563E+02 0.  0.
         -6    2    1    2    0  502 -0.43805734566E+02 -0.40092596007E+02  0.10323057659E+03  0.20884850804E+03  0.17156569800E+03 0.  0.
        -24    2    5    5    0    0 -0.42866759556E+01 -0.82486378767E+02  0.98839519957E+02  0.15053590058E+03  0.77906536218E+02 0.  0.
          5    1    3    3  501    0 -0.44658181616E+02  0.35087611447E+02  0.17137849293E+03  0.18060501516E+03  0.47000000000E+01 0. -1.
        -13    1    4    4    0    0  0.47664394924E+02 -0.25790242535E+02  0.13951992623E+03  0.14967578618E+03  0.00000000000E+00 0.  1.
         14    1    4    4    0    0  0.40799521258E+02  0.30795227095E+02  0.38798707860E+02  0.64173878473E+02  0.00000000000E+00 0. -1.
         -5    1    5    5    0  502 -0.39519058611E+02  0.42393782760E+02  0.43910566375E+01  0.58312607458E+02  0.47000000000E+01 0.  1.
         11    1    6    6    0    0  0.34136683130E+02 -0.36734218681E+02  0.26515431949E+02  0.56725515323E+02  0.00000000000E+00 0. -1.
        -12    1    6    6    0    0 -0.38423359086E+02 -0.45752160085E+02  0.72324088008E+02  0.93810385257E+02  0.00000000000E+00 0.  1.
</event>
<event>
12    1  0.8493057E-002  0.1831516E+03  0.7818608E-02  0.1165399E+00
         21   -1    0    0  501  502  0.00000000000E+00  0.00000000000E+00  0.33360146694E+02  0.33360146694E+02  0.00000000000E+00 0.  1.
         21   -1    0    0  502  503 -0.00000000000E+00 -0.00000000000E+00 -0.13620460174E+04  0.13620460174E+04  0.00000000000E+00 0.  1.
         -6    2    1    2    0  503  0.14408654444E+02 -0.59457538041E+02 -0.10248445052E+04  0.10406328568E+04  0.16990489917E+03 0.  0.
        -24    2    3    3    0    0  0.13562549010E+02  0.31372149812E+02 -0.40904283927E+03  0.41815030300E+03  0.79783939598E+02 0.  0.
          6    2    1    2  501    0 -0.14408654444E+02  0.59457538041E+02 -0.30384136549E+03  0.35477330723E+03  0.17263173517E+03 0.  0.
         24    2    5    5    0    0 -0.19711183270E+02  0.10663970212E+03 -0.23810453791E+03  0.27354711737E+03  0.79835440957E+02 0.  0.
          5    1    5    5  501    0  0.53025288263E+01 -0.47182164079E+02 -0.65736827577E+02  0.81226189859E+02  0.47000000000E+01 0. -1.
        -11    1    6    6    0    0 -0.50805286900E+02  0.64420075421E+02 -0.15220154137E+03  0.17290584863E+03  0.00000000000E+00 0.  1.
         12    1    6    6    0    0  0.31094103630E+02  0.42219626698E+02 -0.85902996543E+02  0.10064126874E+03  0.00000000000E+00 0. -1.
         -5    1    3    3    0  503  0.84610543434E+00 -0.90829687852E+02 -0.61580166592E+03  0.62248255384E+03  0.47000000000E+01 0.  1.
         11    1    4    4    0    0  0.41659271773E+02 -0.33563570960E+01 -0.17952962982E+03  0.18433026892E+03  0.00000000000E+00 0. -1.
        -12    1    4    4    0    0 -0.28096722763E+02  0.34728506908E+02 -0.22951320945E+03  0.23382003408E+03  0.00000000000E+00 0.  1.
</event>
<event>
12    1  0.8493057E-002  0.1894441E+03  0.7818608E-02  0.1159158E+00
         21   -1    0    0  503  502  0.00000000000E+00  0.00000000000E+00  0.92360562933E+03  0.92360562933E+03  0.00000000000E+00 0. -1.
         21   -1    0    0  501  503 -0.00000000000E+00 -0.00000000000E+00 -0.76088108698E+02  0.76088108698E+02  0.00000000000E+00 0. -1.
          6    2    1    2  501    0 -0.72247155769E+02  0.28154846344E+02  0.72802162851E+02  0.20215192755E+03  0.17190956927E+03 0.  0.
         24    2    3    3    0    0 -0.44334410848E+02 -0.82427535681E+01 -0.23405742252E+02  0.95465669702E+02  0.80823154786E+02 0.  0.
         -6    2    1    2    0  502  0.72247155769E+02 -0.28154846344E+02  0.77471535778E+03  0.79754181048E+03  0.17284879808E+03 0.  0.
        -24    2    5    5    0    0 -0.21526152722E+02 -0.40620163205E+02  0.43685575809E+03  0.44665719040E+03  0.80909328553E+02 0.  0.
          5    1    3    3  501    0 -0.27912744921E+02  0.36397599912E+02  0.96207905103E+02  0.10668625784E+03  0.47000000000E+01 0. -1.
        -13    1    4    4    0    0  0.36141076134E+01  0.86772874412E+01  0.24107365982E+02  0.25875126778E+02  0.00000000000E+00 0.  1.
         14    1    4    4    0    0 -0.47948518461E+02 -0.16920041009E+02 -0.47513108234E+02  0.69590542924E+02  0.00000000000E+00 0. -1.
         -5    1    5    5    0  502  0.93773308491E+02  0.12465316861E+02  0.33785959969E+03  0.35088462009E+03  0.47000000000E+01 0.  1.
         11    1    6    6    0    0 -0.21675450531E+02 -0.43610160371E+02  0.11626500666E+03  0.12605246137E+03  0.00000000000E+00 0. -1.
        -12    1    6    6    0    0  0.14929780879E+00  0.29899971663E+01  0.32059075143E+03  0.32060472903E+03  0.00000000000E+00 0.  1.
</event>
<event>
12    1  0.8493057E-002  0.1735826E+03  0.7818608E-02  0.1174369E+00
         21   -1    0    0  501  502  0.00000000000E+00  0.00000000000E+00  0.69451352090E+03  0.69451352090E+03  0.00000000000E+00 0. -1.
         21   -1    0    0  502  503 -0.00000000000E+00 -0.00000000000E+00 -0.21010653645E+03  0.21010653645E+03  0.00000000000E+00 0. -1.
         -6    2    1    2    0  503  0.34488055264E+01  0.25543099952E+01 -0.16083961815E+03  0.23664380113E+03  0.17352949919E+03 0.  0.
        -24    2    3    3    0    0  0.67621493567E+02  0.18151916862E+02 -0.10390428788E+03  0.14932174743E+03  0.81232534962E+02 0.  0.
          6    2    1    2  501    0 -0.34488055264E+01 -0.25543099952E+01  0.64524660260E+03  0.66797625622E+03  0.17271561000E+03 0.  0.
         24    2    5    5    0    0  0.42859472851E+02  0.31154701018E+02  0.24704869656E+03  0.26565248554E+03  0.82040446095E+02 0.  0.
          5    1    5    5  501    0 -0.46308278378E+02 -0.33709011013E+02  0.39819790605E+03  0.40232377068E+03  0.47000000000E+01 0. -1.
        -11    1    6    6    0    0  0.50937198176E+02 -0.13081222324E+01  0.20839132372E+03  0.21453030822E+03  0.00000000000E+00 0.  1.
         12    1    6    6    0    0 -0.80777253251E+01  0.32462823250E+02  0.38657372837E+02  0.51122177325E+02  0.00000000000E+00 0. -1.
         -5    1    3    3    0  503 -0.64172688041E+02 -0.15597606867E+02 -0.56935330267E+02  0.87322053703E+02  0.47000000000E+01 0.  1.
         13    1    4    4    0    0 -0.17109946652E+02  0.10377282749E+02 -0.32863366684E+02  0.38476475169E+02  0.00000000000E+00 0. -1.
        -14    1    4    4    0    0  0.84731440219E+02  0.77746341132E+01 -0.71040921201E+02  0.11084527226E+03  0.00000000000E+00 0.  1.
</event>
<event>
12    1  0.8493057E-002  0.1837250E+03  0.7818608E-02  0.1164306E+00
         21   -1    0    0  503  502  0.00000000000E+00  0.00000000000E+00  0.77040852928E+02  0.77040852928E+02  0.00000000000E+00 0.  1.
         21   -1    0    0  501  503 -0.00000000000E+00 -0.00000000000E+00 -0.58668857750E+03  0.58668857750E+03  0.00000000000E+00 0.  1.
          6    2    1    2  501    0 -0.63677228718E+02  0.13144582680E+02 -0.42202141002E+03  0.46017783036E+03  0.17156338634E+03 0.  0.
         24    2    3    3    0    0  0.38431120778E+01  0.19241933431E+02 -0.35626723966E+03  0.36561634229E+03  0.79774320299E+02 0.  0.
         -6    2    1    2    0  502  0.63677228718E+02 -0.13144582680E+02 -0.87626314554E+02  0.20355160007E+03  0.17183513429E+03 0.  0.
        -24    2    5    5    0    0  0.47415476773E+02 -0.61723624521E+02 -0.97131896186E+02  0.15123703264E+03  0.85906935251E+02 0.  0.
          5    1    3    3  501    0 -0.67520340795E+02 -0.60973507505E+01 -0.65754170357E+02  0.94561488073E+02  0.47000000000E+01 0. -1.
        -11    1    4    4    0    0 -0.11226066827E+02 -0.27998232165E+02 -0.94618717991E+02  0.99310761627E+02  0.00000000000E+00 0.  1.
         12    1    4    4    0    0  0.15069178905E+02  0.47240165596E+02 -0.26164852167E+03  0.26630558066E+03  0.00000000000E+00 0. -1.
         -5    1    5    5    0  502  0.16261751944E+02  0.48579041841E+02  0.95055816326E+01  0.52314567423E+02  0.47000000000E+01 0.  1.
         11    1    6    6    0    0  0.21399039173E+01 -0.32962349472E+02 -0.91528632519E+02  0.97306660832E+02  0.00000000000E+00 0. -1.
        -12    1    6    6    0    0  0.45275572856E+02 -0.28761275049E+02 -0.56032636669E+01  0.53930371811E+02  0.00000000000E+00 0.  1.
</event>
<event>
12    1  0.8493057E-002  0.1763014E+03  0.7818608E-02  0.1171698E+00
         21   -1    0    0  501  502  0.00000000000E+00  0.00000000000E+00  0.16071179866E+02  0.16071179866E+02  0.00000000000E+00 0.  1.
         21   -1    0    0  502  503 -0.00000000000E+00 -0.00000000000E+00 -0.19246973757E+04  0.19246973757E+04  0.00000000000E+00 0.  1.
         -6    2    1    2    0  503  0.24217211278E+02 -0.29426813761E+02 -0.99134956748E+03  0.10069042418E+04  0.17213301977E+03 0.  0.
        -24    2    3    3    0    0 -0.21557138090E+02  0.16675304481E+02 -0.80664449269E+03  0.81105033956E+03  0.79903314843E+02 0.  0.
          6    2    1    2  501    0 -0.24217211278E+02  0.29426813761E+02 -0.91727662836E+03  0.93386431379E+03  0.17103722676E+03 0.  0.
         24    2    5    5    0    0 -0.66523837956E+02  0.12087266063E+02 -0.36383767638E+03  0.37852002945E+03  0.79548946719E+02 0.  0.
          5    1    5    5  501    0  0.42306626678E+02  0.17339547698E+02 -0.55343895198E+03  0.55534428434E+03  0.47000000000E+01 0. -1.
        -13    1    6    6    0    0 -0.51551556501E+02  0.34899962196E+02 -0.32587423668E+03  0.33176737102E+03  0.00000000000E+00 0.  1.
         14    1    6    6    0    0 -0.14972281455E+02 -0.22812696133E+02 -0.37963439701E+02  0.46752658436E+02  0.00000000000E+00 0. -1.
         -5    1    3    3    0  503  0.45774349368E+02 -0.46102118242E+02 -0.18470507479E+03  0.19585390223E+03  0.47000000000E+01 0.  1.
         13    1    4    4    0    0 -0.26547405287E+02  0.60413551724E+01 -0.83830084821E+02  0.88140489112E+02  0.00000000000E+00 0. -1.
        -14    1    4    4    0    0  0.49902671967E+01  0.10633949308E+02 -0.72281440787E+03  0.72290985044E+03  0.00000000000E+00 0.  1.
</event>
<event>
12    1  0.8493057E-002  0.3082699E+03  0.7818608E-02  0.1081186E+00
         21   -1    0    0  503  502  0.00000000000E+00  0.00000000000E+00  0.12038133729E+03  0.12038133729E+03  0.00000000000E+00 0. -1.
         21   -1    0    0  501  503 -0.00000000000E+00 -0.00000000000E+00 -0.15570668144E+04  0.15570668144E+04  0.00000000000E+00 0. -1.
          6    2    1    2  501    0  0.37529087322E+01 -0.25592066635E+03 -0.12940583748E+03  0.33432950064E+03  0.17181639164E+03 0.  0.
         24    2    3    3    0    0 -0.58760244415E+02 -0.18664634560E+03 -0.11325023311E+03  0.23951431523E+03  0.79068750164E+02 0.  0.
         -6    2    1    2    0  502 -0.37529087322E+01  0.25592066635E+03 -0.13072796396E+04  0.13431186510E+04  0.17169211632E+03 0.  0.
        -24    2    5    5    0    0  0.55678109528E+02  0.19222517402E+03 -0.10369840140E+04  0.10590922845E+04  0.79309850112E+02 0.  0.
          5    1    3    3  501    0  0.62513153147E+02 -0.69274320748E+02 -0.16155604372E+02  0.94815185409E+02  0.47000000000E+01 0. -1.
        -13    1    4    4    0    0  0.73033226643E+01 -0.33238977704E+02 -0.50899548075E+02  0.61228524031E+02  0.00000000000E+00 0.  1.
         14    1    4    4    0    0 -0.66063567079E+02 -0.15340736790E+03 -0.62350685033E+02  0.17828579120E+03  0.00000000000E+00 0. -1.
         -5    1    5    5    0  502 -0.59431018260E+02  0.63695492328E+02 -0.27029562560E+03  0.28402636654E+03  0.47000000000E+01 0.  1.
         11    1    6    6    0    0  0.29379696895E+02  0.14555204742E+02 -0.23267920240E+03  0.23497793897E+03  0.00000000000E+00 0. -1.
        -12    1    6    6    0    0  0.26298412633E+02  0.17766996928E+03 -0.80430481163E+03  0.82411434553E+03  0.00000000000E+00 0.  1.
</event>
<event>
12    1  0.8493057E-002  0.1825780E+03  0.7818608E-02  0.1165464E+00
         21   -1    0    0  503  502  0.00000000000E+00  0.00000000000E+00  0.32244466830E+03  0.32244466830E+03  0.00000000000E+00 0. -1.
         21   -1    0    0  501  503 -0.00000000000E+00 -0.00000000000E+00 -0.10309793250E+03  0.10309793250E+03  0.00000000000E+00 0. -1.
          6    2    1    2  501    0 -0.85543625980E+00  0.57244221288E+02  0.11368903722E+03  0.21508117654E+03  0.17336978593E+03 0.  0.
         24    2    3    3    0    0 -0.35798919727E+02 -0.10277487057E+02  0.99926761904E+02  0.13767498585E+03  0.87073845613E+02 0.  0.
         -6    2    1    2    0  502  0.85543625980E+00 -0.57244221288E+02  0.10565769858E+03  0.21046142426E+03  0.17277971290E+03 0.  0.
        -24    2    5    5    0    0  0.31262136222E+02 -0.84401950223E+02  0.33018299679E+02  0.12703072298E+03  0.83340183012E+02 0.  0.
          5    1    3    3  501    0  0.34943483468E+02  0.67521708345E+02  0.13762275320E+02  0.77406190687E+02  0.47000000000E+01 0. -1.
        -13    1    4    4    0    0 -0.50034631038E+02 -0.30365853837E+02  0.34901248509E+02  0.68144306658E+02  0.00000000000E+00 0.  1.
         14    1    4    4    0    0  0.14235711311E+02  0.20088366780E+02  0.65025513395E+02  0.69530679190E+02  0.00000000000E+00 0. -1.
         -5    1    5    5    0  502 -0.30406699962E+02  0.27157728935E+02  0.72639398903E+02  0.83430701282E+02  0.47000000000E+01 0.  1.
         11    1    6    6    0    0  0.51182512524E+02 -0.46495948430E+02 -0.55899389503E+01  0.69374132255E+02  0.00000000000E+00 0. -1.
        -12    1    6    6    0    0 -0.19920376302E+02 -0.37906001793E+02  0.38608238629E+02  0.57656590724E+02  0.00000000000E+00 0.  1.
</event>
<event>
12    1  0.8493057E-002  0.3200130E+03  0.7818608E-02  0.1076037E+00
         21   -1    0    0  501  502  0.00000000000E+00  0.00000000000E+00  0.41148034947E+03  0.41148034947E+03  0.00000000000E+00 0.  1.
         21   -1    0    0  502  503 -0.00000000000E+00 -0.00000000000E+00 -0.26495894163E+03  0.26495894163E+03  0.00000000000E+00 0. -1.
         -6    2    1    2    0  503 -0.18430805107E+03  0.19604378347E+03 -0.17005658574E+02  0.31706565502E+03  0.16684967619E+03 0.  0.
        -24    2    3    3    0    0 -0.68050046717E+02  0.56354585192E+02  0.41319015988E+02  0.12613935156E+03  0.79982665612E+02 0.  0.
          6    2    1    2  501    0  0.18430805107E+03 -0.19604378347E+03  0.16352706642E+03  0.35937363608E+03  0.17322149441E+03 0.  0.
         24    2    5    5    0    0  0.12045080134E+03 -0.84401088291E+02  0.16012777416E+03  0.23062782093E+03  0.76917803401E+02 0.  0.
          5    1    5    5  501    0  0.63857249728E+02 -0.11164269518E+03  0.33992922626E+01  0.12874581515E+03  0.47000000000E+01 0. -1.
        -13    1    6    6    0    0  0.89474485062E+02 -0.73194130315E+02  0.71130907609E+02  0.13573013743E+03  0.00000000000E+00 0.  1.
         14    1    6    6    0    0  0.30976316282E+02 -0.11206957975E+02  0.88996866551E+02  0.94897683498E+02  0.00000000000E+00 0. -1.
         -5    1    3    3    0  503 -0.11625800436E+03  0.13968919828E+03 -0.58324674563E+02  0.19092630347E+03  0.47000000000E+01 0.  1.
         13    1    4    4    0    0 -0.13868043644E+02 -0.11442533889E+02 -0.14373971291E+02  0.23018802466E+02  0.00000000000E+00 0. -1.
        -14    1    4    4    0    0 -0.54182003073E+02  0.67797119080E+02  0.55692987279E+02  0.10312054909E+03  0.00000000000E+00 0.  1.
</event>
<event>
12    1  0.8493057E-002  0.1799707E+03  0.7818608E-02  0.1169439E+00
         21   -1    0    0  503  502  0.00000000000E+00  0.00000000000E+00  0.21836164326E+03  0.21836164326E+03  0.00000000000E+00 0.  1.
         21   -1    0    0  501  503 -0.00000000000E+00 -0.00000000000E+00 -0.14632319809E+03  0.14632319809E+03  0.00000000000E+00 0.  1.
          6    2    1    2  501    0  0.49738530036E+02  0.22693331779E+02  0.79328204168E+01  0.17363774099E+03  0.16461539047E+03 0.  0.
         24    2    3    3    0    0 -0.29051846803E+02 -0.95324588856E+01  0.16588633128E+02  0.87943877969E+02  0.80771686550E+02 0.  0.
         -6    2    1    2    0  502 -0.49738530036E+02 -0.22693331779E+02  0.64105624758E+02  0.19104710036E+03  0.17146589968E+03 0.  0.
        -24    2    5    5    0    0 -0.10822634505E+02 -0.73679256120E+02  0.65496497097E+02  0.12671953293E+03  0.78881472435E+02 0.  0.
          5    1    3    3  501    0  0.78790376839E+02  0.32225790664E+02 -0.86558127115E+01  0.85693863024E+02  0.47000000000E+01 0. -1.
        -13    1    4    4    0    0 -0.41303404193E+01  0.35022383099E+02  0.82347286115E+01  0.36213778942E+02  0.00000000000E+00 0.  1.
         14    1    4    4    0    0 -0.24921506383E+02 -0.44554841985E+02  0.83539045168E+01  0.51730099027E+02  0.00000000000E+00 0. -1.
         -5    1    5    5    0  502 -0.38915895531E+02  0.50985924341E+02 -0.13908723388E+01  0.64327567432E+02  0.47000000000E+01 0.  1.
         11    1    6    6    0    0 -0.16022973812E+01 -0.24036604789E+02  0.71895445979E+02  0.75824012550E+02  0.00000000000E+00 0. -1.
        -12    1    6    6    0    0 -0.92203371238E+01 -0.49642651330E+02 -0.63989488814E+01  0.50895520378E+02  0.00000000000E+00 0.  1.
</event>
<event>
12    1  0.8493057E-002  0.2166050E+03  0.7818608E-02  0.1137771E+00
         21   -1    0    0  501  502  0.00000000000E+00  0.00000000000E+00  0.94300711909E+03  0.94300711909E+03  0.00000000000E+00 0. -1.
         21   -1    0    0  502  503 -0.00000000000E+00 -0.00000000000E+00 -0.10088657547E+03  0.10088657547E+03  0.00000000000E+00 0. -1.
         -6    2    1    2    0  503 -0.12474977871E+03 -0.31957776359E+02  0.40597800855E+02  0.21361878199E+03  0.16553246155E+03 0.  0.
        -24    2    3    3    0    0 -0.11588513747E+03 -0.71094004720E+02  0.21291198503E+01  0.15783208418E+03  0.80141818367E+02 0.  0.
          6    2    1    2  501    0  0.12474977871E+03  0.31957776359E+02  0.80152274277E+03  0.83027491257E+03  0.17416634727E+03 0.  0.
         24    2    5    5    0    0  0.78820326013E+02 -0.14781092785E+02  0.69844540873E+03  0.70804127029E+03  0.84055499296E+02 0.  0.
          5    1    5    5  501    0  0.45929452698E+02  0.46738869143E+02  0.10307733403E+03  0.12223364228E+03  0.47000000000E+01 0. -1.
        -11    1    6    6    0    0 -0.16489237874E+02  0.45860292477E+01  0.67085978071E+02  0.69234782325E+02  0.00000000000E+00 0.  1.
         12    1    6    6    0    0  0.95309563887E+02 -0.19367122033E+02  0.63135943066E+03  0.63880648797E+03  0.00000000000E+00 0. -1.
         -5    1    3    3    0  503 -0.88646412403E+01  0.39136228362E+02  0.38468681004E+02  0.55786697813E+02  0.47000000000E+01 0.  1.
         13    1    4    4    0    0 -0.40178715400E+02  0.14299404657E+02 -0.75161516967E+01  0.43304672740E+02  0.00000000000E+00 0. -1.
        -14    1    4    4    0    0 -0.75706422070E+02 -0.85393409377E+02  0.96452715470E+01  0.11452741144E+03  0.00000000000E+00 0.  1.
</event>
<event>
12    1  0.8493057E-002  0.1766519E+03  0.7818608E-02  0.1172840E+00
         21   -1    0    0  503  502  0.00000000000E+00  0.00000000000E+00  0.97564586186E+02  0.97564586186E+02  0.00000000000E+00 0.  1.
         21   -1    0    0  501  503 -0.00000000000E+00 -0.00000000000E+00 -0.36965335272E+03  0.36965335272E+03  0.00000000000E+00 0.  1.
          6    2    1    2  501    0  0.14450015191E+02  0.37537935311E+02 -0.22962059336E+03  0.28553297589E+03  0.16488045336E+03 0.  0.
         24    2    3    3    0    0  0.20238037297E+02 -0.11120196624E+01 -0.40250753160E+02  0.92115431192E+02  0.80338750254E+02 0.  0.
         -6    2    1    2    0  502 -0.14450015191E+02 -0.37537935311E+02 -0.42468173168E+02  0.18168496301E+03  0.17201157091E+03 0.  0.
        -24    2    5    5    0    0  0.57799508398E+02 -0.32029890447E+02 -0.32751988116E+02  0.10842633574E+03  0.79478805378E+02 0.  0.
          5    1    3    3  501    0 -0.57880221056E+01  0.38649954973E+02 -0.18936984020E+03  0.19341754470E+03  0.47000000000E+01 0. -1.
        -13    1    4    4    0    0 -0.12502584336E+02  0.29073196387E+02 -0.35141155723E+02  0.47291290834E+02  0.00000000000E+00 0.  1.
         14    1    4    4    0    0  0.32740621632E+02 -0.30185216049E+02 -0.51095974369E+01  0.44824140358E+02  0.00000000000E+00 0. -1.
         -5    1    5    5    0  502 -0.72249523589E+02 -0.55080448642E+01 -0.97161850516E+01  0.73258627267E+02  0.47000000000E+01 0.  1.
         11    1    6    6    0    0 -0.45949588133E+01 -0.24950853068E+02 -0.37694740890E+02  0.45437343739E+02  0.00000000000E+00 0. -1.
        -12    1    6    6    0    0  0.62394467212E+02 -0.70790373789E+01  0.49427527740E+01  0.62988992005E+02  0.00000000000E+00 0.  1.
</event>
<event>
12    1  0.8493057E-002  0.1848601E+03  0.7818608E-02  0.1164621E+00
         21   -1    0    0  503  502  0.00000000000E+00  0.00000000000E+00  0.22227278644E+03  0.22227278644E+03  0.00000000000E+00 0. -1.
         21   -1    0    0  501  503 -0.00000000000E+00 -0.00000000000E+00 -0.30524172162E+03  0.30524172162E+03  0.00000000000E+00 0. -1.
          6    2    1    2  501    0  0.19370530968E+02 -0.46626743882E+02 -0.22998919736E+03  0.29131922815E+03  0.17153014624E+03 0.  0.
         24    2    3    3    0    0 -0.13444001132E+02  0.34239427309E+02 -0.80804266859E+02  0.11841935929E+03  0.78362845560E+02 0.  0.
         -6    2    1    2    0  502 -0.19370530968E+02  0.46626743882E+02  0.14702026218E+03  0.23619527991E+03  0.17783133033E+03 0.  0.
        -24    2    5    5    0    0 -0.48151085259E+02  0.42942569097E+02  0.16915750738E+03  0.19939798280E+03  0.83562563325E+02 0.  0.
          5    1    3    3  501    0  0.32814532100E+02 -0.80866171190E+02 -0.14918493050E+03  0.17289986885E+03  0.47000000000E+01 0. -1.
        -11    1    4    4    0    0  0.12664739617E+02 -0.21451557622E+02 -0.20211333494E+02  0.32079011138E+02  0.00000000000E+00 0.  1.
         12    1    4    4    0    0 -0.26108740749E+02  0.55690984931E+02 -0.60592933366E+02  0.86340348157E+02  0.00000000000E+00 0. -1.
         -5    1    5    5    0  502  0.28780554291E+02  0.36841747848E+01 -0.22137245205E+02  0.36797297107E+02  0.47000000000E+01 0.  1.
         13    1    6    6    0    0 -0.12129687234E+02  0.12288541319E+02  0.14548427869E+03  0.14650533406E+03  0.00000000000E+00 0. -1.
        -14    1    6    6    0    0 -0.36021398025E+02  0.30654027778E+02  0.23673228688E+02  0.52892648744E+02  0.00000000000E+00 0.  1.
</event>
<event>
12    1  0.8493057E-002  0.1924774E+03  0.7818608E-02  0.1156396E+00
         21   -1    0    0  503  502  0.00000000000E+00  0.00000000000E+00  0.20621377055E+03  0.20621377055E+03  0.00000000000E+00 0.  1.
         21   -1    0    0  501  503 -0.00000000000E+00 -0.00000000000E+00 -0.17926998358E+03  0.17926998358E+03  0.00000000000E+00 0.  1.
          6    2    1    2  501    0  0.25074246234E+02 -0.83253258845E+02  0.63492708679E+01  0.19258210464E+03  0.17171991980E+03 0.  0.
         24    2    3    3    0    0  0.19848652192E+02 -0.20528375759E+02  0.64139855292E+02  0.10700430706E+03  0.80750340479E+02 0.  0.
         -6    2    1    2    0  502 -0.25074246234E+02  0.83253258845E+02  0.20594516100E+02  0.19290164949E+03  0.17095932074E+03 0.  0.
        -24    2    5    5    0    0  0.42105278702E+02  0.48907214943E+02 -0.25846118388E+02  0.10417982673E+03  0.77592810832E+02 0.  0.
          5    1    3    3  501    0  0.52255940415E+01 -0.62724883086E+02 -0.57790584424E+02  0.85577797584E+02  0.47000000000E+01 0. -1.
        -11    1    4    4    0    0  0.48502788133E+02 -0.25384700419E+02  0.30945426950E+02  0.62884997584E+02  0.00000000000E+00 0.  1.
         12    1    4    4    0    0 -0.28654135940E+02  0.48563246603E+01  0.33194428343E+02  0.44119309477E+02  0.00000000000E+00 0. -1.
         -5    1    5    5    0  502 -0.67179524936E+02  0.34346043902E+02  0.46440634487E+02  0.88721822761E+02  0.47000000000E+01 0.  1.
         11    1    6    6    0    0 -0.57834563964E+01 -0.10738927318E+02 -0.24849450608E+02  0.27681548427E+02  0.00000000000E+00 0. -1.
        -12    1    6    6    0    0  0.47888735098E+02  0.59646142260E+02 -0.99666777982E+00  0.76498278298E+02  0.00000000000E+00 0.  1.
</event>
<event>
12    1  0.8493057E-002  0.1997981E+03  0.7818608E-02  0.1150024E+00
         21   -1    0    0  501  502  0.00000000000E+00  0.00000000000E+00  0.54541112738E+02  0.54541112738E+02  0.00000000000E+00 0. -1.
         21   -1    0    0  502  503 -0.00000000000E+00 -0.00000000000E+00 -0.84773120594E+03  0.84773120594E+03  0.00000000000E+00 0.  1.
         -6    2    1    2    0  503 -0.10342868694E+02 -0.10125919032E+03 -0.56523101508E+03  0.59950428943E+03  0.17192700216E+03 0.  0.
        -24    2    3    3    0    0 -0.34946675665E+02 -0.49017229966E+02 -0.50919641774E+03  0.51890319863E+03  0.79721883618E+02 0.  0.
          6    2    1    2  501    0  0.10342868694E+02  0.10125919032E+03 -0.22795907812E+03  0.30276802925E+03  0.17129722614E+03 0.  0.
         24    2    5    5    0    0 -0.66671360178E+01  0.10008399904E+02 -0.18158016203E+03  0.19889723995E+03  0.80275388789E+02 0.  0.
          5    1    5    5  501    0  0.17010004712E+02  0.91250790418E+02 -0.46378916087E+02  0.10387078930E+03  0.47000000000E+01 0. -1.
        -11    1    6    6    0    0 -0.83456415009E+01  0.31550947052E+02 -0.17232928472E+03  0.17539240110E+03  0.00000000000E+00 0.  1.
         12    1    6    6    0    0  0.16785054831E+01 -0.21542547147E+02 -0.92508773096E+01  0.23504838848E+02  0.00000000000E+00 0. -1.
         -5    1    3    3    0  503  0.24603806971E+02 -0.52241960357E+02 -0.56034597339E+02  0.80601090801E+02  0.47000000000E+01 0.  1.
         13    1    4    4    0    0 -0.48116009314E+02 -0.27310211712E+02 -0.17040068495E+03  0.17915744876E+03  0.00000000000E+00 0. -1.
        -14    1    4    4    0    0  0.13169333649E+02 -0.21707018254E+02 -0.33879573280E+03  0.33974574986E+03  0.00000000000E+00 0.  1.
</event>
<event>
12    1  0.8493057E-002  0.2183961E+03  0.7818608E-02  0.1135132E+00
         21   -1    0    0  501  502  0.00000000000E+00  0.00000000000E+00  0.60266114114E+03  0.60266114114E+03  0.00000000000E+00 0. -1.
         21   -1    0    0  502  503 -0.00000000000E+00 -0.00000000000E+00 -0.79081905582E+02  0.79081905582E+02  0.00000000000E+00 0. -1.
         -6    2    1    2    0  503  0.13308824370E+03  0.13994617725E+02  0.26852034230E+03  0.34612138669E+03  0.17259348238E+03 0.  0.
        -24    2    3    3    0    0  0.67236228706E+02  0.31255587991E+02  0.56347664680E+02  0.12324526840E+03  0.80726170712E+02 0.  0.
          6    2    1    2  501    0 -0.13308824370E+03 -0.13994617725E+02  0.25505889326E+03  0.33562166004E+03  0.17227457653E+03 0.  0.
         24    2    5    5    0    0 -0.14567274496E+03 -0.86615353019E+01  0.26866359007E+03  0.31577249846E+03  0.78971990847E+02 0.  0.
          5    1    5    5  501    0  0.12584501261E+02 -0.53330824232E+01 -0.13604696807E+02  0.19849161578E+02  0.47000000000E+01 0. -1.
        -11    1    6    6    0    0 -0.39810914784E+02  0.27745145072E+02  0.12177966085E+03  0.13109152454E+03  0.00000000000E+00 0.  1.
         12    1    6    6    0    0 -0.10586183017E+03 -0.36406680374E+02  0.14688392922E+03  0.18468097391E+03  0.00000000000E+00 0. -1.
         -5    1    3    3    0  503  0.65852014989E+02 -0.17260970266E+02  0.21217267762E+03  0.22287611829E+03  0.47000000000E+01 0.  1.
         13    1    4    4    0    0  0.24471377437E+02  0.20103253742E+02  0.70131340667E+02  0.76950594985E+02  0.00000000000E+00 0. -1.
        -14    1    4    4    0    0  0.42764851268E+02  0.11152334249E+02 -0.13783675988E+02  0.46294673419E+02  0.00000000000E+00 0.  1.
</event>
<event>
12    1  0.8493057E-002  0.2007025E+03  0.7818608E-02  0.1149378E+00
         21   -1    0    0  501  502  0.00000000000E+00  0.00000000000E+00  0.40263283060E+02  0.40263283060E+02  0.00000000000E+00 0.  1.
         21   -1    0    0  502  503 -0.00000000000E+00 -0.00000000000E+00 -0.11055648994E+04  0.11055648994E+04  0.00000000000E+00 0.  1.
         -6    2    1    2    0  503  0.92446540155E+02  0.47809913566E+02 -0.71251077564E+03  0.73994288670E+03  0.17032826999E+03 0.  0.
        -24    2    3    3    0    0  0.44692526825E+01 -0.18242032760E+02 -0.40756141226E+03  0.41572217954E+03  0.79786463908E+02 0.  0.
          6    2    1    2  501    0 -0.92446540155E+02 -0.47809913566E+02 -0.35279084068E+03  0.40588529574E+03  0.17160811579E+03 0.  0.
         24    2    5    5    0    0  0.14532249614E+01  0.40356740771E+01 -0.22253149502E+03  0.23708151030E+03  0.81663809127E+02 0.  0.
          5    1    5    5  501    0 -0.93899765117E+02 -0.51845587643E+02 -0.13025934566E+03  0.16880378544E+03  0.47000000000E+01 0. -1.
        -13    1    6    6    0    0 -0.75209672015E+01  0.36017649743E+02 -0.54235506277E+02  0.65538738024E+02  0.00000000000E+00 0.  1.
         14    1    6    6    0    0  0.89741921629E+01 -0.31981975666E+02 -0.16829598874E+03  0.17154277227E+03  0.00000000000E+00 0. -1.
         -5    1    3    3    0  503  0.87977287473E+02  0.66051946326E+02 -0.30494936339E+03  0.32422070716E+03  0.47000000000E+01 0.  1.
         13    1    4    4    0    0 -0.35581968427E+01 -0.42418062382E+02 -0.12569803546E+03  0.13271001808E+03  0.00000000000E+00 0. -1.
        -14    1    4    4    0    0  0.80274495252E+01  0.24176029622E+02 -0.28186337680E+03  0.28301216146E+03  0.00000000000E+00 0.  1.
</event>
<event>
12    1  0.8493057E-002  0.2322844E+03  0.7818608E-02  0.1125115E+00
         21   -1    0    0  503  502  0.00000000000E+00  0.00000000000E+00  0.57121501866E+03  0.57121501866E+03  0.00000000000E+00 0. -1.
         21   -1    0    0  501  503 -0.00000000000E+00 -0.00000000000E+00 -0.23125256792E+03  0.23125256792E+03  0.00000000000E+00 0.  1.
          6    2    1    2  501    0 -0.15043233144E+03  0.40349373758E+02 -0.13886716380E+03  0.27027038584E+03  0.17176738333E+03 0.  0.
         24    2    3    3    0    0 -0.62408747882E+02  0.72562034436E+02 -0.12288910263E+03  0.17506957067E+03  0.79921976801E+02 0.  0.
         -6    2    1    2    0  502  0.15043233144E+03 -0.40349373758E+02  0.47882961454E+03  0.53219720073E+03  0.17233137382E+03 0.  0.
        -24    2    5    5    0    0  0.77603618342E+02 -0.76077571096E+02  0.38628142381E+03  0.40903964658E+03  0.79309366995E+02 0.  0.
          5    1    3    3  501    0 -0.88023583563E+02 -0.32212660679E+02 -0.15978061170E+02  0.95200815175E+02  0.47000000000E+01 0. -1.
        -11    1    4    4    0    0 -0.67302106075E+02  0.21093186709E+02 -0.53439877483E+02  0.88489075671E+02  0.00000000000E+00 0.  1.
         12    1    4    4    0    0  0.48933581937E+01  0.51468847728E+02 -0.69449225146E+02  0.86580494998E+02  0.00000000000E+00 0. -1.
         -5    1    5    5    0  502  0.72828713103E+02  0.35728197339E+02  0.92548190733E+02  0.12315755415E+03  0.47000000000E+01 0.  1.
         13    1    6    6    0    0  0.56347878639E+02 -0.98743836209E+01  0.24480246947E+03  0.25139776438E+03  0.00000000000E+00 0. -1.
        -14    1    6    6    0    0  0.21255739704E+02 -0.66203187475E+02  0.14147895434E+03  0.15764188220E+03  0.00000000000E+00 0.  1.
</event>
<event>
12    1  0.8493057E-002  0.1727464E+03  0.7818608E-02  0.1179876E+00
         21   -1    0    0  501  502  0.00000000000E+00  0.00000000000E+00  0.44521934040E+03  0.44521934040E+03  0.00000000000E+00 0.  1.
         21   -1    0    0  502  503 -0.00000000000E+00 -0.00000000000E+00 -0.80347182110E+02  0.80347182110E+02  0.00000000000E+00 0.  1.
         -6    2    1    2    0  503 -0.24297858144E+02 -0.27477429740E+02  0.43621102294E+02  0.16081515486E+03  0.15037725363E+03 0.  0.
        -24    2    3    3    0    0 -0.43351809804E+02 -0.38835485716E+02  0.72122013199E+02  0.12439468765E+03  0.82975171963E+02 0.  0.
          6    2    1    2  501    0  0.24297858144E+02  0.27477429740E+02  0.32125105599E+03  0.36475136765E+03  0.16880735817E+03 0.  0.
         24    2    5    5    0    0 -0.14746951382E+02  0.88919500420E+01  0.49516389992E+02  0.89557370780E+02  0.72609299905E+02 0.  0.
          5    1    5    5  501    0  0.39044809527E+02  0.18585479698E+02  0.27173466600E+03  0.27519399687E+03  0.47000000000E+01 0. -1.
        -13    1    6    6    0    0  0.22274219716E+02  0.25610080101E+02  0.24347434030E+02  0.41770978090E+02  0.00000000000E+00 0.  1.
         14    1    6    6    0    0 -0.37021171099E+02 -0.16718130059E+02  0.25168955961E+02  0.47786392690E+02  0.00000000000E+00 0. -1.
         -5    1    3    3    0  503  0.19053951660E+02  0.11358055976E+02 -0.28500910905E+02  0.36420467211E+02  0.47000000000E+01 0.  1.
         13    1    4    4    0    0  0.20431803672E+02 -0.18139832616E+02  0.20389909697E+01  0.27398350549E+02  0.00000000000E+00 0. -1.
        -14    1    4    4    0    0 -0.63783613476E+02 -0.20695653100E+02  0.70083022230E+02  0.96996337097E+02  0.00000000000E+00 0.  1.
</event>
<event>
12    1  0.8493057E-002  0.1864965E+03  0.7818608E-02  0.1163496E+00
         21   -1    0    0  501  502  0.00000000000E+00  0.00000000000E+00  0.12396794518E+04  0.12396794518E+04  0.00000000000E+00 0.  1.
         21   -1    0    0  502  503 -0.00000000000E+00 -0.00000000000E+00 -0.61964280235E+02  0.61964280235E+02  0.00000000000E+00 0.  1.
         -6    2    1    2    0  503 -0.28305570705E+02 -0.38449262895E+02  0.10476204923E+03  0.21390662441E+03  0.18028146288E+03 0.  0.
        -24    2    3    3    0    0 -0.46979106780E+02  0.27197710284E+02  0.10929842399E+03  0.14534355320E+03  0.78942074033E+02 0.  0.
          6    2    1    2  501    0  0.28305570705E+02  0.38449262895E+02  0.10729531224E+04  0.10877371076E+04  0.17223257942E+03 0.  0.
         24    2    5    5    0    0 -0.10924444023E+02  0.21099786016E+02  0.99558910854E+03  0.99915223852E+03  0.80888678114E+02 0.  0.
          5    1    5    5  501    0  0.39230014728E+02  0.17349476879E+02  0.77364013815E+02  0.88584869120E+02  0.47000000000E+01 0. -1.
        -13    1    6    6    0    0 -0.37488434034E+02 -0.70810100004E+01  0.69972271559E+03  0.70076201531E+03  0.00000000000E+00 0.  1.
         14    1    6    6    0    0  0.26563990011E+02  0.28180796016E+02  0.29586639296E+03  0.29839022322E+03  0.00000000000E+00 0. -1.
         -5    1    3    3    0  503  0.18673536075E+02 -0.65646973179E+02 -0.45363747656E+01  0.68563071206E+02  0.47000000000E+01 0.  1.
         11    1    4    4    0    0 -0.62799570835E+02  0.10463157701E+02  0.10363499907E+03  0.12162843746E+03  0.00000000000E+00 0. -1.
        -12    1    4    4    0    0  0.15820464055E+02  0.16734552583E+02  0.56634249221E+01  0.23715115748E+02  0.00000000000E+00 0.  1.
</event>
<event>
12    1  0.8493057E-002  0.1987492E+03  0.7818608E-02  0.1151410E+00
         21   -1    0    0  503  502  0.00000000000E+00  0.00000000000E+00  0.34433314100E+03  0.34433314100E+03  0.00000000000E+00 0.  1.
         21   -1    0    0  501  503 -0.00000000000E+00 -0.00000000000E+00 -0.24867448602E+03  0.24867448602E+03  0.00000000000E+00 0.  1.
          6    2    1    2  501    0 -0.73162123565E+02 -0.58416073230E+02 -0.17127319416E+03  0.26021058744E+03  0.17207529991E+03 0.  0.
         24    2    3    3    0    0 -0.46933540591E+02 -0.36563958176E+02 -0.19580980301E+03  0.21790705719E+03  0.74848689687E+02 0.  0.
         -6    2    1    2    0  502  0.73162123565E+02  0.58416073230E+02  0.26693184914E+03  0.33279703959E+03  0.17531720832E+03 0.  0.
        -24    2    5    5    0    0  0.97282937279E+02  0.84592043995E+02  0.15993549149E+03  0.21993736720E+03  0.78570352297E+02 0.  0.
          5    1    3    3  501    0 -0.26228582974E+02 -0.21852115055E+02  0.24536608854E+02  0.42303530245E+02  0.47000000000E+01 0. -1.
        -13    1    4    4    0    0 -0.18981405210E+02  0.17601039843E+02 -0.10771354683E+03  0.11078040675E+03  0.00000000000E+00 0.  1.
         14    1    4    4    0    0 -0.27952135380E+02 -0.54164998019E+02 -0.88096256179E+02  0.10712665044E+03  0.00000000000E+00 0. -1.
         -5    1    5    5    0  502 -0.24120813714E+02 -0.26175970764E+02  0.10699635766E+03  0.11285967239E+03  0.47000000000E+01 0.  1.
         11    1    6    6    0    0 -0.80921046632E+01  0.45314920042E+01  0.40905540953E+02  0.41943770197E+02  0.00000000000E+00 0. -1.
        -12    1    6    6    0    0  0.10537504194E+03  0.80060551990E+02  0.11902995053E+03  0.17799359700E+03  0.00000000000E+00 0.  1.
</event>
<event>
12    1  0.8493057E-002  0.1866211E+03  0.7818608E-02  0.1161569E+00
         21   -1    0    0  501  502  0.00000000000E+00  0.00000000000E+00  0.48765545853E+02  0.48765545853E+02  0.00000000000E+00 0. -1.
         21   -1    0    0  502  503 -0.00000000000E+00 -0.00000000000E+00 -0.90648287772E+03  0.90648287772E+03  0.00000000000E+00 0. -1.
         -6    2    1    2    0  503  0.13130703993E+00 -0.72792075840E+02 -0.64898199308E+03  0.67525223725E+03  0.17172435186E+03 0.  0.
        -24    2    3    3    0    0 -0.31437175298E+02 -0.10387789649E+03 -0.39111880652E+03  0.41356843892E+03  0.79284421491E+02 0.  0.
          6    2    1    2  501    0 -0.13130703993E+00  0.72792075840E+02 -0.20873533879E+03  0.27999618632E+03  0.17183922472E+03 0.  0.
         24    2    5    5    0    0  0.38077505992E+02  0.37083343454E+02 -0.20586487814E+03  0.22740952921E+03  0.80682557604E+02 0.  0.
          5    1    5    5  501    0 -0.38208813032E+02  0.35708732386E+02 -0.28704606503E+01  0.52586657113E+02  0.47000000000E+01 0. -1.
        -13    1    6    6    0    0 -0.10900754381E+01  0.17433735565E+01 -0.15200144017E+03  0.15201534604E+03  0.00000000000E+00 0.  1.
         14    1    6    6    0    0  0.39167581430E+02  0.35339969897E+02 -0.53863437965E+02  0.75394183176E+02  0.00000000000E+00 0. -1.
         -5    1    3    3    0  503  0.31568482338E+02  0.31085820650E+02 -0.25786318656E+03  0.26168379833E+03  0.47000000000E+01 0.  1.
         13    1    4    4    0    0  0.17228413221E+02 -0.72407779023E+02 -0.18370293475E+03  0.19820815554E+03  0.00000000000E+00 0. -1.
        -14    1    4    4    0    0 -0.48665588519E+02 -0.31470117467E+02 -0.20741587177E+03  0.21536028339E+03  0.00000000000E+00 0.  1.
</event>
<event>
12    1  0.8493057E-002  0.2046579E+03  0.7818608E-02  0.1146911E+00
         21   -1    0    0  501  502  0.00000000000E+00  0.00000000000E+00  0.74856928871E+03  0.74856928871E+03  0.00000000000E+00 0. -1.
         21   -1    0    0  502  503 -0.00000000000E+00 -0.00000000000E+00 -0.55190346660E+02  0.55190346660E+02  0.00000000000E+00 0. -1.
         -6    2    1    2    0  503  0.69773619925E+02  0.87192635462E+02  0.30040288247E+03  0.36068509190E+03  0.16547184053E+03 0.  0.
        -24    2    3    3    0    0  0.61983805594E+02  0.35473484437E+02  0.86890831258E+02  0.14081004147E+03  0.84717713423E+02 0.  0.
          6    2    1    2  501    0 -0.69773619925E+02 -0.87192635462E+02  0.39297605958E+03  0.44307454347E+03  0.17150496771E+03 0.  0.
         24    2    5    5    0    0 -0.10290901103E+03 -0.82199179162E+02  0.37343690060E+03  0.40400079930E+03  0.80090932721E+02 0.  0.
          5    1    5    5  501    0  0.33135391102E+02 -0.49934563004E+01  0.19539158981E+02  0.39073744164E+02  0.47000000000E+01 0. -1.
        -11    1    6    6    0    0 -0.98696101243E+01 -0.39112504237E+01 -0.66172098125E+00  0.10636961904E+02  0.00000000000E+00 0.  1.
         12    1    6    6    0    0 -0.93039400903E+02 -0.78287928738E+02  0.37409862158E+03  0.39336383740E+03  0.00000000000E+00 0. -1.
         -5    1    3    3    0  503  0.77898143311E+01  0.51719151025E+02  0.21351205121E+03  0.21987505043E+03  0.47000000000E+01 0.  1.
         11    1    4    4    0    0  0.15864383062E+02  0.45564447198E+02  0.79542346347E+02  0.93031082767E+02  0.00000000000E+00 0. -1.
        -12    1    4    4    0    0  0.46119422532E+02 -0.10090962761E+02  0.73484849112E+01  0.47778958701E+02  0.00000000000E+00 0.  1.
</event>
<event>
12    1  0.8493057E-002  0.1825543E+03  0.7818608E-02  0.1165490E+00
         21   -1    0    0  503  502  0.00000000000E+00  0.00000000000E+00  0.11739704272E+03  0.11739704272E+03  0.00000000000E+00 0. -1.
         21   -1    0    0  501  503 -0.00000000000E+00 -0.00000000000E+00 -0.31613692124E+03  0.31613692124E+03  0.00000000000E+00 0. -1.
          6    2    1    2  501    0  0.57576079142E+02 -0.16861354736E+02 -0.16970262800E+03  0.24924899461E+03  0.17241452721E+03 0.  0.
         24    2    3    3    0    0 -0.13181132786E+02  0.54778005359E+01 -0.21074028033E+02  0.83061836185E+02  0.79065829614E+02 0.  0.
         -6    2    1    2    0  502 -0.57576079142E+02  0.16861354736E+02 -0.29037250524E+02  0.18428496935E+03  0.17180942302E+03 0.  0.
        -24    2    5    5    0    0 -0.19442633368E+02 -0.40210618850E+02  0.25411487988E+02  0.96546010038E+02  0.81734194019E+02 0.  0.
          5    1    3    3  501    0  0.70757211929E+02 -0.22339155272E+02 -0.14862859997E+03  0.16618715843E+03  0.47000000000E+01 0. -1.
        -13    1    4    4    0    0 -0.32006500379E+02  0.19947347646E+01 -0.43200702927E+02  0.53802376962E+02  0.00000000000E+00 0.  1.
         14    1    4    4    0    0  0.18825367593E+02  0.34830657713E+01  0.22126674894E+02  0.29259459223E+02  0.00000000000E+00 0. -1.
         -5    1    5    5    0  502 -0.38133445774E+02  0.57071973586E+02 -0.54448738512E+02  0.87738959312E+02  0.47000000000E+01 0.  1.
         13    1    6    6    0    0 -0.45055457327E+02 -0.29611945201E+01  0.98537669783E+00  0.45163413015E+02  0.00000000000E+00 0. -1.
        -14    1    6    6    0    0  0.25612823959E+02 -0.37249424330E+02  0.24426111290E+02  0.51382597023E+02  0.00000000000E+00 0.  1.
</event>
<event>
12    1  0.8493057E-002  0.1922932E+03  0.7818608E-02  0.1156467E+00
         21   -1    0    0  501  502  0.00000000000E+00  0.00000000000E+00  0.44450693907E+02  0.44450693907E+02  0.00000000000E+00 0. -1.
         21   -1    0    0  502  503 -0.00000000000E+00 -0.00000000000E+00 -0.85754376531E+03  0.85754376531E+03  0.00000000000E+00 0. -1.
         -6    2    1    2    0  503  0.12754743552E+02  0.84391387398E+02 -0.48602143974E+03  0.52258367569E+03  0.17202403454E+03 0.  0.
        -24    2    3    3    0    0  0.59272468784E+02  0.44200488583E+02 -0.17037161954E+03  0.20096883445E+03  0.76779391323E+02 0.  0.
          6    2    1    2  501    0 -0.12754743552E+02 -0.84391387398E+02 -0.32707163167E+03  0.37941078353E+03  0.17231395958E+03 0.  0.
         24    2    5    5    0    0 -0.56277974453E+01 -0.83050211867E+02 -0.10261757181E+03  0.15479042137E+03  0.80626910564E+02 0.  0.
          5    1    5    5  501    0 -0.71269461069E+01 -0.13411755310E+01 -0.22445405986E+03  0.22462036216E+03  0.47000000000E+01 0. -1.
        -11    1    6    6    0    0  0.18029093899E+02  0.57719524642E+01 -0.37929798802E+02  0.42391429549E+02  0.00000000000E+00 0.  1.
         12    1    6    6    0    0 -0.23656891345E+02 -0.88822164332E+02 -0.64687773009E+02  0.11239899182E+03  0.00000000000E+00 0. -1.
         -5    1    3    3    0  503 -0.46517725232E+02  0.40190898815E+02 -0.31564982020E+03  0.32161484123E+03  0.47000000000E+01 0.  1.
         11    1    4    4    0    0  0.64279274450E+02  0.77886793343E+01 -0.76890689073E+02  0.10052197131E+03  0.00000000000E+00 0. -1.
        -12    1    4    4    0    0 -0.50068056655E+01  0.36411809249E+02 -0.93480930464E+02  0.10044686315E+03  0.00000000000E+00 0.  1.
</event>
<event>
12    1  0.8493057E-002  0.1809151E+03  0.7818608E-02  0.1166924E+00
         21   -1    0    0  501  502  0.00000000000E+00  0.00000000000E+00  0.97315734867E+02  0.97315734867E+02  0.00000000000E+00 0. -1.
         21   -1    0    0  502  503 -0.00000000000E+00 -0.00000000000E+00 -0.74062612246E+03  0.74062612246E+03  0.00000000000E+00 0. -1.
         -6    2    1    2    0  503  0.18917751243E+02 -0.54311813422E+02 -0.63121139380E+03  0.65662260955E+03  0.17151610221E+03 0.  0.
        -24    2    3    3    0    0 -0.27268886409E+02 -0.53414077927E+02 -0.20600681333E+03  0.22889017370E+03  0.79719813035E+02 0.  0.
          6    2    1    2  501    0 -0.18917751243E+02  0.54311813422E+02 -0.12098993793E+02  0.18131924778E+03  0.17153025848E+03 0.  0.
         24    2    5    5    0    0 -0.35484932308E+02  0.49751249135E+02 -0.67905523404E+02  0.12273828686E+03  0.81970480910E+02 0.  0.
          5    1    5    5  501    0  0.16567181065E+02  0.45605642872E+01  0.55806529612E+02  0.58580960921E+02  0.47000000000E+01 0. -1.
        -11    1    6    6    0    0 -0.38283491491E+02 -0.11113739307E+02 -0.37131546711E+02  0.54478368948E+02  0.00000000000E+00 0.  1.
         12    1    6    6    0    0  0.27985591824E+01  0.60864988442E+02 -0.30773976693E+02  0.68259917910E+02  0.00000000000E+00 0. -1.
         -5    1    3    3    0  503  0.46186637652E+02 -0.89773549551E+00 -0.42520458047E+03  0.42773243585E+03  0.47000000000E+01 0.  1.
         11    1    4    4    0    0 -0.23765220023E+01  0.18100491005E+02 -0.78487006672E+02  0.80582168299E+02  0.00000000000E+00 0. -1.
        -12    1    4    4    0    0 -0.24892364406E+02 -0.71514568932E+02 -0.12751980666E+03  0.14830800540E+03  0.00000000000E+00 0.  1.
</event>
<event>
12    1  0.8493057E-002  0.1846251E+03  0.7818608E-02  0.1163818E+00
         21   -1    0    0  501  502  0.00000000000E+00  0.00000000000E+00  0.16118738490E+03  0.16118738490E+03  0.00000000000E+00 0. -1.
         21   -1    0    0  502  503 -0.00000000000E+00 -0.00000000000E+00 -0.28573024211E+03  0.28573024211E+03  0.00000000000E+00 0.  1.
         -6    2    1    2    0  503  0.47285472701E+02  0.37538041709E+02 -0.17795559139E+03  0.25642660264E+03  0.17447460998E+03 0.  0.
        -24    2    3    3    0    0  0.35878817001E+02 -0.41439155635E+02 -0.12824527794E+03  0.16229523296E+03  0.82996374599E+02 0.  0.
          6    2    1    2  501    0 -0.47285472701E+02 -0.37538041709E+02  0.53412734188E+02  0.19049102437E+03  0.17259458187E+03 0.  0.
         24    2    5    5    0    0 -0.63196917201E+02 -0.43440289276E+02 -0.21957923855E+02  0.11309052899E+03  0.80164881652E+02 0.  0.
          5    1    5    5  501    0  0.15911444500E+02  0.59022475662E+01  0.75370658043E+02  0.77400495387E+02  0.47000000000E+01 0. -1.
        -11    1    6    6    0    0 -0.54727038319E+02  0.10919427830E+02 -0.84611216269E+01  0.56443539989E+02  0.00000000000E+00 0.  1.
         12    1    6    6    0    0 -0.84698788821E+01 -0.54359717106E+02 -0.13496802228E+02  0.56646988997E+02  0.00000000000E+00 0. -1.
         -5    1    3    3    0  503  0.11406655700E+02  0.78977197345E+02 -0.49710313448E+02  0.94131369680E+02  0.47000000000E+01 0.  1.
         13    1    4    4    0    0  0.64084539952E+01 -0.40542007708E+02 -0.12578070694E+02  0.42929366801E+02  0.00000000000E+00 0. -1.
        -14    1    4    4    0    0  0.29470363005E+02 -0.89714792744E+00 -0.11566720725E+03  0.11936586616E+03  0.00000000000E+00 0.  1.
</event>
<event>
12    1  0.8493057E-002  0.2013263E+03  0.7818608E-02  0.1148748E+00
         21   -1    0    0  503  502  0.00000000000E+00  0.00000000000E+00  0.20102504623E+04  0.20102504623E+04  0.00000000000E+00 0. -1.
         21   -1    0    0  501  503 -0.00000000000E+00 -0.00000000000E+00 -0.22957408604E+02  0.22957408604E+02  0.00000000000E+00 0. -1.
          6    2    1    2  501    0  0.24121113740E+02 -0.10013790711E+03  0.63650967634E+03  0.66759033348E+03  0.17298224392E+03 0.  0.
         24    2    3    3    0    0  0.68960563780E+02 -0.31879512175E+02  0.25416740216E+03  0.27659482278E+03  0.78305587386E+02 0.  0.
         -6    2    1    2    0  502 -0.24121113740E+02  0.10013790711E+03  0.13507833774E+04  0.13656175375E+04  0.17229653918E+03 0.  0.
        -24    2    5    5    0    0  0.40609467593E+02  0.93542450933E+02  0.71595101034E+03  0.72744219129E+03  0.78657316754E+02 0.  0.
          5    1    3    3  501    0 -0.44839450040E+02 -0.68258394936E+02  0.38234227418E+03  0.39099551069E+03  0.47000000000E+01 0. -1.
        -11    1    4    4    0    0 -0.49802876528E+00  0.12090206858E+02  0.10978607583E+03  0.11045091028E+03  0.00000000000E+00 0.  1.
         12    1    4    4    0    0  0.69458592546E+02 -0.43969719033E+02  0.14438132633E+03  0.16614391251E+03  0.00000000000E+00 0. -1.
         -5    1    5    5    0  502 -0.64730581333E+02  0.65954561787E+01  0.63483236707E+03  0.63817534619E+03  0.47000000000E+01 0.  1.
         13    1    6    6    0    0  0.21493551704E+02  0.30264016554E+02  0.50533378322E+03  0.50669528903E+03  0.00000000000E+00 0. -1.
        -14    1    6    6    0    0  0.19115915889E+02  0.63278434379E+02  0.21061722712E+03  0.22074690226E+03  0.00000000000E+00 0.  1.
</event>
<event>
12    1  0.8493057E-002  0.2911744E+03  0.7818608E-02  0.1089810E+00
         21   -1    0    0  503  502  0.00000000000E+00  0.00000000000E+00  0.12664015807E+03  0.12664015807E+03  0.00000000000E+00 0. -1.
         21   -1    0    0  501  503 -0.00000000000E+00 -0.00000000000E+00 -0.73122682492E+03  0.73122682492E+03  0.00000000000E+00 0.  1.
          6    2    1    2  501    0  0.22620616495E+03 -0.62308309518E+02 -0.42848472215E+03  0.51805566712E+03  0.17242668766E+03 0.  0.
         24    2    3    3    0    0  0.10870696504E+03 -0.10070414614E+03 -0.30163633260E+03  0.34087523314E+03  0.57034359208E+02 0.  0.
         -6    2    1    2    0  502 -0.22620616495E+03  0.62308309518E+02 -0.17610194470E+03  0.33981131588E+03  0.17148842812E+03 0.  0.
        -24    2    5    5    0    0 -0.19636640449E+03  0.10402558297E+03 -0.15903336837E+03  0.28555112323E+03  0.82865825277E+02 0.  0.
          5    1    3    3  501    0  0.11749919991E+03  0.38395836627E+02 -0.12684838956E+03  0.17718043397E+03  0.47000000000E+01 0. -1.
        -13    1    4    4    0    0  0.54036665061E+01 -0.33930462907E+02 -0.48514338569E+02  0.59448439606E+02  0.00000000000E+00 0.  1.
         14    1    4    4    0    0  0.10330329853E+03 -0.66773683238E+02 -0.25312199403E+03  0.28142679354E+03  0.00000000000E+00 0. -1.
         -5    1    5    5    0  502 -0.29839760456E+02 -0.41717273453E+02 -0.17068576329E+02  0.54260192649E+02  0.47000000000E+01 0.  1.
         13    1    6    6    0    0 -0.15292305619E+03  0.79755713864E+02 -0.75400441974E+02  0.18823299832E+03  0.00000000000E+00 0. -1.
        -14    1    6    6    0    0 -0.43443348303E+02  0.24269869106E+02 -0.83632926397E+02  0.97318124909E+02  0.00000000000E+00 0.  1.
</event>
<event>
12    1  0.8493057E-002  0.2488855E+03  0.7818608E-02  0.1114313E+00
         21   -1    0    0  503  502  0.00000000000E+00  0.00000000000E+00  0.12278308365E+03  0.12278308365E+03  0.00000000000E+00 0.  1.
         21   -1    0    0  501  503 -0.00000000000E+00 -0.00000000000E+00 -0.56275789618E+03  0.56275789618E+03  0.00000000000E+00 0.  1.
          6    2    1    2  501    0 -0.17600967203E+03  0.35791286821E+02 -0.33308890047E+03  0.41467462801E+03  0.16954766479E+03 0.  0.
         24    2    3    3    0    0 -0.13545498738E+03  0.50486115834E+02 -0.33250001538E+03  0.37128042065E+03  0.79974927504E+02 0.  0.
         -6    2    1    2    0  502  0.17600967203E+03 -0.35791286821E+02 -0.10688591205E+03  0.27086635182E+03  0.17228917986E+03 0.  0.
        -24    2    5    5    0    0  0.20036070943E+03 -0.45700378814E+02 -0.10398941035E+03  0.24400294085E+03  0.80564875560E+02 0.  0.
          5    1    3    3  501    0 -0.40554684650E+02 -0.14694829013E+02 -0.58888508888E+00  0.43394207360E+02  0.47000000000E+01 0. -1.
        -11    1    4    4    0    0 -0.84275585363E+02 -0.19851036072E+01 -0.12124461680E+03  0.14767048462E+03  0.00000000000E+00 0.  1.
         12    1    4    4    0    0 -0.51179402013E+02  0.52471219441E+02 -0.21125539859E+03  0.22360993603E+03  0.00000000000E+00 0. -1.
         -5    1    5    5    0  502 -0.24351037403E+02  0.99090919932E+01 -0.28965017042E+01  0.26863410969E+02  0.47000000000E+01 0.  1.
         11    1    6    6    0    0  0.15904229398E+03 -0.30642231842E+01 -0.90875029006E+02  0.18319964966E+03  0.00000000000E+00 0. -1.
        -12    1    6    6    0    0  0.41318415448E+02 -0.42636155630E+02 -0.13114381341E+02  0.60803291194E+02  0.00000000000E+00 0.  1.
</event>
<event>
12    1  0.8493057E-002  0.1892290E+03  0.7818608E-02  0.1160137E+00
         21   -1    0    0  501  502  0.00000000000E+00  0.00000000000E+00  0.36128344405E+02  0.36128344405E+02  0.00000000000E+00 0. -1.
         21   -1    0    0  502  503 -0.00000000000E+00 -0.00000000000E+00 -0.10088975214E+04  0.10088975214E+04  0.00000000000E+00 0.  1.
         -6    2    1    2    0  503 -0.73818763115E+02  0.26640408171E+02 -0.58507245136E+03  0.61361380299E+03  0.16749090942E+03 0.  0.
        -24    2    3    3    0    0 -0.50003763348E+02  0.71250662784E+02 -0.50251601287E+03  0.51668659026E+03  0.82859254577E+02 0.  0.
          6    2    1    2  501    0  0.73818763115E+02 -0.26640408171E+02 -0.38769672564E+03  0.43141206282E+03  0.17218796631E+03 0.  0.
         24    2    5    5    0    0  0.54194382092E+01  0.29365458679E+02 -0.27614865637E+03  0.28900354297E+03  0.79832743664E+02 0.  0.
          5    1    5    5  501    0  0.68399324906E+02 -0.56005866850E+02 -0.11154806927E+03  0.14240851986E+03  0.47000000000E+01 0. -1.
        -11    1    6    6    0    0  0.34791106025E+02  0.17890466228E+02 -0.22876640978E+03  0.23208739751E+03  0.00000000000E+00 0.  1.
         12    1    6    6    0    0 -0.29371667815E+02  0.11474992451E+02 -0.47382246590E+02  0.56916145459E+02  0.00000000000E+00 0. -1.
         -5    1    3    3    0  503 -0.23814999767E+02 -0.44610254613E+02 -0.82556438495E+02  0.96927212730E+02  0.47000000000E+01 0.  1.
         13    1    4    4    0    0 -0.32196987135E+01  0.60918482424E+02 -0.16751963998E+03  0.17828140044E+03  0.00000000000E+00 0. -1.
        -14    1    4    4    0    0 -0.46784064635E+02  0.10332180360E+02 -0.33499637288E+03  0.33840518982E+03  0.00000000000E+00 0.  1.
</event>
<event>
12    1  0.8493057E-002  0.1820688E+03  0.7818608E-02  0.1166503E+00
         21   -1    0    0  503  502  0.00000000000E+00  0.00000000000E+00  0.95244543726E+02  0.95244543726E+02  0.00000000000E+00 0. -1.
         21   -1    0    0  501  503 -0.00000000000E+00 -0.00000000000E+00 -0.35575261624E+03  0.35575261624E+03  0.00000000000E+00 0.  1.
          6    2    1    2  501    0 -0.53832179483E+02 -0.51091504963E+01 -0.17261659119E+03  0.24882405000E+03  0.17085933787E+03 0.  0.
         24    2    3    3    0    0 -0.35707206131E+02  0.18889877269E+02 -0.19774415940E+02  0.92980254715E+02  0.81378548821E+02 0.  0.
         -6    2    1    2    0  502  0.53832179483E+02  0.51091504963E+01 -0.87891481324E+02  0.20217310997E+03  0.17385352150E+03 0.  0.
        -24    2    5    5    0    0  0.16286988786E+02  0.69229524207E+02 -0.42533730107E+02  0.11499238237E+03  0.79725383541E+02 0.  0.
          5    1    3    3  501    0 -0.18124973352E+02 -0.23999027766E+02 -0.15284217525E+03  0.15584379528E+03  0.47000000000E+01 0. -1.
        -13    1    4    4    0    0 -0.18188910683E+02  0.14431049168E+02 -0.51485467018E+02  0.56478712502E+02  0.00000000000E+00 0.  1.
         14    1    4    4    0    0 -0.17518295448E+02  0.44588281012E+01  0.31711051078E+02  0.36501542213E+02  0.00000000000E+00 0. -1.
         -5    1    5    5    0  502  0.37545190697E+02 -0.64120373711E+02 -0.45357751217E+02  0.87180727599E+02  0.47000000000E+01 0.  1.
         11    1    6    6    0    0 -0.27099564220E+02  0.15558184737E+02  0.43640199505E+01  0.31551357552E+02  0.00000000000E+00 0. -1.
        -12    1    6    6    0    0  0.43386553006E+02  0.53671339470E+02 -0.46897750057E+02  0.83441024818E+02  0.00000000000E+00 0.  1.
</event>
<event>
12    1  0.8493057E-002  0.1904338E+03  0.7818608E-02  0.1158148E+00
         21   -1    0    0  501  502  0.00000000000E+00  0.00000000000E+00  0.57024158632E+02  0.57024158632E+02  0.00000000000E+00 0. -1.
         21   -1    0    0  502  503 -0.00000000000E+00 -0.00000000000E+00 -0.66150768786E+03  0.66150768786E+03  0.00000000000E+00 0. -1.
         -6    2    1    2    0  503 -0.26827504774E+01 -0.80485961889E+02 -0.37466755469E+03  0.42028657314E+03  0.17256836271E+03 0.  0.
        -24    2    3    3    0    0  0.16892912225E+02 -0.12048649522E+03 -0.29233007959E+03  0.32655931433E+03  0.79885820576E+02 0.  0.
          6    2    1    2  501    0  0.26827504774E+01  0.80485961889E+02 -0.22981597453E+03  0.29824527335E+03  0.17219080613E+03 0.  0.
         24    2    5    5    0    0  0.35190985473E+02 -0.14637845254E+02 -0.11911726083E+03  0.14864039628E+03  0.80326668091E+02 0.  0.
          5    1    5    5  501    0 -0.32508234996E+02  0.95123807143E+02 -0.11069871370E+03  0.14960487707E+03  0.47000000000E+01 0. -1.
        -13    1    6    6    0    0 -0.18634266923E+02 -0.88994097336E+01 -0.34538199614E+01  0.20937150467E+02  0.00000000000E+00 0.  1.
         14    1    6    6    0    0  0.53825252396E+02 -0.57384355203E+01 -0.11566344087E+03  0.12770324581E+03  0.00000000000E+00 0. -1.
         -5    1    3    3    0  503 -0.19575662702E+02  0.40000533332E+02 -0.82337475102E+02  0.93727258806E+02  0.47000000000E+01 0.  1.
         11    1    4    4    0    0  0.20102215518E+01 -0.41288890102E+02 -0.19902522500E+03  0.20327285511E+03  0.00000000000E+00 0. -1.
        -12    1    4    4    0    0  0.14882690673E+02 -0.79197605119E+02 -0.93304854592E+02  0.12328645923E+03  0.00000000000E+00 0.  1.
</event>
<event>
12    1  0.8493057E-002  0.2052113E+03  0.7818608E-02  0.1145563E+00
         21   -1    0    0  501  502  0.00000000000E+00  0.00000000000E+00  0.65573308334E+03  0.65573308334E+03  0.00000000000E+00 0.  1.
         21   -1    0    0  502  503 -0.00000000000E+00 -0.00000000000E+00 -0.85709145031E+02  0.85709145031E+02  0.00000000000E+00 0. -1.
         -6    2    1    2    0  503  0.91101245909E+02 -0.63129726658E+02  0.98789447169E+02  0.22775211199E+03  0.17270457507E+03 0.  0.
        -24    2    3    3    0    0  0.95788302055E+02 -0.89719785983E+02  0.29221027706E+02  0.15298009358E+03  0.72965757485E+02 0.  0.
          6    2    1    2  501    0 -0.91101245909E+02  0.63129726658E+02  0.47123449114E+03  0.51369011638E+03  0.17184525199E+03 0.  0.
         24    2    5    5    0    0 -0.96913533763E+02  0.92610747773E+02  0.45121309017E+03  0.47727775868E+03  0.78941893608E+02 0.  0.
          5    1    5    5  501    0  0.58122878541E+01 -0.29481021116E+02  0.20021400973E+02  0.36412357697E+02  0.47000000000E+01 0. -1.
        -13    1    6    6    0    0 -0.39687958950E+02  0.37128134929E+02  0.31338003801E+03  0.31805766885E+03  0.00000000000E+00 0.  1.
         14    1    6    6    0    0 -0.57225574813E+02  0.55482612844E+02  0.13783305216E+03  0.15922008984E+03  0.00000000000E+00 0. -1.
         -5    1    3    3    0  503 -0.46870561458E+01  0.26590059325E+02  0.69568419463E+02  0.74772018408E+02  0.47000000000E+01 0.  1.
         11    1    4    4    0    0  0.77330309326E+02 -0.97902972503E+02  0.38770536873E+02  0.13064502782E+03  0.00000000000E+00 0. -1.
        -12    1    4    4    0    0  0.18457992729E+02  0.81831865203E+01 -0.95495091674E+01  0.22335065761E+02  0.00000000000E+00 0.  1.
</event>
<event>
12    1  0.8493057E-002  0.1820598E+03  0.7818608E-02  0.1165837E+00
         21   -1    0    0  501  502  0.00000000000E+00  0.00000000000E+00  0.13819279030E+04  0.13819279030E+04  0.00000000000E+00 0. -1.
         21   -1    0    0  502  503 -0.00000000000E+00 -0.00000000000E+00 -0.40512630350E+02  0.40512630350E+02  0.00000000000E+00 0. -1.
         -6    2    1    2    0  503  0.29509396775E+02  0.51307210175E+02  0.21628332423E+03  0.28267404033E+03  0.17211305130E+03 0.  0.
        -24    2    3    3    0    0  0.66483559609E+02  0.57301702826E+02  0.87399004440E+02  0.14837482014E+03  0.81688141294E+02 0.  0.
          6    2    1    2  501    0 -0.29509396775E+02 -0.51307210175E+02  0.11251319484E+04  0.11397664930E+04  0.17217004073E+03 0.  0.
         24    2    5    5    0    0 -0.15338096391E+02  0.38879562253E+01  0.98525821067E+03  0.98865698087E+03  0.80364859985E+02 0.  0.
          5    1    5    5  501    0 -0.14171300384E+02 -0.55195166400E+02  0.13987373775E+03  0.15110951214E+03  0.47000000000E+01 0. -1.
        -11    1    6    6    0    0  0.12619548237E+02  0.25668703111E+02  0.15338325829E+03  0.15602743105E+03  0.00000000000E+00 0.  1.
         12    1    6    6    0    0 -0.27957644627E+02 -0.21780746886E+02  0.83187495238E+03  0.83262954982E+03  0.00000000000E+00 0. -1.
         -5    1    3    3    0  503 -0.36974162834E+02 -0.59944926511E+01  0.12888431979E+03  0.13429922020E+03  0.47000000000E+01 0.  1.
         11    1    4    4    0    0 -0.92138432084E+01  0.35848032277E+02  0.10775336646E+02  0.38549762705E+02  0.00000000000E+00 0. -1.
        -12    1    4    4    0    0  0.75697402817E+02  0.21453670549E+02  0.76623667794E+02  0.10982505743E+03  0.00000000000E+00 0.  1.
</event>
<event>
12    1  0.8493057E-002  0.2381592E+03  0.7818608E-02  0.1121140E+00
         21   -1    0    0  501  502  0.00000000000E+00  0.00000000000E+00  0.13356715510E+03  0.13356715510E+03  0.00000000000E+00 0. -1.
         21   -1    0    0  502  503 -0.00000000000E+00 -0.00000000000E+00 -0.48627151621E+03  0.48627151621E+03  0.00000000000E+00 0. -1.
         -6    2    1    2    0  503 -0.43031166364E+02  0.15850998564E+03 -0.64727419437E+02  0.24614020916E+03  0.17151754112E+03 0.  0.
        -24    2    3    3    0    0 -0.66988631953E+02  0.91572758653E+02 -0.10153913378E+03  0.16594204941E+03  0.65981218033E+02 0.  0.
          6    2    1    2  501    0  0.43031166364E+02 -0.15850998564E+03 -0.28797694167E+03  0.37369846215E+03  0.17246079221E+03 0.  0.
         24    2    5    5    0    0 -0.24057387012E+02 -0.24416270005E+02 -0.88330446677E+02  0.12397298982E+03  0.79950749108E+02 0.  0.
          5    1    5    5  501    0  0.67088553376E+02 -0.13409371564E+03 -0.19964649500E+03  0.24972547233E+03  0.47000000000E+01 0. -1.
        -13    1    6    6    0    0 -0.35338283965E+01  0.17844589725E+02 -0.71956904230E+02  0.74220707299E+02  0.00000000000E+00 0.  1.
         14    1    6    6    0    0 -0.20523558616E+02 -0.42260859730E+02 -0.16373542447E+02  0.49752282517E+02  0.00000000000E+00 0. -1.
         -5    1    3    3    0  503  0.23957465590E+02  0.66937226991E+02  0.36811714347E+02  0.80198159754E+02  0.47000000000E+01 0.  1.
         11    1    4    4    0    0 -0.34080043417E+02  0.92052675427E+02 -0.79733900994E+02  0.12646200766E+03  0.00000000000E+00 0. -1.
        -12    1    4    4    0    0 -0.32908588537E+02 -0.47991677410E+00 -0.21805232790E+02  0.39480041750E+02  0.00000000000E+00 0.  1.
</event>
<event>
12    1  0.8493057E-002  0.1863017E+03  0.7818608E-02  0.1163523E+00
         21   -1    0    0  503  502  0.00000000000E+00  0.00000000000E+00  0.14348410007E+04  0.14348410007E+04  0.00000000000E+00 0. -1.
         21   -1    0    0  501  503 -0.00000000000E+00 -0.00000000000E+00 -0.34848852499E+02  0.34848852499E+02  0.00000000000E+00 0. -1.
          6    2    1    2  501    0 -0.13463573852E+02 -0.72649983158E+02  0.11325718103E+04  0.11477923339E+04  0.17102353157E+03 0.  0.
         24    2    3    3    0    0  0.23817153063E+02  0.19632514313E+02  0.57623701240E+03  0.58260527697E+03  0.80169332660E+02 0.  0.
         -6    2    1    2    0  502  0.13463573852E+02  0.72649983158E+02  0.26742033795E+03  0.32189751937E+03  0.16323323177E+03 0.  0.
        -24    2    5    5    0    0 -0.10239522309E+02  0.98030455460E+02  0.25490684245E+03  0.28468619433E+03  0.79711435161E+02 0.  0.
          5    1    3    3  501    0 -0.37280726915E+02 -0.92282497471E+02  0.55633479790E+03  0.56518705690E+03  0.47000000000E+01 0. -1.
        -11    1    4    4    0    0  0.50845096007E+02 -0.15195542966E+01  0.38001171060E+03  0.38340113853E+03  0.00000000000E+00 0.  1.
         12    1    4    4    0    0 -0.27027942945E+02  0.21152068609E+02  0.19622530180E+03  0.19920413844E+03  0.00000000000E+00 0. -1.
         -5    1    5    5    0  502  0.23703096161E+02 -0.25380472302E+02  0.12513495496E+02  0.37211325043E+02  0.47000000000E+01 0.  1.
         13    1    6    6    0    0  0.25843623573E+02  0.42565602161E+02  0.55391100441E+02  0.74484208895E+02  0.00000000000E+00 0. -1.
        -14    1    6    6    0    0 -0.36083145882E+02  0.55464853299E+02  0.19951574201E+03  0.21020198543E+03  0.00000000000E+00 0.  1.
</event>
<event>
12    1  0.8493057E-002  0.2094644E+03  0.7818608E-02  0.1142615E+00
         21   -1    0    0  501  502  0.00000000000E+00  0.00000000000E+00  0.53507163007E+02  0.53507163007E+02  0.00000000000E+00 0. -1.
         21   -1    0    0  502  503 -0.00000000000E+00 -0.00000000000E+00 -0.11644528735E+04  0.11644528735E+04  0.00000000000E+00 0. -1.
         -6    2    1    2    0  503 -0.71621385774E+02 -0.88334057109E+02 -0.88959097783E+03  0.91320887077E+03  0.17217957275E+03 0.  0.
        -24    2    3    3    0    0 -0.99375054666E+02 -0.10844854425E+03 -0.79495126669E+03  0.81244368008E+03  0.80502972951E+02 0.  0.
          6    2    1    2  501    0  0.71621385774E+02  0.88334057109E+02 -0.22135473267E+03  0.30475116575E+03  0.17590573272E+03 0.  0.
         24    2    5    5    0    0  0.42777492653E+02  0.50460181792E+02 -0.23203669906E+03  0.25573489286E+03  0.84753536166E+02 0.  0.
          5    1    5    5  501    0  0.28843893121E+02  0.37873875316E+02  0.10681966385E+02  0.49016272887E+02  0.47000000000E+01 0. -1.
        -11    1    6    6    0    0 -0.16782398213E+02 -0.28421893283E+01 -0.99631786727E+02  0.10107531774E+03  0.00000000000E+00 0.  1.
         12    1    6    6    0    0  0.59559890865E+02  0.53302371121E+02 -0.13240491233E+03  0.15465957512E+03  0.00000000000E+00 0. -1.
         -5    1    3    3    0  503  0.27753668892E+02  0.20114487137E+02 -0.94639711141E+02  0.10076519069E+03  0.47000000000E+01 0.  1.
         11    1    4    4    0    0 -0.26707438524E+02 -0.42376414395E+02 -0.11499502840E+03  0.12543087469E+03  0.00000000000E+00 0. -1.
        -12    1    4    4    0    0 -0.72667616142E+02 -0.66072129851E+02 -0.67995623829E+03  0.68701280539E+03  0.00000000000E+00 0.  1.
</event>
<event>
12    1  0.8493057E-002  0.1849960E+03  0.7818608E-02  0.1163240E+00
         21   -1    0    0  503  502  0.00000000000E+00  0.00000000000E+00  0.28610751518E+03  0.28610751518E+03  0.00000000000E+00 0.  1.
         21   -1    0    0  501  503 -0.00000000000E+00 -0.00000000000E+00 -0.26935138636E+03  0.26935138636E+03  0.00000000000E+00 0.  1.
          6    2    1    2  501    0  0.40179099010E+02  0.54484559129E+02 -0.19904093397E+03  0.27173666457E+03  0.17216443969E+03 0.  0.
         24    2    3    3    0    0  0.45243579953E+02  0.89777229869E+02 -0.19851354725E+03  0.23577015637E+03  0.77929491595E+02 0.  0.
         -6    2    1    2    0  502 -0.40179099010E+02 -0.54484559129E+02  0.21579706279E+03  0.28372223698E+03  0.17130968527E+03 0.  0.
        -24    2    5    5    0    0 -0.62790581770E+02  0.14866318601E+02  0.78561160259E+02  0.12823395337E+03  0.78156422059E+02 0.  0.
          5    1    3    3  501    0 -0.50644809434E+01 -0.35292670740E+02 -0.52738671861E+00  0.35966508198E+02  0.47000000000E+01 0. -1.
        -11    1    4    4    0    0  0.19619248333E+02  0.12700611046E+02 -0.12187971848E+03  0.12410030702E+03  0.00000000000E+00 0.  1.
         12    1    4    4    0    0  0.25624331620E+02  0.77076618824E+02 -0.76633828772E+02  0.11166984934E+03  0.00000000000E+00 0. -1.
         -5    1    5    5    0  502  0.22611482761E+02 -0.69350877730E+02  0.13723590253E+03  0.15548828361E+03  0.47000000000E+01 0.  1.
         13    1    6    6    0    0 -0.57852066513E+02 -0.38771660151E+01  0.88998182422E+02  0.10621944497E+03  0.00000000000E+00 0. -1.
        -14    1    6    6    0    0 -0.49385152576E+01  0.18743484616E+02 -0.10437022163E+02  0.22014508401E+02  0.00000000000E+00 0.  1.
</event>
<event>
12    1  0.8493057E-002  0.2309401E+03  0.7818608E-02  0.1126072E+00
         21   -1    0    0  501  502  0.00000000000E+00  0.00000000000E+00  0.97884677123E+02  0.97884677123E+02  0.00000000000E+00 0.  1.
         21   -1    0    0  502  503 -0.00000000000E+00 -0.00000000000E+00 -0.84224937839E+03  0.84224937839E+03  0.00000000000E+00 0. -1.
         -6    2    1    2    0  503 -0.10552314587E+03  0.11202953996E+03 -0.65236114442E+03  0.69203207318E+03  0.17218471310E+03 0.  0.
        -24    2    3    3    0    0 -0.94566046629E+02  0.13235222294E+03 -0.64038173215E+03  0.66559978637E+03  0.80464058170E+02 0.  0.
          6    2    1    2  501    0  0.10552314587E+03 -0.11202953996E+03 -0.92003556849E+02  0.24810198233E+03  0.17147649118E+03 0.  0.
         24    2    5    5    0    0  0.87621238583E+02 -0.17596981965E+02 -0.88218783794E+02  0.15179829185E+03  0.85282075318E+02 0.  0.
          5    1    5    5  501    0  0.17901907283E+02 -0.94432557990E+02 -0.37847730554E+01  0.96303690480E+02  0.47000000000E+01 0. -1.
        -13    1    6    6    0    0  0.98602410365E+02 -0.33082947881E+02 -0.69174798210E+02  0.12490824423E+03  0.00000000000E+00 0.  1.
         14    1    6    6    0    0 -0.10981171782E+02  0.15485965916E+02 -0.19043985584E+02  0.26890047620E+02  0.00000000000E+00 0. -1.
         -5    1    3    3    0  503 -0.10957099237E+02 -0.20322682986E+02 -0.11979412266E+02  0.26432286803E+02  0.47000000000E+01 0.  1.
         11    1    4    4    0    0 -0.76772381241E+02  0.96517608302E+02 -0.32364714182E+03  0.34634826352E+03  0.00000000000E+00 0. -1.
        -12    1    4    4    0    0 -0.17793665388E+02  0.35834614639E+02 -0.31673459033E+03  0.31925152286E+03  0.00000000000E+00 0.  1.
</event>
<event>
12    1  0.8493057E-002  0.1740176E+03  0.7818608E-02  0.1173997E+00
         21   -1    0    0  501  502  0.00000000000E+00  0.00000000000E+00  0.10270396252E+04  0.10270396252E+04  0.00000000000E+00 0. -1.
         21   -1    0    0  502  503 -0.00000000000E+00 -0.00000000000E+00 -0.13068026498E+03  0.13068026498E+03  0.00000000000E+00 0. -1.
         -6    2    1    2    0  503 -0.15900847647E+02 -0.18599228074E+02 -0.61984071085E+02  0.18370539142E+03  0.17119251598E+03 0.  0.
        -24    2    3    3    0    0 -0.20445032947E+01 -0.55319044734E+02 -0.92208504055E+02  0.13394647701E+03  0.79842806692E+02 0.  0.
          6    2    1    2  501    0  0.15900847647E+02  0.18599228074E+02  0.95834343128E+03  0.97401449874E+03  0.17228854643E+03 0.  0.
         24    2    5    5    0    0 -0.19152971385E+01  0.76274914259E+02  0.69659622798E+03  0.70535562911E+03  0.80366210425E+02 0.  0.
          5    1    5    5  501    0  0.17816144786E+02 -0.57675686184E+02  0.26174720330E+03  0.26865886962E+03  0.47000000000E+01 0. -1.
        -11    1    6    6    0    0 -0.41159073525E+01  0.24537834846E+02  0.42759110135E+02  0.49471077731E+02  0.00000000000E+00 0.  1.
         12    1    6    6    0    0  0.22006102141E+01  0.51737079412E+02  0.65383711784E+03  0.65588455138E+03  0.00000000000E+00 0. -1.
         -5    1    3    3    0  503 -0.13856344353E+02  0.36719816660E+02  0.30224432969E+02  0.49758914404E+02  0.47000000000E+01 0.  1.
         11    1    4    4    0    0  0.17086644977E+01 -0.16463044377E+02 -0.93435685278E+02  0.94890350658E+02  0.00000000000E+00 0. -1.
        -12    1    4    4    0    0 -0.37531677924E+01 -0.38856000357E+02  0.12271812237E+01  0.39056126356E+02  0.00000000000E+00 0.  1.
</event>
<event>
12    1  0.8493057E-002  0.2460563E+03  0.7818608E-02  0.1115904E+00
         21   -1    0    0  503  502  0.00000000000E+00  0.00000000000E+00  0.12963580461E+03  0.12963580461E+03  0.00000000000E+00 0.  1.
         21   -1    0    0  501  503 -0.00000000000E+00 -0.00000000000E+00 -0.88709467999E+03  0.88709467999E+03  0.00000000000E+00 0. -1.
          6    2    1    2  501    0 -0.21549912801E+02 -0.17463881198E+03 -0.72874764093E+03  0.76900475995E+03  0.17126611832E+03 0.  0.
         24    2    3    3    0    0  0.18694857718E+02 -0.11841089602E+03 -0.64265279935E+03  0.65848041045E+03  0.78887213378E+02 0.  0.
         -6    2    1    2    0  502  0.21549912801E+02  0.17463881198E+03 -0.28711234458E+02  0.24772572465E+03  0.17199007611E+03 0.  0.
        -24    2    5    5    0    0  0.18826920476E+02  0.20341616224E+03 -0.20948321552E+02  0.21742880415E+03  0.71441337486E+02 0.  0.
          5    1    3    3  501    0 -0.40244770519E+02 -0.56227915954E+02 -0.86094841580E+02  0.11052434950E+03  0.47000000000E+01 0. -1.
        -11    1    4    4    0    0  0.31373847760E+02 -0.70374280740E+02 -0.22382058156E+03  0.23671187221E+03  0.00000000000E+00 0.  1.
         12    1    4    4    0    0 -0.12678990041E+02 -0.48036615284E+02 -0.41883221779E+03  0.42176853824E+03  0.00000000000E+00 0. -1.
         -5    1    5    5    0  502  0.27229923250E+01 -0.28777350262E+02 -0.77629129058E+01  0.30296920505E+02  0.47000000000E+01 0.  1.
         13    1    6    6    0    0 -0.77989138136E+01  0.17211693139E+03 -0.31155499827E+02  0.17508776741E+03  0.00000000000E+00 0. -1.
        -14    1    6    6    0    0  0.26625834290E+02  0.31299230849E+02  0.10207178275E+02  0.42341036734E+02  0.00000000000E+00 0.  1.
</event>
<event>
12    1  0.8493057E-002  0.2139062E+03  0.7818608E-02  0.1138897E+00
         21   -1    0    0  503  502  0.00000000000E+00  0.00000000000E+00  0.20300641982E+03  0.20300641982E+03  0.00000000000E+00 0. -1.
         21   -1    0    0  501  503 -0.00000000000E+00 -0.00000000000E+00 -0.41123698717E+03  0.41123698717E+03  0.00000000000E+00 0.  1.
          6    2    1    2  501    0 -0.80306492982E+02  0.95233863348E+02 -0.31147361476E+03  0.37672501543E+03  0.17142725284E+03 0.  0.
         24    2    3    3    0    0 -0.88995938967E+02  0.42936443837E+01 -0.16745291303E+03  0.20610941702E+03  0.80634367140E+02 0.  0.
         -6    2    1    2    0  502  0.80306492982E+02 -0.95233863348E+02  0.10324304740E+03  0.23751839156E+03  0.17388857912E+03 0.  0.
        -24    2    5    5    0    0  0.98096325187E+02 -0.35196334819E+02  0.13324549599E+02  0.12784428701E+03  0.72835067779E+02 0.  0.
          5    1    3    3  501    0  0.86894459854E+01  0.90940218964E+02 -0.14402070173E+03  0.17061559842E+03  0.47000000000E+01 0. -1.
        -11    1    4    4    0    0 -0.55781096960E+02  0.38776242807E+02 -0.12430595982E+03  0.14165838991E+03  0.00000000000E+00 0.  1.
         12    1    4    4    0    0 -0.33214842007E+02 -0.34482598423E+02 -0.43146953211E+02  0.64451027106E+02  0.00000000000E+00 0. -1.
         -5    1    5    5    0  502 -0.17789832205E+02 -0.60037528529E+02  0.89918497804E+02  0.10967410455E+03  0.47000000000E+01 0.  1.
         11    1    6    6    0    0  0.59353229653E+02 -0.50599445346E+01  0.40219432318E+02  0.71874972312E+02  0.00000000000E+00 0. -1.
        -12    1    6    6    0    0  0.38743095534E+02 -0.30136390284E+02 -0.26894882719E+02  0.55969314694E+02  0.00000000000E+00 0.  1.
</event>
<event>
12    1  0.8493057E-002  0.2153904E+03  0.7818608E-02  0.1137374E+00
         21   -1    0    0  501  502  0.00000000000E+00  0.00000000000E+00  0.23442062393E+03  0.23442062393E+03  0.00000000000E+00 0. -1.
         21   -1    0    0  502  503 -0.00000000000E+00 -0.00000000000E+00 -0.25354253084E+03  0.25354253084E+03  0.00000000000E+00 0. -1.
         -6    2    1    2    0  503  0.84596232214E+02  0.99326428421E+02 -0.12388422175E+03  0.24844666627E+03  0.17133646341E+03 0.  0.
        -24    2    3    3    0    0  0.33890570994E+02  0.12967745508E+03 -0.98363413271E+02  0.18390481501E+03  0.78618107029E+02 0.  0.
          6    2    1    2  501    0 -0.84596232214E+02 -0.99326428421E+02  0.10476231484E+03  0.23951648850E+03  0.17137894784E+03 0.  0.
         24    2    5    5    0    0 -0.86692598439E+02 -0.11949222439E+03  0.41532220194E+02  0.17294931230E+03  0.79953367632E+02 0.  0.
          5    1    5    5  501    0  0.20963662255E+01  0.20165795967E+02  0.63230094651E+02  0.66567176205E+02  0.47000000000E+01 0. -1.
        -11    1    6    6    0    0 -0.58785136568E+02 -0.18243675320E+02  0.50043990588E+01  0.61754092823E+02  0.00000000000E+00 0.  1.
         12    1    6    6    0    0 -0.27907461871E+02 -0.10124854907E+03  0.36527821135E+02  0.11119521947E+03  0.00000000000E+00 0. -1.
         -5    1    3    3    0  503  0.50705661220E+02 -0.30351026662E+02 -0.25520808478E+02  0.64541851264E+02  0.47000000000E+01 0.  1.
         13    1    4    4    0    0  0.45145629955E+02  0.11878203886E+03 -0.10690715288E+03  0.16606155484E+03  0.00000000000E+00 0. -1.
        -14    1    4    4    0    0 -0.11255058962E+02  0.10895416221E+02  0.85437396046E+01  0.17843260164E+02  0.00000000000E+00 0.  1.
</event>
<event>
12    1  0.8493057E-002  0.2045931E+03  0.7818608E-02  0.1146061E+00
         21   -1    0    0  501  502  0.00000000000E+00  0.00000000000E+00  0.10021191270E+03  0.10021191270E+03  0.00000000000E+00 0.  1.
         21   -1    0    0  502  503 -0.00000000000E+00 -0.00000000000E+00 -0.57083251206E+03  0.57083251206E+03  0.00000000000E+00 0.  1.
         -6    2    1    2    0  503 -0.10847360950E+03  0.19425594318E+02 -0.41016932265E+03  0.45836361943E+03  0.17237881744E+03 0.  0.
        -24    2    3    3    0    0 -0.89095503117E+01  0.51690336916E+02 -0.24334901741E+03  0.26137346806E+03  0.79662252747E+02 0.  0.
          6    2    1    2  501    0  0.10847360950E+03 -0.19425594318E+02 -0.60451276709E+02  0.21268080533E+03  0.17156599438E+03 0.  0.
         24    2    5    5    0    0  0.14466076687E+03 -0.96803022327E+01 -0.43311841594E+02  0.17120392849E+03  0.80090097940E+02 0.  0.
          5    1    5    5  501    0 -0.36187157365E+02 -0.97452920854E+01 -0.17139435115E+02  0.41476876836E+02  0.47000000000E+01 0. -1.
        -11    1    6    6    0    0  0.76164009795E+02 -0.45106662800E+02 -0.23308435119E+02  0.91536061553E+02  0.00000000000E+00 0.  1.
         12    1    6    6    0    0  0.68496757072E+02  0.35426360567E+02 -0.20003406475E+02  0.79667866941E+02  0.00000000000E+00 0. -1.
         -5    1    3    3    0  503 -0.99564059190E+02 -0.32264742598E+02 -0.16682030524E+03  0.19699015138E+03  0.47000000000E+01 0.  1.
         11    1    4    4    0    0  0.42331045272E+01 -0.20424457838E+02 -0.38232205861E+02  0.43552028850E+02  0.00000000000E+00 0. -1.
        -12    1    4    4    0    0 -0.13142654839E+02  0.72114794754E+02 -0.20511681155E+03  0.21782143921E+03  0.00000000000E+00 0.  1.
</event>
<event>
12    1  0.8493057E-002  0.2453381E+03  0.7818608E-02  0.1116327E+00
         21   -1    0    0  503  502  0.00000000000E+00  0.00000000000E+00  0.36207769997E+03  0.36207769997E+03  0.00000000000E+00 0. -1.
         21   -1    0    0  501  503 -0.00000000000E+00 -0.00000000000E+00 -0.59461834885E+03  0.59461834885E+03  0.00000000000E+00 0. -1.
          6    2    1    2  501    0 -0.57537584863E+02  0.16524245471E+03 -0.52238014019E+03  0.57712371031E+03  0.17197419464E+03 0.  0.
         24    2    3    3    0    0 -0.39973360433E+02  0.21320206825E+02 -0.13631256257E+03  0.16470113587E+03  0.80578711078E+02 0.  0.
         -6    2    1    2    0  502  0.57537584863E+02 -0.16524245471E+03  0.28983949131E+03  0.37957233851E+03  0.17161756009E+03 0.  0.
        -24    2    5    5    0    0  0.49590801835E+02 -0.15861419722E+03  0.30770966023E+03  0.35839409271E+03  0.78379713600E+02 0.  0.
          5    1    3    3  501    0 -0.17564224430E+02  0.14392224788E+03 -0.38606757762E+03  0.41242257444E+03  0.47000000000E+01 0. -1.
        -11    1    4    4    0    0  0.14371155791E+02 -0.35516257580E+00  0.20083684450E+01  0.14515157699E+02  0.00000000000E+00 0.  1.
         12    1    4    4    0    0 -0.54344516224E+02  0.21675369401E+02 -0.13832093101E+03  0.15018597817E+03  0.00000000000E+00 0. -1.
         -5    1    5    5    0  502  0.79467830279E+01 -0.66282574905E+01 -0.17870168924E+02  0.21178245801E+02  0.47000000000E+01 0.  1.
         13    1    6    6    0    0  0.53860212864E+02 -0.55286592996E+02  0.16492106871E+03  0.18208923307E+03  0.00000000000E+00 0. -1.
        -14    1    6    6    0    0 -0.42694110290E+01 -0.10332760422E+03  0.14278859153E+03  0.17630485965E+03  0.00000000000E+00 0.  1.
</event>
<event>
12    1  0.8493057E-002  0.1975518E+03  0.7818608E-02  0.1151869E+00
         21   -1    0    0  501  502  0.00000000000E+00  0.00000000000E+00  0.17174825910E+03  0.17174825910E+03  0.00000000000E+00 0.  1.
         21   -1    0    0  502  503 -0.00000000000E+00 -0.00000000000E+00 -0.23226916473E+03  0.23226916473E+03  0.00000000000E+00 0.  1.
         -6    2    1    2    0  503  0.91630753063E+02 -0.30762601318E+02 -0.60739024276E+02  0.20646553815E+03  0.17203562662E+03 0.  0.
        -24    2    3    3    0    0  0.50689219219E+02  0.44559297266E+02 -0.91859664606E+01  0.10631861923E+03  0.81635402230E+02 0.  0.
          6    2    1    2  501    0 -0.91630753063E+02  0.30762601318E+02  0.21811865286E+00  0.19755188568E+03  0.17229093828E+03 0.  0.
         24    2    5    5    0    0 -0.10612896910E+03  0.72382712967E+02  0.12758835700E+02  0.15148897711E+03  0.79268575606E+02 0.  0.
          5    1    5    5  501    0  0.14498216037E+02 -0.41620111648E+02 -0.12540717047E+02  0.46062908570E+02  0.47000000000E+01 0. -1.
        -11    1    6    6    0    0 -0.71961314055E+02  0.22070233714E+02  0.39554731186E+02  0.85030010560E+02  0.00000000000E+00 0.  1.
         12    1    6    6    0    0 -0.34167655044E+02  0.50312479253E+02 -0.26795895486E+02  0.66458966549E+02  0.00000000000E+00 0. -1.
         -5    1    3    3    0  503  0.40941533844E+02 -0.75321898584E+02 -0.51553057815E+02  0.10014691892E+03  0.47000000000E+01 0.  1.
         13    1    4    4    0    0 -0.14523930615E+02  0.25487156042E+02 -0.22638822633E+02  0.37054769920E+02  0.00000000000E+00 0. -1.
        -14    1    4    4    0    0  0.65213149834E+02  0.19072141224E+02  0.13452856172E+02  0.69263849310E+02  0.00000000000E+00 0.  1.
</event>
<event>
12    1  0.8493057E-002  0.2694707E+03  0.7818608E-02  0.1101939E+00
         21   -1    0    0  503  502  0.00000000000E+00  0.00000000000E+00  0.22565421301E+03  0.22565421301E+03  0.00000000000E+00 0.  1.
         21   -1    0    0  501  503 -0.00000000000E+00 -0.00000000000E+00 -0.59015164779E+03  0.59015164779E+03  0.00000000000E+00 0. -1.
          6    2    1    2  501    0  0.12956097384E+03 -0.15914126866E+03  0.94769760635E+02  0.28332035892E+03  0.17081314035E+03 0.  0.
         24    2    3    3    0    0  0.20383112251E+02 -0.77678656387E+02  0.95454482041E+02  0.14701730869E+03  0.77801580889E+02 0.  0.
         -6    2    1    2    0  502 -0.12956097384E+03  0.15914126866E+03 -0.45926719542E+03  0.53248550187E+03  0.17464954505E+03 0.  0.
        -24    2    5    5    0    0 -0.90384772583E+02  0.28553009259E+02 -0.28682305811E+03  0.31260567395E+03  0.80437300220E+02 0.  0.
          5    1    3    3  501    0  0.10917786159E+03 -0.81462612275E+02 -0.68472140642E+00  0.13630305024E+03  0.47000000000E+01 0. -1.
        -13    1    4    4    0    0 -0.21672075912E+02 -0.13681794139E+01  0.34189946699E+02  0.40503126355E+02  0.00000000000E+00 0.  1.
         14    1    4    4    0    0  0.42055188163E+02 -0.76310476973E+02  0.61264535342E+02  0.10651418233E+03  0.00000000000E+00 0. -1.
         -5    1    5    5    0  502 -0.39176201260E+02  0.13058825940E+03 -0.17244413731E+03  0.21987982793E+03  0.47000000000E+01 0.  1.
         13    1    6    6    0    0 -0.56485137823E+02 -0.21675645408E+02 -0.17863778060E+03  0.18860503985E+03  0.00000000000E+00 0. -1.
        -14    1    6    6    0    0 -0.33899634760E+02  0.50228654666E+02 -0.10818527751E+03  0.12400063410E+03  0.00000000000E+00 0.  1.
</event>
<event>
12    1  0.8493057E-002  0.1912988E+03  0.7818608E-02  0.1157389E+00
         21   -1    0    0  503  502  0.00000000000E+00  0.00000000000E+00  0.23480450692E+03  0.23480450692E+03  0.00000000000E+00 0.  1.
         21   -1    0    0  501  503 -0.00000000000E+00 -0.00000000000E+00 -0.29313366886E+03  0.29313366886E+03  0.00000000000E+00 0.  1.
          6    2    1    2  501    0  0.83524243351E+02 -0.47657743224E+01 -0.21001505473E+03  0.28379916980E+03  0.17157107488E+03 0.  0.
         24    2    3    3    0    0  0.12691557789E+03 -0.40848305209E+01 -0.16299944306E+03  0.21964444014E+03  0.74502428766E+02 0.  0.
         -6    2    1    2    0  502 -0.83524243351E+02  0.47657743224E+01  0.15168589279E+03  0.24413900598E+03  0.17203555544E+03 0.  0.
        -24    2    5    5    0    0 -0.75300411949E+01 -0.44083759302E+02  0.10973671301E+03  0.14442331323E+03  0.82558269523E+02 0.  0.
          5    1    3    3  501    0 -0.43391334543E+02 -0.68094380157E+00 -0.47015611667E+02  0.64154729664E+02  0.47000000000E+01 0. -1.
        -13    1    4    4    0    0  0.39687542272E+02  0.33658838134E+02 -0.53112521578E+02  0.74356965676E+02  0.00000000000E+00 0.  1.
         14    1    4    4    0    0  0.87228035623E+02 -0.37743668655E+02 -0.10988692148E+03  0.14528747446E+03  0.00000000000E+00 0. -1.
         -5    1    5    5    0  502 -0.75994202156E+02  0.48849533625E+02  0.41949179783E+02  0.99715692753E+02  0.47000000000E+01 0.  1.
         13    1    6    6    0    0  0.10046540766E+02 -0.88260629771E+01  0.10371050521E+03  0.10456912193E+03  0.00000000000E+00 0. -1.
        -14    1    6    6    0    0 -0.17576581961E+02 -0.35257696325E+02  0.60262077942E+01  0.39854191298E+02  0.00000000000E+00 0.  1.
</event>
<event>
12    1  0.8493057E-002  0.1856976E+03  0.7818608E-02  0.1162491E+00
         21   -1    0    0  501  502  0.00000000000E+00  0.00000000000E+00  0.39739028454E+03  0.39739028454E+03  0.00000000000E+00 0.  1.
         21   -1    0    0  502  503 -0.00000000000E+00 -0.00000000000E+00 -0.16801444259E+03  0.16801444259E+03  0.00000000000E+00 0.  1.
         -6    2    1    2    0  503 -0.25284269953E+02  0.65229551603E+02 -0.82176276148E+02  0.20270882702E+03  0.17159178151E+03 0.  0.
        -24    2    3    3    0    0 -0.81156779808E+02  0.58890810655E+02 -0.63852552711E+02  0.14338121258E+03  0.80165286414E+02 0.  0.
          6    2    1    2  501    0  0.25284269953E+02 -0.65229551603E+02  0.31155211810E+03  0.36269590011E+03  0.17201571138E+03 0.  0.
         24    2    5    5    0    0 -0.13129604815E+02 -0.50672373406E+02  0.71847086405E+02  0.11945090134E+03  0.79789962129E+02 0.  0.
          5    1    5    5  501    0  0.38413874768E+02 -0.14557178197E+02  0.23970503169E+03  0.24324499878E+03  0.47000000000E+01 0. -1.
        -13    1    6    6    0    0  0.84959040019E+00 -0.60049889882E+02  0.80571496757E+02  0.10049117956E+03  0.00000000000E+00 0.  1.
         14    1    6    6    0    0 -0.13979195215E+02  0.93775164764E+01 -0.87244103523E+01  0.18959721784E+02  0.00000000000E+00 0. -1.
         -5    1    3    3    0  503  0.55872509855E+02  0.63387409478E+01 -0.18323723437E+02  0.59327614438E+02  0.47000000000E+01 0.  1.
         11    1    4    4    0    0 -0.33705710098E+02  0.70580094755E+02 -0.29268083214E+02  0.83511947432E+02  0.00000000000E+00 0. -1.
        -12    1    4    4    0    0 -0.47451069710E+02 -0.11689284100E+02 -0.34584469497E+02  0.59869265152E+02  0.00000000000E+00 0.  1.
</event>
<event>
12    1  0.8493057E-002  0.1989624E+03  0.7818608E-02  0.1152342E+00
         21   -1    0    0  501  502  0.00000000000E+00  0.00000000000E+00  0.33572857958E+03  0.33572857958E+03  0.00000000000E+00 0.  1.
         21   -1    0    0  502  503 -0.00000000000E+00 -0.00000000000E+00 -0.29298690516E+03  0.29298690516E+03  0.00000000000E+00 0. -1.
         -6    2    1    2    0  503  0.51041979469E+02 -0.61088536340E+02 -0.22465923920E+03  0.30009630224E+03  0.18234287459E+03 0.  0.
        -24    2    3    3    0    0  0.87284528476E+02  0.70883196787E+01 -0.15972292578E+03  0.19909916932E+03  0.80375574767E+02 0.  0.
          6    2    1    2  501    0 -0.51041979469E+02  0.61088536340E+02  0.26740091363E+03  0.32861918250E+03  0.17363820305E+03 0.  0.
         24    2    5    5    0    0 -0.98234237643E+02  0.32633971444E+02  0.16184215622E+03  0.20944908239E+03  0.83433165150E+02 0.  0.
          5    1    5    5  501    0  0.47192258174E+02  0.28454564896E+02  0.10555875741E+03  0.11917010011E+03  0.47000000000E+01 0. -1.
        -11    1    6    6    0    0 -0.83733304066E+02  0.50062376045E+02  0.15907661177E+03  0.18660888542E+03  0.00000000000E+00 0.  1.
         12    1    6    6    0    0 -0.14500933577E+02 -0.17428404600E+02  0.27655444461E+01  0.22840196969E+02  0.00000000000E+00 0. -1.
         -5    1    3    3    0  503 -0.36242549007E+02 -0.68176856019E+02 -0.64936313426E+02  0.10099713291E+03  0.47000000000E+01 0.  1.
         13    1    4    4    0    0  0.86246731813E+02 -0.18342135863E+02 -0.95319061939E+02  0.12984858977E+03  0.00000000000E+00 0. -1.
        -14    1    4    4    0    0  0.10377966622E+01  0.25430455542E+02 -0.64403863839E+02  0.69250579553E+02  0.00000000000E+00 0.  1.
</event>
<event>
12    1  0.8493057E-002  0.2129063E+03  0.7818608E-02  0.1139652E+00
         21   -1    0    0  503  502  0.00000000000E+00  0.00000000000E+00  0.55553059855E+03  0.55553059855E+03  0.00000000000E+00 0.  1.
         21   -1    0    0  501  503 -0.00000000000E+00 -0.00000000000E+00 -0.13008809542E+03  0.13008809542E+03  0.00000000000E+00 0.  1.
          6    2    1    2  501    0 -0.11534827102E+03 -0.48937700556E+02  0.12902842477E+01  0.21103024286E+03  0.16979981273E+03 0.  0.
         24    2    3    3    0    0 -0.11687243986E+03  0.13962756436E+02  0.22924635577E+02  0.14432997496E+03  0.80321086818E+02 0.  0.
         -6    2    1    2    0  502  0.11534827102E+03  0.48937700556E+02  0.42415221888E+03  0.47458845111E+03  0.17213067995E+03 0.  0.
        -24    2    5    5    0    0  0.24815224824E+02  0.38242753762E+02  0.83499390201E+02  0.12191713950E+03  0.76245243411E+02 0.  0.
          5    1    3    3  501    0  0.15241688452E+01 -0.62900456992E+02 -0.21634351329E+02  0.66700267900E+02  0.47000000000E+01 0. -1.
        -11    1    4    4    0    0 -0.90089508695E+02 -0.25448872415E+02  0.61651234130E+01  0.93817767138E+02  0.00000000000E+00 0.  1.
         12    1    4    4    0    0 -0.26782931167E+02  0.39411628851E+02  0.16759512164E+02  0.50512207817E+02  0.00000000000E+00 0. -1.
         -5    1    5    5    0  502  0.90533046193E+02  0.10694946795E+02  0.34065282868E+03  0.35267131160E+03  0.47000000000E+01 0.  1.
         11    1    6    6    0    0 -0.17875439119E+02 -0.82798666404E+01  0.41910867732E+02  0.46309916317E+02  0.00000000000E+00 0. -1.
        -12    1    6    6    0    0  0.42690663943E+02  0.46522620402E+02  0.41588522469E+02  0.75607223187E+02  0.00000000000E+00 0.  1.
</event>
<event>
12    1  0.8493057E-002  0.3768650E+03  0.7818608E-02  0.1052227E+00
         21   -1    0    0  501  502  0.00000000000E+00  0.00000000000E+00  0.19073103074E+04  0.19073103074E+04  0.00000000000E+00 0. -1.
         21   -1    0    0  502  503 -0.00000000000E+00 -0.00000000000E+00 -0.11374537100E+03  0.11374537100E+03  0.00000000000E+00 0.  1.
         -6    2    1    2    0  503  0.71762178876E+00  0.33376110195E+03  0.30196166160E+03  0.48291618785E+03  0.17501488866E+03 0.  0.
        -24    2    3    3    0    0 -0.66837331993E+02  0.22843535901E+03  0.21260113959E+03  0.32908323689E+03  0.80290659809E+02 0.  0.
          6    2    1    2  501    0 -0.71762178876E+00 -0.33376110195E+03  0.14916032748E+04  0.15381394905E+04  0.17203422569E+03 0.  0.
         24    2    5    5    0    0  0.40838629965E+02 -0.10349226946E+03  0.67216521824E+03  0.68593559720E+03  0.79518044272E+02 0.  0.
          5    1    5    5  501    0 -0.41556251754E+02 -0.23026883250E+03  0.81943805654E+03  0.85220389332E+03  0.47000000000E+01 0. -1.
        -11    1    6    6    0    0  0.40025961407E+02 -0.41660090469E+02  0.16115472397E+03  0.17119721313E+03  0.00000000000E+00 0.  1.
         12    1    6    6    0    0  0.81266855843E+00 -0.61832178987E+02  0.51101049426E+03  0.51473838407E+03  0.00000000000E+00 0. -1.
         -5    1    3    3    0  503  0.67554953782E+02  0.10532574294E+03  0.89360522008E+02  0.15383295096E+03  0.47000000000E+01 0.  1.
         13    1    4    4    0    0 -0.16460026283E+02  0.43974421727E+01  0.34504865529E+02  0.38481888052E+02  0.00000000000E+00 0. -1.
        -14    1    4    4    0    0 -0.50377305710E+02  0.22403791684E+03  0.17809627406E+03  0.29060134884E+03  0.00000000000E+00 0.  1.
</event>
<event>
12    1  0.8493057E-002  0.2149947E+03  0.7818608E-02  0.1138692E+00
         21   -1    0    0  501  502  0.00000000000E+00  0.00000000000E+00  0.12023101856E+03  0.12023101856E+03  0.00000000000E+00 0.  1.
         21   -1    0    0  502  503 -0.00000000000E+00 -0.00000000000E+00 -0.46459497966E+03  0.46459497966E+03  0.00000000000E+00 0.  1.
         -6    2    1    2    0  503 -0.96737416576E+02  0.72619839191E+02 -0.29878066338E+03  0.36505208705E+03  0.17135160530E+03 0.  0.
        -24    2    3    3    0    0 -0.11481226481E+03  0.92149936817E+02 -0.21861101570E+03  0.28045074391E+03  0.95856019981E+02 0.  0.
          6    2    1    2  501    0  0.96737416576E+02 -0.72619839191E+02 -0.45583297719E+02  0.21977391116E+03  0.17773847694E+03 0.  0.
         24    2    5    5    0    0  0.75609283414E+02  0.12453763573E+02  0.16267664387E+02  0.11238886839E+03  0.80590079213E+02 0.  0.
          5    1    5    5  501    0  0.21128133162E+02 -0.85073602763E+02 -0.61850962106E+02  0.10738504277E+03  0.47000000000E+01 0. -1.
        -13    1    6    6    0    0  0.51999011449E+02 -0.34395684697E+01  0.47231556630E+02  0.70331698150E+02  0.00000000000E+00 0.  1.
         14    1    6    6    0    0  0.23610271964E+02  0.15893332042E+02 -0.30963892243E+02  0.42057170238E+02  0.00000000000E+00 0. -1.
         -5    1    3    3    0  503  0.18074848238E+02 -0.19530097626E+02 -0.80169647686E+02  0.84601343146E+02  0.47000000000E+01 0.  1.
         13    1    4    4    0    0  0.54686844467E+01  0.22720584282E+02 -0.83432849516E+02  0.86643937111E+02  0.00000000000E+00 0. -1.
        -14    1    4    4    0    0 -0.12028094926E+03  0.69429352535E+02 -0.13517816618E+03  0.19380680680E+03  0.00000000000E+00 0.  1.
</event>
<event>
12    1  0.8493057E-002  0.2079239E+03  0.7818608E-02  0.1143275E+00
         21   -1    0    0  503  502  0.00000000000E+00  0.00000000000E+00  0.18312056037E+03  0.18312056037E+03  0.00000000000E+00 0.  1.
         21   -1    0    0  501  503 -0.00000000000E+00 -0.00000000000E+00 -0.45662697621E+03  0.45662697621E+03  0.00000000000E+00 0.  1.
          6    2    1    2  501    0  0.20807599599E+02 -0.11469806637E+03 -0.35916258607E+03  0.41487130180E+03  0.17184827958E+03 0.  0.
         24    2    3    3    0    0  0.51588066308E+02 -0.93995667275E+01 -0.14258902219E+03  0.17205159558E+03  0.80749252949E+02 0.  0.
         -6    2    1    2    0  502 -0.20807599599E+02  0.11469806637E+03  0.85656170223E+02  0.22487623478E+03  0.17217357185E+03 0.  0.
        -24    2    5    5    0    0 -0.42299119932E+02  0.44386656919E+01  0.15218617754E+02  0.92201596356E+02  0.80377924482E+02 0.  0.
          5    1    3    3  501    0 -0.30780466709E+02 -0.10529849964E+03 -0.21657356388E+03  0.24281970622E+03  0.47000000000E+01 0. -1.
        -13    1    4    4    0    0  0.59933727017E+02 -0.34965678053E+02 -0.10276649860E+03  0.12399840124E+03  0.00000000000E+00 0.  1.
         14    1    4    4    0    0 -0.83456607086E+01  0.25566111325E+02 -0.39822523594E+02  0.48053194340E+02  0.00000000000E+00 0. -1.
         -5    1    5    5    0  502  0.21491520333E+02  0.11025940068E+03  0.70437552469E+02  0.13267463843E+03  0.47000000000E+01 0.  1.
         11    1    6    6    0    0 -0.30109780805E+02  0.35319858911E+02 -0.13466151661E+02  0.48326272091E+02  0.00000000000E+00 0. -1.
        -12    1    6    6    0    0 -0.12189339126E+02 -0.30881193219E+02  0.28684769415E+02  0.43875324265E+02  0.00000000000E+00 0.  1.
</event>
<event>
12    1  0.8493057E-002  0.1874350E+03  0.7818608E-02  0.1161508E+00
         21   -1    0    0  501  502  0.00000000000E+00  0.00000000000E+00  0.35156601558E+03  0.35156601558E+03  0.00000000000E+00 0. -1.
         21   -1    0    0  502  503 -0.00000000000E+00 -0.00000000000E+00 -0.12920266586E+03  0.12920266586E+03  0.00000000000E+00 0. -1.
         -6    2    1    2    0  503 -0.58700171833E+02 -0.28789674026E+02 -0.70869062099E+01  0.18449298976E+03  0.17237425425E+03 0.  0.
        -24    2    3    3    0    0 -0.18206974575E+02 -0.75941373179E+02  0.24048056842E+02  0.11481905144E+03  0.80662999278E+02 0.  0.
          6    2    1    2  501    0  0.58700171833E+02  0.28789674026E+02  0.22945025594E+03  0.29627569168E+03  0.17566248895E+03 0.  0.
         24    2    5    5    0    0  0.98115359522E+02  0.85476461037E+01  0.10814638473E+03  0.16704715038E+03  0.80681000814E+02 0.  0.
          5    1    5    5  501    0 -0.39415187689E+02  0.20242027922E+02  0.12130387121E+03  0.12922854130E+03  0.47000000000E+01 0. -1.
        -11    1    6    6    0    0  0.12470556239E+02 -0.30050667772E+02  0.36549890341E+02  0.48933136936E+02  0.00000000000E+00 0.  1.
         12    1    6    6    0    0  0.85644803283E+02  0.38598313875E+02  0.71596494385E+02  0.11811401344E+03  0.00000000000E+00 0. -1.
         -5    1    3    3    0  503 -0.40493197258E+02  0.47151699154E+02 -0.31134963051E+02  0.69673938323E+02  0.47000000000E+01 0.  1.
         13    1    4    4    0    0  0.57828021738E+01 -0.26735212632E+02 -0.28098990058E+02  0.39214354996E+02  0.00000000000E+00 0. -1.
        -14    1    4    4    0    0 -0.23989776749E+02 -0.49206160548E+02  0.52147046900E+02  0.75604696446E+02  0.00000000000E+00 0.  1.
</event>
<event>
12    1  0.8493057E-002  0.2233290E+03  0.7818608E-02  0.1131530E+00
         21   -1    0    0  503  502  0.00000000000E+00  0.00000000000E+00  0.66027024989E+03  0.66027024989E+03  0.00000000000E+00 0. -1.
         21   -1    0    0  501  503 -0.00000000000E+00 -0.00000000000E+00 -0.99735868639E+02  0.99735868639E+02  0.00000000000E+00 0. -1.
          6    2    1    2  501    0 -0.52252851336E+02  0.13306704915E+03  0.92071667795E+02  0.24103293716E+03  0.17082881708E+03 0.  0.
         24    2    3    3    0    0 -0.27586744273E+01  0.14986337920E+03  0.71868617349E+02  0.18480088671E+03  0.80744206343E+02 0.  0.
         -6    2    1    2    0  502  0.52252851336E+02 -0.13306704915E+03  0.46846271346E+03  0.51897318137E+03  0.17157694787E+03 0.  0.
        -24    2    5    5    0    0  0.99815643240E+02 -0.71994290541E+02  0.31038921185E+03  0.34290097196E+03  0.78059421145E+02 0.  0.
          5    1    3    3  501    0 -0.49494176908E+02 -0.16796330051E+02  0.20203050446E+02  0.56232050455E+02  0.47000000000E+01 0. -1.
        -11    1    4    4    0    0  0.49004931616E+01 -0.94617943235E+01  0.59818513514E+01  0.12219776211E+02  0.00000000000E+00 0.  1.
         12    1    4    4    0    0 -0.76591675889E+01  0.15932517352E+03  0.65886765998E+02  0.17258111050E+03  0.00000000000E+00 0. -1.
         -5    1    5    5    0  502 -0.47562791904E+02 -0.61072758607E+02  0.15807350161E+03  0.17607220941E+03  0.47000000000E+01 0.  1.
         13    1    6    6    0    0  0.46579247439E+02 -0.61620481606E+00  0.53091730812E+02  0.70630998018E+02  0.00000000000E+00 0. -1.
        -14    1    6    6    0    0  0.53236395800E+02 -0.71378085725E+02  0.25729748104E+03  0.27226997394E+03  0.00000000000E+00 0.  1.
</event>
<event>
12    1  0.8493057E-002  0.2125801E+03  0.7818608E-02  0.1140098E+00
         21   -1    0    0  501  502  0.00000000000E+00  0.00000000000E+00  0.33994493485E+02  0.33994493485E+02  0.00000000000E+00 0.  1.
         21   -1    0    0  502  503 -0.00000000000E+00 -0.00000000000E+00 -0.13701606414E+04  0.13701606414E+04  0.00000000000E+00 0.  1.
         -6    2    1    2    0  503  0.10945240491E+03 -0.55815436790E+02 -0.51860551216E+03  0.55940921003E+03  0.16997586623E+03 0.  0.
        -24    2    3    3    0    0  0.30602650678E+02  0.32301676333E+02 -0.21122072461E+03  0.23003190816E+03  0.79501973225E+02 0.  0.
          6    2    1    2  501    0 -0.10945240491E+03  0.55815436790E+02 -0.81756063578E+03  0.84474592488E+03  0.17347937196E+03 0.  0.
         24    2    5    5    0    0 -0.11424309089E+03  0.18475155275E+02 -0.38168981533E+03  0.40722711452E+03  0.82182677601E+02 0.  0.
          5    1    5    5  501    0  0.47906859751E+01  0.37340281515E+02 -0.43587082045E+03  0.43751881036E+03  0.47000000000E+01 0. -1.
        -11    1    6    6    0    0 -0.19624734041E+02  0.40010381526E+02 -0.13349141058E+03  0.14073349819E+03  0.00000000000E+00 0.  1.
         12    1    6    6    0    0 -0.94618356846E+02 -0.21535226251E+02 -0.24819840475E+03  0.26649361633E+03  0.00000000000E+00 0. -1.
         -5    1    3    3    0  503  0.78849754234E+02 -0.88117113123E+02 -0.30738478755E+03  0.32937730187E+03  0.47000000000E+01 0.  1.
         13    1    4    4    0    0  0.11418535140E+02  0.49958425388E+02 -0.18884225488E+03  0.19567223727E+03  0.00000000000E+00 0. -1.
        -14    1    4    4    0    0  0.19184115538E+02 -0.17656749055E+02 -0.22378469729E+02  0.34359670889E+02  0.00000000000E+00 0.  1.
</event>
<event>
12    1  0.8493057E-002  0.2813354E+03  0.7818608E-02  0.1095568E+00
         21   -1    0    0  503  502  0.00000000000E+00  0.00000000000E+00  0.19069583364E+03  0.19069583364E+03  0.00000000000E+00 0. -1.
         21   -1    0    0  501  503 -0.00000000000E+00 -0.00000000000E+00 -0.40857123765E+03  0.40857123765E+03  0.00000000000E+00 0. -1.
          6    2    1    2  501    0 -0.66760968105E+02  0.20795124525E+03 -0.11013852141E+03  0.29800828939E+03  0.17022837420E+03 0.  0.
         24    2    3    3    0    0  0.78285181342E+01  0.12989036970E+03 -0.10778162090E+03  0.18991232865E+03  0.86700755071E+02 0.  0.
         -6    2    1    2    0  502  0.66760968105E+02 -0.20795124525E+03 -0.10773688260E+03  0.30125878191E+03  0.17733829406E+03 0.  0.
        -24    2    5    5    0    0  0.76343686517E+02 -0.51431526829E+02 -0.69903445874E+02  0.13987814589E+03  0.78777176457E+02 0.  0.
          5    1    3    3  501    0 -0.74589486240E+02  0.78060875541E+02 -0.23569005026E+01  0.10809596074E+03  0.47000000000E+01 0. -1.
        -13    1    4    4    0    0 -0.82895631383E+01 -0.11348467556E+02 -0.12209706433E+02  0.18616699602E+02  0.00000000000E+00 0.  1.
         14    1    4    4    0    0  0.16118081273E+02  0.14123883726E+03 -0.95571914472E+02  0.17129562905E+03  0.00000000000E+00 0. -1.
         -5    1    5    5    0  502 -0.95827184120E+01 -0.15651971842E+03 -0.37833436726E+02  0.16138063601E+03  0.47000000000E+01 0.  1.
         13    1    6    6    0    0  0.59100002036E+02 -0.72107030827E+02 -0.61441910877E+02  0.11165725479E+03  0.00000000000E+00 0. -1.
        -14    1    6    6    0    0  0.17243684481E+02  0.20675503998E+02 -0.84615349974E+01  0.28220891102E+02  0.00000000000E+00 0.  1.
</event>
<event>
12    1  0.8493057E-002  0.1881232E+03  0.7818608E-02  0.1160240E+00
         21   -1    0    0  501  502  0.00000000000E+00  0.00000000000E+00  0.24853810944E+03  0.24853810944E+03  0.00000000000E+00 0.  1.
         21   -1    0    0  502  503 -0.00000000000E+00 -0.00000000000E+00 -0.26912999839E+03  0.26912999839E+03  0.00000000000E+00 0. -1.
         -6    2    1    2    0  503 -0.28532020406E+02  0.70270408883E+02 -0.18809411163E+03  0.26602584642E+03  0.17215792046E+03 0.  0.
        -24    2    3    3    0    0 -0.86114852147E+01  0.67491780708E+02 -0.32986852341E+02  0.10954932938E+03  0.79269319414E+02 0.  0.
          6    2    1    2  501    0  0.28532020406E+02 -0.70270408883E+02  0.16750222268E+03  0.25164226142E+03  0.17179879677E+03 0.  0.
         24    2    5    5    0    0  0.17962888386E+02 -0.88293026705E+02  0.46278230376E+02  0.12854121505E+03  0.79138141477E+02 0.  0.
          5    1    5    5  501    0  0.10569132021E+02  0.18022617822E+02  0.12122399231E+03  0.12310104636E+03  0.47000000000E+01 0. -1.
        -11    1    6    6    0    0 -0.27748012211E+02 -0.31029851044E+02  0.35045028868E+02  0.54414684469E+02  0.00000000000E+00 0.  1.
         12    1    6    6    0    0  0.45710900597E+02 -0.57263175660E+02  0.11233201507E+02  0.74126530583E+02  0.00000000000E+00 0. -1.
         -5    1    3    3    0  503 -0.19920535192E+02  0.27786281754E+01 -0.15510725929E+03  0.15647651703E+03  0.47000000000E+01 0.  1.
         11    1    4    4    0    0  0.16895313254E+02  0.57684345726E+02 -0.49285824495E+02  0.77730482102E+02  0.00000000000E+00 0. -1.
        -12    1    4    4    0    0 -0.25506798468E+02  0.98074349820E+01  0.16298972154E+02  0.31818847281E+02  0.00000000000E+00 0.  1.
</event>
<event>
12    1  0.8493057E-002  0.1854805E+03  0.7818608E-02  0.1162795E+00
         21   -1    0    0  501  502  0.00000000000E+00  0.00000000000E+00  0.80146904536E+03  0.80146904536E+03  0.00000000000E+00 0. -1.
         21   -1    0    0  502  503 -0.00000000000E+00 -0.00000000000E+00 -0.45621392329E+02  0.45621392329E+02  0.00000000000E+00 0. -1.
         -6    2    1    2    0  503 -0.62646307480E+02 -0.72880883119E+01  0.27214766096E+03  0.32934386428E+03  0.17442865447E+03 0.  0.
        -24    2    3    3    0    0 -0.94225698400E+02 -0.94277645727E+01  0.11392760529E+03  0.16792047018E+03  0.79059598251E+02 0.  0.
          6    2    1    2  501    0  0.62646307480E+02  0.72880883119E+01  0.48369999207E+03  0.51774657341E+03  0.17354583221E+03 0.  0.
         24    2    5    5    0    0  0.73205287842E+02  0.50811689636E+02  0.43308130481E+03  0.44999602036E+03  0.83643049876E+02 0.  0.
          5    1    5    5  501    0 -0.10558980362E+02 -0.43523601324E+02  0.50618687263E+02  0.67750553052E+02  0.47000000000E+01 0. -1.
        -11    1    6    6    0    0  0.58678509562E+02  0.45294207153E+02  0.15851869581E+03  0.17499402735E+03  0.00000000000E+00 0.  1.
         12    1    6    6    0    0  0.14526778281E+02  0.55174824837E+01  0.27456260900E+03  0.27500199301E+03  0.00000000000E+00 0. -1.
         -5    1    3    3    0  503  0.31579390920E+02  0.21396762608E+01  0.15822005567E+03  0.16142339409E+03  0.47000000000E+01 0.  1.
         13    1    4    4    0    0 -0.38064624004E+02  0.14163424451E+02  0.96287965169E+02  0.10450306421E+03  0.00000000000E+00 0. -1.
        -14    1    4    4    0    0 -0.56161074395E+02 -0.23591189023E+02  0.17639640120E+02  0.63417405973E+02  0.00000000000E+00 0.  1.
</event>
<event>
12    1  0.8493057E-002  0.1816943E+03  0.7818608E-02  0.1166385E+00
         21   -1    0    0  501  502  0.00000000000E+00  0.00000000000E+00  0.13601340508E+03  0.13601340508E+03  0.00000000000E+00 0.  1.
         21   -1    0    0  502  503 -0.00000000000E+00 -0.00000000000E+00 -0.62312105050E+03  0.62312105050E+03  0.00000000000E+00 0.  1.
         -6    2    1    2    0  503  0.47706539255E+02 -0.51007646507E+01 -0.54081116696E+03  0.57051688751E+03  0.17524516808E+03 0.  0.
        -24    2    3    3    0    0 -0.36030221327E+02 -0.32142984371E+02 -0.26756329549E+03  0.28341130417E+03  0.80003137095E+02 0.  0.
          6    2    1    2  501    0 -0.47706539255E+02  0.51007646507E+01  0.53703521545E+02  0.18861756807E+03  0.17432896223E+03 0.  0.
         24    2    5    5    0    0 -0.15725759824E+02  0.37328712079E+02 -0.29314784673E+02  0.93878241414E+02  0.79454611843E+02 0.  0.
          5    1    5    5  501    0 -0.31980779431E+02 -0.32227947429E+02  0.83018306218E+02  0.94739326659E+02  0.47000000000E+01 0. -1.
        -11    1    6    6    0    0 -0.11499747877E+02 -0.15721834470E+02  0.15031968841E+02  0.24604478608E+02  0.00000000000E+00 0.  1.
         12    1    6    6    0    0 -0.42260119475E+01  0.53050546549E+02 -0.44346753514E+02  0.69273762806E+02  0.00000000000E+00 0. -1.
         -5    1    3    3    0  503  0.83736760582E+02  0.27042219721E+02 -0.27324787147E+03  0.28710558334E+03  0.47000000000E+01 0.  1.
         13    1    4    4    0    0 -0.28745622869E+02 -0.53043628584E+02 -0.24286443353E+03  0.25024601983E+03  0.00000000000E+00 0. -1.
        -14    1    4    4    0    0 -0.72845984583E+01  0.20900644213E+02 -0.24698861960E+02  0.33165284339E+02  0.00000000000E+00 0.  1.
</event>
<event>
12    1  0.8493057E-002  0.2283514E+03  0.7818608E-02  0.1128136E+00
         21   -1    0    0  501  502  0.00000000000E+00  0.00000000000E+00  0.29214237806E+03  0.29214237806E+03  0.00000000000E+00 0.  1.
         21   -1    0    0  502  503 -0.00000000000E+00 -0.00000000000E+00 -0.58583596925E+03  0.58583596925E+03  0.00000000000E+00 0. -1.
         -6    2    1    2    0  503 -0.13707493926E+03  0.54524704047E+02 -0.51337059399E+03  0.56111503030E+03  0.17186689071E+03 0.  0.
        -24    2    3    3    0    0 -0.13690380810E+03  0.85351294430E+02 -0.33352656636E+03  0.37858757418E+03  0.77852968611E+02 0.  0.
          6    2    1    2  501    0  0.13707493926E+03 -0.54524704047E+02  0.21967700280E+03  0.31686331702E+03  0.17430402688E+03 0.  0.
         24    2    5    5    0    0  0.14073519112E+03 -0.63189056615E+02  0.10919917996E+03  0.20588625728E+03  0.81642140688E+02 0.  0.
          5    1    5    5  501    0 -0.36602518583E+01  0.86643525678E+01  0.11047782284E+03  0.11097705974E+03  0.47000000000E+01 0. -1.
        -11    1    6    6    0    0  0.69223303342E+02  0.12426513233E+02  0.48041893856E+02  0.85172222714E+02  0.00000000000E+00 0.  1.
         12    1    6    6    0    0  0.71511887777E+02 -0.75615569847E+02  0.61157286105E+02  0.12071403456E+03  0.00000000000E+00 0. -1.
         -5    1    3    3    0  503 -0.17113115823E+00 -0.30826590383E+02 -0.17984402763E+03  0.18252745611E+03  0.47000000000E+01 0.  1.
         13    1    4    4    0    0 -0.51959828111E+02  0.66493327969E+02 -0.21943876083E+03  0.23510541499E+03  0.00000000000E+00 0. -1.
        -14    1    4    4    0    0 -0.84943979992E+02  0.18857966461E+02 -0.11408780553E+03  0.14348215919E+03  0.00000000000E+00 0.  1.
</event>
<event>
12    1  0.8493057E-002  0.1849292E+03  0.7818608E-02  0.1167590E+00
         21   -1    0    0  501  502  0.00000000000E+00  0.00000000000E+00  0.12587382619E+04  0.12587382619E+04  0.00000000000E+00 0. -1.
         21   -1    0    0  502  503 -0.00000000000E+00 -0.00000000000E+00 -0.43583909164E+02  0.43583909164E+02  0.00000000000E+00 0. -1.
         -6    2    1    2    0  503 -0.53063863844E+02 -0.40716352984E+02  0.19547411617E+03  0.26908909798E+03  0.17241002730E+03 0.  0.
        -24    2    3    3    0    0  0.28976088030E+02 -0.44793032543E+02  0.76829869808E+02  0.12470862764E+03  0.82482625273E+02 0.  0.
          6    2    1    2  501    0  0.53063863844E+02  0.40716352984E+02  0.10196802366E+04  0.10332330731E+04  0.15280446141E+03 0.  0.
         24    2    5    5    0    0 -0.19168775257E+01  0.34609097724E+02  0.85685696910E+03  0.86120491575E+03  0.79174347820E+02 0.  0.
          5    1    5    5  501    0  0.54980741370E+02  0.61072552600E+01  0.16282326751E+03  0.17202815738E+03  0.47000000000E+01 0. -1.
        -13    1    6    6    0    0  0.78242580274E+01  0.10518018500E+02  0.19809876900E+02  0.23754556397E+02  0.00000000000E+00 0.  1.
         14    1    6    6    0    0 -0.97411355531E+01  0.24091079224E+02  0.83704709220E+03  0.83745035935E+03  0.00000000000E+00 0. -1.
         -5    1    3    3    0  503 -0.82039951874E+02  0.40766795592E+01  0.11864424636E+03  0.14438047034E+03  0.47000000000E+01 0.  1.
         11    1    4    4    0    0  0.67762301058E+01 -0.66196325048E+02  0.44622875960E+02  0.80119110101E+02  0.00000000000E+00 0. -1.
        -12    1    4    4    0    0  0.22199857924E+02  0.21403292505E+02  0.32206993848E+02  0.44589517542E+02  0.00000000000E+00 0.  1.
</event>
<event>
12    1  0.8493057E-002  0.1904656E+03  0.7818608E-02  0.1158538E+00
         21   -1    0    0  501  502  0.00000000000E+00  0.00000000000E+00  0.26576365166E+04  0.26576365166E+04  0.00000000000E+00 0.  1.
         21   -1    0    0  502  503 -0.00000000000E+00 -0.00000000000E+00 -0.27595338146E+02  0.27595338146E+02  0.00000000000E+00 0.  1.
         -6    2    1    2    0  503 -0.77514591497E+02 -0.64833633687E+01  0.35896991387E+03  0.40636994555E+03  0.17385795260E+03 0.  0.
        -24    2    3    3    0    0  0.26462136968E+02 -0.13173194049E+02  0.17644632026E+03  0.19614895201E+03  0.80419709700E+02 0.  0.
          6    2    1    2  501    0  0.77514591497E+02  0.64833633687E+01  0.22710712646E+04  0.22788619092E+04  0.17145368616E+03 0.  0.
         24    2    5    5    0    0  0.11765301812E+03 -0.12205095528E+02  0.18229241042E+04  0.18285083601E+04  0.79995852490E+02 0.  0.
          5    1    5    5  501    0 -0.40138426627E+02  0.18688458896E+02  0.44814716036E+03  0.45035354904E+03  0.47000000000E+01 0. -1.
        -13    1    6    6    0    0  0.88959111149E+02 -0.52779358497E+01  0.76508814003E+03  0.77026063257E+03  0.00000000000E+00 0.  1.
         14    1    6    6    0    0  0.28693906975E+02 -0.69271596778E+01  0.10578359642E+04  0.10582477276E+04  0.00000000000E+00 0. -1.
         -5    1    3    3    0  503 -0.10397672846E+03  0.66898306801E+01  0.18252359362E+03  0.21022099354E+03  0.47000000000E+01 0.  1.
         11    1    4    4    0    0  0.27820431351E+02  0.30499741033E+02  0.98302663306E+02  0.10661906123E+03  0.00000000000E+00 0. -1.
        -12    1    4    4    0    0 -0.13582943825E+01 -0.43672935082E+02  0.78143656950E+02  0.89529890784E+02  0.00000000000E+00 0.  1.
</event>
<event>
12    1  0.8493057E-002  0.1843298E+03  0.7818608E-02  0.1163806E+00
         21   -1    0    0  501  502  0.00000000000E+00  0.00000000000E+00  0.59280292486E+03  0.59280292486E+03  0.00000000000E+00 0. -1.
         21   -1    0    0  502  503 -0.00000000000E+00 -0.00000000000E+00 -0.12096870326E+03  0.12096870326E+03  0.00000000000E+00 0. -1.
         -6    2    1    2    0  503  0.45102863993E+02  0.46848326805E+02 -0.23142759339E+02  0.18577689637E+03  0.17247734301E+03 0.  0.
        -24    2    3    3    0    0  0.51485983019E+02 -0.10908587681E+01 -0.69416317828E+02  0.11867814872E+03  0.81325773171E+02 0.  0.
          6    2    1    2  501    0 -0.45102863993E+02 -0.46848326805E+02  0.49497698094E+03  0.52799473175E+03  0.17189296387E+03 0.  0.
         24    2    5    5    0    0 -0.18833701462E+02 -0.85242726797E+01  0.46642697763E+03  0.47325905130E+03  0.77412096255E+02 0.  0.
          5    1    5    5  501    0 -0.26269162532E+02 -0.38324054125E+02  0.28550003318E+02  0.54735680448E+02  0.47000000000E+01 0. -1.
        -11    1    6    6    0    0  0.28355484794E+01  0.13897962756E+02  0.14593965107E+02  0.20351351835E+02  0.00000000000E+00 0.  1.
         12    1    6    6    0    0 -0.21669249941E+02 -0.22422235436E+02  0.45183301252E+03  0.45290769947E+03  0.00000000000E+00 0. -1.
         -5    1    3    3    0  503 -0.63831190255E+01  0.47939185573E+02  0.46273558489E+02  0.67098747657E+02  0.47000000000E+01 0.  1.
         11    1    4    4    0    0  0.29915312529E+02  0.18726516478E+02 -0.80074506599E+02  0.87507342265E+02  0.00000000000E+00 0. -1.
        -12    1    4    4    0    0  0.21570670490E+02 -0.19817375246E+02  0.10658188771E+02  0.31170806453E+02  0.00000000000E+00 0.  1.
</event>
<event>
12    1  0.8493057E-002  0.1953555E+03  0.7818608E-02  0.1154641E+00
         21   -1    0    0  501  502  0.00000000000E+00  0.00000000000E+00  0.24361123476E+02  0.24361123476E+02  0.00000000000E+00 0. -1.
         21   -1    0    0  502  503 -0.00000000000E+00 -0.00000000000E+00 -0.17321489676E+04  0.17321489676E+04  0.00000000000E+00 0. -1.
         -6    2    1    2    0  503  0.91394440647E+02  0.15729501617E+02 -0.11433820875E+04  0.11592516703E+04  0.16715704049E+03 0.  0.
        -24    2    3    3    0    0  0.76181924841E+02 -0.50972165063E+02 -0.68835911483E+03  0.69909025450E+03  0.80542322331E+02 0.  0.
          6    2    1    2  501    0 -0.91394440647E+02 -0.15729501617E+02 -0.56440575658E+03  0.59725842068E+03  0.17194011171E+03 0.  0.
         24    2    5    5    0    0 -0.12715444581E+03 -0.96359073854E+01 -0.48878678164E+03  0.51325705623E+03  0.90880053153E+02 0.  0.
          5    1    5    5  501    0  0.35760005160E+02 -0.60935942317E+01 -0.75618974941E+02  0.84001364458E+02  0.47000000000E+01 0. -1.
        -13    1    6    6    0    0 -0.29821252954E+02 -0.89308651449E+01 -0.29260047495E+03  0.29425177216E+03  0.00000000000E+00 0.  1.
         14    1    6    6    0    0 -0.97333192853E+02 -0.70504224048E+00 -0.19618630669E+03  0.21900528407E+03  0.00000000000E+00 0. -1.
         -5    1    3    3    0  503  0.15212515806E+02  0.66701666681E+02 -0.45502297267E+03  0.46016141584E+03  0.47000000000E+01 0.  1.
         13    1    4    4    0    0  0.11639124349E+01 -0.35877850463E+02 -0.11044704231E+03  0.11613407769E+03  0.00000000000E+00 0. -1.
        -14    1    4    4    0    0  0.75018012407E+02 -0.15094314601E+02 -0.57791207252E+03  0.58295617681E+03  0.00000000000E+00 0.  1.
</event>
<event>
12    1  0.8493057E-002  0.3435152E+03  0.7818608E-02  0.1065423E+00
         21   -1    0    0  501  502  0.00000000000E+00  0.00000000000E+00  0.20178244797E+03  0.20178244797E+03  0.00000000000E+00 0.  1.
         21   -1    0    0  502  503 -0.00000000000E+00 -0.00000000000E+00 -0.84634964006E+03  0.84634964006E+03  0.00000000000E+00 0.  1.
         -6    2    1    2    0  503  0.23808215130E+03 -0.17681505042E+03 -0.61499725844E+03  0.70443190750E+03  0.17336669690E+03 0.  0.
        -24    2    3    3    0    0  0.39401685504E+02 -0.38018222881E+02 -0.12994736162E+03  0.16218290637E+03  0.80119287533E+02 0.  0.
          6    2    1    2  501    0 -0.23808215130E+03  0.17681505042E+03 -0.29569933653E+02  0.34370018053E+03  0.17119801488E+03 0.  0.
         24    2    5    5    0    0 -0.24411987827E+03  0.13357700395E+03 -0.52454690036E+02  0.29418467908E+03  0.79723271036E+02 0.  0.
          5    1    5    5  501    0  0.60377269713E+01  0.43238046473E+02  0.22884756383E+02  0.49515501456E+02  0.47000000000E+01 0. -1.
        -13    1    6    6    0    0 -0.16015331156E+03  0.11387429942E+03 -0.68672498092E+01  0.19663061408E+03  0.00000000000E+00 0.  1.
         14    1    6    6    0    0 -0.83966566715E+02  0.19702704524E+02 -0.45587440227E+02  0.97554064999E+02  0.00000000000E+00 0. -1.
         -5    1    3    3    0  503  0.19868046580E+03 -0.13879682754E+03 -0.48504989682E+03  0.54224900113E+03  0.47000000000E+01 0.  1.
         13    1    4    4    0    0 -0.24700126492E+02 -0.13577532317E+02 -0.32672360905E+02  0.43150072997E+02  0.00000000000E+00 0. -1.
        -14    1    4    4    0    0  0.64101811996E+02 -0.24440690564E+02 -0.97275000719E+02  0.11903283338E+03  0.00000000000E+00 0.  1.
</event>
<event>
12    1  0.8493057E-002  0.2399022E+03  0.7818608E-02  0.1119871E+00
         21   -1    0    0  501  502  0.00000000000E+00  0.00000000000E+00  0.26156346732E+03  0.26156346732E+03  0.00000000000E+00 0. -1.
         21   -1    0    0  502  503 -0.00000000000E+00 -0.00000000000E+00 -0.78536362314E+03  0.78536362314E+03  0.00000000000E+00 0. -1.
         -6    2    1    2    0  503  0.16669760704E+03  0.69232972087E+00 -0.70606113911E+03  0.74570463833E+03  0.17252392287E+03 0.  0.
        -24    2    3    3    0    0  0.80678853981E+02  0.60023660965E+02 -0.47695431735E+03  0.49384861096E+03  0.79303923996E+02 0.  0.
          6    2    1    2  501    0 -0.16669760704E+03 -0.69232972087E+00  0.18226098329E+03  0.30122245213E+03  0.17241614810E+03 0.  0.
         24    2    5    5    0    0 -0.47205350938E+02 -0.66211008221E+02  0.72251029396E+02  0.12602149193E+03  0.63631457723E+02 0.  0.
          5    1    5    5  501    0 -0.11949225610E+03  0.65518678500E+02  0.11000995389E+03  0.17520096020E+03  0.47000000000E+01 0. -1.
        -11    1    6    6    0    0 -0.23793940588E+00 -0.29623298031E+02  0.57503283909E+02  0.64685578467E+02  0.00000000000E+00 0.  1.
         12    1    6    6    0    0 -0.46967411532E+02 -0.36587710190E+02  0.14747745487E+02  0.61335913460E+02  0.00000000000E+00 0. -1.
         -5    1    3    3    0  503  0.86018753061E+02 -0.59331331244E+02 -0.22910682176E+03  0.25185602737E+03  0.47000000000E+01 0.  1.
         11    1    4    4    0    0  0.62355986424E+02  0.73677630990E+02 -0.29320819922E+03  0.30868707527E+03  0.00000000000E+00 0. -1.
        -12    1    4    4    0    0  0.18322867558E+02 -0.13653970025E+02 -0.18374611813E+03  0.18516153569E+03  0.00000000000E+00 0.  1.
</event>
<event>
12    1  0.8493057E-002  0.1893932E+03  0.7818608E-02  0.1159249E+00
         21   -1    0    0  501  502  0.00000000000E+00  0.00000000000E+00  0.16697620265E+03  0.16697620265E+03  0.00000000000E+00 0. -1.
         21   -1    0    0  502  503 -0.00000000000E+00 -0.00000000000E+00 -0.22084505216E+03  0.22084505216E+03  0.00000000000E+00 0. -1.
         -6    2    1    2    0  503 -0.42108756076E+02  0.65759200230E+02  0.80459766582E+01  0.18956404772E+03  0.17254672032E+03 0.  0.
        -24    2    3    3    0    0  0.24959923947E+00  0.45742251493E+02 -0.57571036174E+02  0.10880148910E+03  0.80193041800E+02 0.  0.
          6    2    1    2  501    0  0.42108756076E+02 -0.65759200230E+02 -0.61914826163E+02  0.19825720709E+03  0.17139152462E+03 0.  0.
         24    2    5    5    0    0  0.66946096415E+02  0.75768757840E+01 -0.22344905366E+02  0.11117711664E+03  0.85567912196E+02 0.  0.
          5    1    5    5  501    0 -0.24837340339E+02 -0.73336076014E+02 -0.39569920797E+02  0.87080090447E+02  0.47000000000E+01 0. -1.
        -13    1    6    6    0    0  0.23268847235E+02  0.39913184732E+02  0.10901607263E+02  0.47469428141E+02  0.00000000000E+00 0.  1.
         14    1    6    6    0    0  0.43677249180E+02 -0.32336308948E+02 -0.33246512629E+02  0.63707688502E+02  0.00000000000E+00 0. -1.
         -5    1    3    3    0  503 -0.42358355315E+02  0.20016948737E+02  0.65617012832E+02  0.80762558619E+02  0.47000000000E+01 0.  1.
         13    1    4    4    0    0  0.31795172754E+02  0.49430457937E+02 -0.26856048665E+02  0.64618499922E+02  0.00000000000E+00 0. -1.
        -14    1    4    4    0    0 -0.31545573514E+02 -0.36882064438E+01 -0.30714987509E+02  0.44182989179E+02  0.00000000000E+00 0.  1.
</event>
<event>
12    1  0.8493057E-002  0.2108100E+03  0.7818608E-02  0.1141120E+00
         21   -1    0    0  503  502  0.00000000000E+00  0.00000000000E+00  0.21886435058E+03  0.21886435058E+03  0.00000000000E+00 0. -1.
         21   -1    0    0  501  503 -0.00000000000E+00 -0.00000000000E+00 -0.22592358744E+03  0.22592358744E+03  0.00000000000E+00 0. -1.
          6    2    1    2  501    0 -0.96257984839E+02  0.72863813894E+02  0.68668375131E+02  0.22171200738E+03  0.17281820927E+03 0.  0.
         24    2    3    3    0    0 -0.64857666384E+02  0.11573444501E+03  0.64173965563E+02  0.16817547099E+03  0.81016742315E+02 0.  0.
         -6    2    1    2    0  502  0.96257984839E+02 -0.72863813894E+02 -0.75727611992E+02  0.22307593064E+03  0.17162011710E+03 0.  0.
        -24    2    5    5    0    0  0.65285506748E+02  0.23162707518E+02 -0.54170889741E+02  0.11979394050E+03  0.81347369192E+02 0.  0.
          5    1    3    3  501    0 -0.31400318456E+02 -0.42870631120E+02  0.44944095680E+01  0.53536536394E+02  0.47000000000E+01 0. -1.
        -11    1    4    4    0    0  0.26170140087E+01  0.26155678365E+02 -0.15583587661E+02  0.30558410911E+02  0.00000000000E+00 0.  1.
         12    1    4    4    0    0 -0.67474680392E+02  0.89578766649E+02  0.79757553224E+02  0.13761706008E+03  0.00000000000E+00 0. -1.
         -5    1    5    5    0  502  0.30972478091E+02 -0.96026521412E+02 -0.21556722251E+02  0.10328199014E+03  0.47000000000E+01 0.  1.
         13    1    6    6    0    0  0.76703816738E+02  0.63386831445E+01 -0.19171648352E+02  0.79317126188E+02  0.00000000000E+00 0. -1.
        -14    1    6    6    0    0 -0.11418309990E+02  0.16824024373E+02 -0.34999241389E+02  0.40476814313E+02  0.00000000000E+00 0.  1.
</event>
<event>
12    1  0.8493057E-002  0.1974513E+03  0.7818608E-02  0.1152198E+00
         21   -1    0    0  503  502  0.00000000000E+00  0.00000000000E+00  0.90818568284E+02  0.90818568284E+02  0.00000000000E+00 0. -1.
         21   -1    0    0  501  503 -0.00000000000E+00 -0.00000000000E+00 -0.57517080834E+03  0.57517080834E+03  0.00000000000E+00 0.  1.
          6    2    1    2  501    0 -0.97028652494E+02 -0.39260795092E+01 -0.72177242759E+02  0.20896065361E+03  0.17036732926E+03 0.  0.
         24    2    3    3    0    0 -0.59408659426E+02 -0.60257940524E+02 -0.80555872112E+02  0.14054403374E+03  0.78121499459E+02 0.  0.
         -6    2    1    2    0  502  0.97028652494E+02  0.39260795092E+01 -0.41217499729E+03  0.45702872301E+03  0.17192164425E+03 0.  0.
        -24    2    5    5    0    0 -0.12497480242E+02  0.18293682705E+02 -0.22537240472E+03  0.23995799637E+03  0.79349060318E+02 0.  0.
          5    1    3    3  501    0 -0.37619993068E+02  0.56331861015E+02  0.83786293533E+01  0.68416619864E+02  0.47000000000E+01 0. -1.
        -11    1    4    4    0    0 -0.14753704807E+02  0.80978121803E+00 -0.60499704306E+02  0.62277939692E+02  0.00000000000E+00 0.  1.
         12    1    4    4    0    0 -0.44654954619E+02 -0.61067721742E+02 -0.20056167806E+02  0.78266094050E+02  0.00000000000E+00 0. -1.
         -5    1    5    5    0  502  0.10952613274E+03 -0.14367603195E+02 -0.18680259257E+03  0.21707072664E+03  0.47000000000E+01 0.  1.
         13    1    6    6    0    0 -0.28089057463E+02  0.91224963002E+01 -0.24781271131E+02  0.38552905037E+02  0.00000000000E+00 0. -1.
        -14    1    6    6    0    0  0.15591577222E+02  0.91711864044E+01 -0.20059113359E+03  0.20140509133E+03  0.00000000000E+00 0.  1.
</event>
<event>
12    1  0.8493057E-002  0.1792659E+03  0.7818608E-02  0.1168871E+00
         21   -1    0    0  503  502  0.00000000000E+00  0.00000000000E+00  0.37864440504E+03  0.37864440504E+03  0.00000000000E+00 0.  1.
         21   -1    0    0  501  503 -0.00000000000E+00 -0.00000000000E+00 -0.84210225868E+02  0.84210225868E+02  0.00000000000E+00 0.  1.
          6    2    1    2  501    0  0.94893157256E+01  0.45337974243E+02  0.14248569566E+03  0.22785546201E+03  0.17166933062E+03 0.  0.
         24    2    3    3    0    0 -0.25532274983E+02  0.88364333748E+02  0.85880251049E+02  0.14845744070E+03  0.78765738957E+02 0.  0.
         -6    2    1    2    0  502 -0.94893157256E+01 -0.45337974243E+02  0.15194848351E+03  0.23499916890E+03  0.17317819933E+03 0.  0.
        -24    2    5    5    0    0  0.29968970181E+02 -0.81092024588E+02  0.68575791742E+02  0.13596178114E+03  0.79428654095E+02 0.  0.
          5    1    3    3  501    0  0.35021590709E+02 -0.43026359505E+02  0.56605444614E+02  0.79398021310E+02  0.47000000000E+01 0. -1.
        -13    1    4    4    0    0  0.12649132209E+02  0.14318188170E+02 -0.98971877742E+01  0.21516630404E+02  0.00000000000E+00 0.  1.
         14    1    4    4    0    0 -0.38181407192E+02  0.74046145578E+02  0.95777438823E+02  0.12694081029E+03  0.00000000000E+00 0. -1.
         -5    1    5    5    0  502 -0.39458285907E+02  0.35754050344E+02  0.83372691772E+02  0.99037387768E+02  0.47000000000E+01 0.  1.
         13    1    6    6    0    0  0.48593284510E+02 -0.18714818420E+02  0.34718761708E+02  0.62585494666E+02  0.00000000000E+00 0. -1.
        -14    1    6    6    0    0 -0.18624314329E+02 -0.62377206167E+02  0.33857030034E+02  0.73376286470E+02  0.00000000000E+00 0.  1.
</event>
<event>
12    1  0.8493057E-002  0.2705535E+03  0.7818608E-02  0.1101084E+00
         21   -1    0    0  501  502  0.00000000000E+00  0.00000000000E+00  0.32241335413E+03  0.32241335413E+03  0.00000000000E+00 0.  1.
         21   -1    0    0  502  503 -0.00000000000E+00 -0.00000000000E+00 -0.46683977307E+03  0.46683977307E+03  0.00000000000E+00 0.  1.
         -6    2    1    2    0  503  0.20656697404E+03 -0.27231563801E+02 -0.35540847608E+03  0.44616040712E+03  0.17126719236E+03 0.  0.
        -24    2    3    3    0    0  0.16190967858E+03 -0.76678679011E+02 -0.30386295314E+03  0.36179025733E+03  0.80406045626E+02 0.  0.
          6    2    1    2  501    0 -0.20656697404E+03  0.27231563801E+02  0.21098205715E+03  0.34309272008E+03  0.17259117388E+03 0.  0.
         24    2    5    5    0    0 -0.41215556461E+02 -0.89067685146E+01  0.12436593892E+03  0.15290462293E+03  0.78325502429E+02 0.  0.
          5    1    5    5  501    0 -0.16535141758E+03  0.36138332315E+02  0.86616118224E+02  0.19018809714E+03  0.47000000000E+01 0. -1.
        -11    1    6    6    0    0 -0.35737454836E+02  0.30007422206E+02  0.47565767951E+02  0.66634175514E+02  0.00000000000E+00 0.  1.
         12    1    6    6    0    0 -0.54781016252E+01 -0.38914190721E+02  0.76800170970E+02  0.86270447419E+02  0.00000000000E+00 0. -1.
         -5    1    3    3    0  503  0.44657295462E+02  0.49447115210E+02 -0.51545522946E+02  0.84370149795E+02  0.47000000000E+01 0.  1.
         13    1    4    4    0    0  0.34686362089E+02 -0.40962858545E+02 -0.40864237004E+02  0.67460991402E+02  0.00000000000E+00 0. -1.
        -14    1    4    4    0    0  0.12722331649E+03 -0.35715820466E+02 -0.26299871613E+03  0.29432926592E+03  0.00000000000E+00 0.  1.
</event>
<event>
12    1  0.8493057E-002  0.2041225E+03  0.7818608E-02  0.1148161E+00
         21   -1    0    0  503  502  0.00000000000E+00  0.00000000000E+00  0.38822884141E+03  0.38822884141E+03  0.00000000000E+00 0.  1.
         21   -1    0    0  501  503 -0.00000000000E+00 -0.00000000000E+00 -0.10275551127E+03  0.10275551127E+03  0.00000000000E+00 0.  1.
          6    2    1    2  501    0 -0.70838084417E+02 -0.59100330392E+02  0.14273988319E+03  0.24190842940E+03  0.17214566712E+03 0.  0.
         24    2    3    3    0    0 -0.46547607826E+02  0.21254341693E+01  0.15040636252E+03  0.17542921156E+03  0.77344276567E+02 0.  0.
         -6    2    1    2    0  502  0.70838084417E+02  0.59100330392E+02  0.14273344695E+03  0.24907592327E+03  0.18208540694E+03 0.  0.
        -24    2    5    5    0    0  0.10079885913E+03  0.90638061405E+02  0.12552990835E+03  0.20206179519E+03  0.81826297782E+02 0.  0.
          5    1    3    3  501    0 -0.24290476592E+02 -0.61225764561E+02 -0.76664793344E+01  0.66479217840E+02  0.47000000000E+01 0. -1.
        -13    1    4    4    0    0 -0.59001528239E+02 -0.62196058237E+00  0.15154341826E+03  0.16262525876E+03  0.00000000000E+00 0.  1.
         14    1    4    4    0    0  0.12453920413E+02  0.27473947517E+01 -0.11370557378E+01  0.12803952801E+02  0.00000000000E+00 0. -1.
         -5    1    5    5    0  502 -0.29960774714E+02 -0.31537731013E+02  0.17203538599E+02  0.47014128081E+02  0.47000000000E+01 0.  1.
         13    1    6    6    0    0 -0.49513922869E-01  0.48870679090E+02  0.44784608536E+02  0.66287305633E+02  0.00000000000E+00 0. -1.
        -14    1    6    6    0    0  0.10084837305E+03  0.41767382315E+02  0.80745299813E+02  0.13577448956E+03  0.00000000000E+00 0.  1.
</event>
<event>
12    1  0.8493057E-002  0.1776647E+03  0.7818608E-02  0.1170216E+00
         21   -1    0    0  501  502  0.00000000000E+00  0.00000000000E+00  0.68766326408E+03  0.68766326408E+03  0.00000000000E+00 0. -1.
         21   -1    0    0  502  503 -0.00000000000E+00 -0.00000000000E+00 -0.28909772769E+03  0.28909772769E+03  0.00000000000E+00 0. -1.
         -6    2    1    2    0  503  0.37069878785E+02  0.21270138561E+02 -0.24873219635E+03  0.30566724571E+03  0.17244757143E+03 0.  0.
        -24    2    3    3    0    0  0.77492693892E+02  0.50244413931E+02 -0.20688644538E+03  0.24050077052E+03  0.80678377538E+02 0.  0.
          6    2    1    2  501    0 -0.37069878785E+02 -0.21270138561E+02  0.64729773274E+03  0.67109374606E+03  0.17188911099E+03 0.  0.
         24    2    5    5    0    0 -0.80700161700E+02  0.21144144487E+02  0.46481571247E+03  0.47867661918E+03  0.78218081320E+02 0.  0.
          5    1    5    5  501    0  0.43630282915E+02 -0.42414283048E+02  0.18248202027E+03  0.19241712688E+03  0.47000000000E+01 0. -1.
        -11    1    6    6    0    0 -0.28830484452E+01  0.63553888009E+00 -0.28702783022E+01  0.41175691297E+01  0.00000000000E+00 0.  1.
         12    1    6    6    0    0 -0.77817113255E+02  0.20508605607E+02  0.46768599077E+03  0.47455905005E+03  0.00000000000E+00 0. -1.
         -5    1    3    3    0  503 -0.40422815107E+02 -0.28974275370E+02 -0.41845750977E+02  0.65166475194E+02  0.47000000000E+01 0.  1.
         11    1    4    4    0    0  0.68346657826E+02  0.34651281105E+02 -0.74462707278E+02  0.10684882635E+03  0.00000000000E+00 0. -1.
        -12    1    4    4    0    0  0.91460360652E+01  0.15593132826E+02 -0.13242373810E+03  0.13365194416E+03  0.00000000000E+00 0.  1.
</event>
<event>
12    1  0.8493057E-002  0.1884116E+03  0.7818608E-02  0.1160047E+00
         21   -1    0    0  503  502  0.00000000000E+00  0.00000000000E+00  0.46279562799E+03  0.46279562799E+03  0.00000000000E+00 0.  1.
         21   -1    0    0  501  503 -0.00000000000E+00 -0.00000000000E+00 -0.27738875197E+03  0.27738875197E+03  0.00000000000E+00 0. -1.
          6    2    1    2  501    0  0.45272843891E+02 -0.59601820475E+02 -0.22224583766E+03  0.29136259027E+03  0.17290731405E+03 0.  0.
         24    2    3    3    0    0  0.95156850350E+02 -0.52993391029E+02 -0.13882942779E+03  0.19383068331E+03  0.80209713310E+02 0.  0.
         -6    2    1    2    0  502 -0.45272843891E+02  0.59601820475E+02  0.40765271369E+03  0.44882178969E+03  0.17221572672E+03 0.  0.
        -24    2    5    5    0    0 -0.12990143310E+02  0.23670099890E+02  0.72698350107E+02  0.11036975914E+03  0.78532898670E+02 0.  0.
          5    1    3    3  501    0 -0.49884006460E+02 -0.66084294459E+01 -0.83416409872E+02  0.97531906964E+02  0.47000000000E+01 0. -1.
        -11    1    4    4    0    0  0.17639491129E+02  0.15052284044E+02 -0.31591665851E+01  0.23403060392E+02  0.00000000000E+00 0.  1.
         12    1    4    4    0    0  0.77517359222E+02 -0.68045675073E+02 -0.13567026121E+03  0.17042762292E+03  0.00000000000E+00 0. -1.
         -5    1    5    5    0  502 -0.32282700580E+02  0.35931720586E+02  0.33495436358E+03  0.33845203055E+03  0.47000000000E+01 0.  1.
         11    1    6    6    0    0  0.12765814560E+02 -0.22702604840E+02  0.91828182678E+01  0.27616995478E+02  0.00000000000E+00 0. -1.
        -12    1    6    6    0    0 -0.25755957870E+02  0.46372704729E+02  0.63515531839E+02  0.82752763667E+02  0.00000000000E+00 0.  1.
</event>
<event>
12    1  0.8493057E-002  0.2442766E+03  0.7818608E-02  0.1117492E+00
         21   -1    0    0  503  502  0.00000000000E+00  0.00000000000E+00  0.15847711191E+03  0.15847711191E+03  0.00000000000E+00 0. -1.
         21   -1    0    0  501  503 -0.00000000000E+00 -0.00000000000E+00 -0.37861522361E+03  0.37861522361E+03  0.00000000000E+00 0.  1.
          6    2    1    2  501    0  0.15434977560E+03  0.72509847243E+02 -0.73070010100E+02  0.25196066394E+03  0.17047996546E+03 0.  0.
         24    2    3    3    0    0  0.12091904550E+03  0.11784625909E+02  0.78055285046E+01  0.14533932946E+03  0.79387035725E+02 0.  0.
         -6    2    1    2    0  502 -0.15434977560E+03 -0.72509847243E+02 -0.14706810160E+03  0.28513167157E+03  0.17489857762E+03 0.  0.
        -24    2    5    5    0    0 -0.45508377850E+01 -0.54162219608E+02 -0.62094105937E+02  0.11187167288E+03  0.75533681510E+02 0.  0.
          5    1    3    3  501    0  0.33430730098E+02  0.60725221335E+02 -0.80875538604E+02  0.10662133448E+03  0.47000000000E+01 0. -1.
        -11    1    4    4    0    0  0.51231495606E+02 -0.11529141245E+02 -0.32272321546E+02  0.61636758333E+02  0.00000000000E+00 0.  1.
         12    1    4    4    0    0  0.69687549895E+02  0.23313767154E+02  0.40077850050E+02  0.83702571131E+02  0.00000000000E+00 0. -1.
         -5    1    5    5    0  502 -0.14979893781E+03 -0.18347627636E+02 -0.84973995661E+02  0.17325999870E+03  0.47000000000E+01 0.  1.
         13    1    6    6    0    0  0.16683324799E+02 -0.52462598041E+02 -0.10487590113E+02  0.56041476301E+02  0.00000000000E+00 0. -1.
        -14    1    6    6    0    0 -0.21234162584E+02 -0.16996215662E+01 -0.51606515824E+02  0.55830196575E+02  0.00000000000E+00 0.  1.
</event>
<event>
12    1  0.8493057E-002  0.1840650E+03  0.7818608E-02  0.1165078E+00
         21   -1    0    0  501  502  0.00000000000E+00  0.00000000000E+00  0.11497332303E+03  0.11497332303E+03  0.00000000000E+00 0.  1.
         21   -1    0    0  502  503 -0.00000000000E+00 -0.00000000000E+00 -0.34713059855E+03  0.34713059855E+03  0.00000000000E+00 0.  1.
         -6    2    1    2    0  503  0.37739662481E+02 -0.33467205652E+02 -0.21096853186E+03  0.27682340057E+03  0.17198586479E+03 0.  0.
        -24    2    3    3    0    0  0.85055394483E+02 -0.23945951826E+02 -0.10050999905E+03  0.15618920044E+03  0.80529359155E+02 0.  0.
          6    2    1    2  501    0 -0.37739662481E+02  0.33467205652E+02 -0.21188743650E+02  0.18528052101E+03  0.17701856577E+03 0.  0.
         24    2    5    5    0    0 -0.38447700026E+01  0.87793393189E+02 -0.24223774770E+01  0.11838907994E+03  0.79294666861E+02 0.  0.
          5    1    5    5  501    0 -0.33894892478E+02 -0.54326187538E+02 -0.18766366173E+02  0.66891441066E+02  0.47000000000E+01 0. -1.
        -13    1    6    6    0    0  0.25453101798E+02  0.29393448040E+01 -0.11650090697E+02  0.28146487388E+02  0.00000000000E+00 0.  1.
         14    1    6    6    0    0 -0.29297871801E+02  0.84854048385E+02  0.92277132200E+01  0.90242592553E+02  0.00000000000E+00 0. -1.
         -5    1    3    3    0  503 -0.47315732002E+02 -0.95212538252E+01 -0.11045853282E+03  0.12063420013E+03  0.47000000000E+01 0.  1.
         11    1    4    4    0    0  0.64248701089E+02 -0.18574838089E+02 -0.11301890829E+03  0.13132476473E+03  0.00000000000E+00 0. -1.
        -12    1    4    4    0    0  0.20806693394E+02 -0.53711137371E+01  0.12508909238E+02  0.24864435708E+02  0.00000000000E+00 0.  1.
</event>
<event>
12    1  0.8493057E-002  0.1913844E+03  0.7818608E-02  0.1157241E+00
         21   -1    0    0  503  502  0.00000000000E+00  0.00000000000E+00  0.44034005840E+03  0.44034005840E+03  0.00000000000E+00 0.  1.
         21   -1    0    0  501  503 -0.00000000000E+00 -0.00000000000E+00 -0.88190273976E+02  0.88190273976E+02  0.00000000000E+00 0.  1.
          6    2    1    2  501    0  0.53410441674E+02 -0.65816918080E+02  0.11277730453E+03  0.22205495240E+03  0.17147926838E+03 0.  0.
         24    2    3    3    0    0  0.20644863213E+02  0.22675323470E+02  0.90697212446E+02  0.12502876824E+03  0.80410371660E+02 0.  0.
         -6    2    1    2    0  502 -0.53410441674E+02  0.65816918080E+02  0.23937247989E+03  0.30647537997E+03  0.17159088675E+03 0.  0.
        -24    2    5    5    0    0 -0.52508383205E+02  0.10193193141E+03  0.12783463661E+03  0.18913873446E+03  0.79274949440E+02 0.  0.
          5    1    3    3  501    0  0.32765578461E+02 -0.88492241549E+02  0.22080092088E+02  0.97026184161E+02  0.47000000000E+01 0. -1.
        -11    1    4    4    0    0  0.23940686389E+02  0.99009296948E+01 -0.66859379892E+01  0.26756058013E+02  0.00000000000E+00 0.  1.
         12    1    4    4    0    0 -0.32958231753E+01  0.12774393775E+02  0.97383150435E+02  0.98272710227E+02  0.00000000000E+00 0. -1.
         -5    1    5    5    0  502 -0.90205846907E+00 -0.36115013327E+02  0.11153784328E+03  0.11733664552E+03  0.47000000000E+01 0.  1.
         13    1    6    6    0    0 -0.21501988500E+02  0.87647480314E+02  0.12595476971E+03  0.15494844409E+03  0.00000000000E+00 0. -1.
        -14    1    6    6    0    0 -0.31006394706E+02  0.14284451093E+02  0.18798668999E+01  0.34190290365E+02  0.00000000000E+00 0.  1.
</event>
<event>
12    1  0.8493057E-002  0.1904986E+03  0.7818608E-02  0.1158677E+00
         21   -1    0    0  501  502  0.00000000000E+00  0.00000000000E+00  0.90629059286E+03  0.90629059286E+03  0.00000000000E+00 0.  1.
         21   -1    0    0  502  503 -0.00000000000E+00 -0.00000000000E+00 -0.39275341253E+03  0.39275341253E+03  0.00000000000E+00 0.  1.
         -6    2    1    2    0  503  0.13795966091E+02  0.79081162499E+02 -0.35948731142E+03  0.40547729661E+03  0.16951858910E+03 0.  0.
        -24    2    3    3    0    0 -0.10804051930E+02  0.11781825239E+03 -0.25993931529E+03  0.29576122416E+03  0.76866025965E+02 0.  0.
          6    2    1    2  501    0 -0.13795966091E+02 -0.79081162499E+02  0.87302449176E+03  0.89356670877E+03  0.17275862028E+03 0.  0.
         24    2    5    5    0    0  0.32519585957E+02  0.15020640311E+02  0.39643369977E+03  0.40554913465E+03  0.77635553659E+02 0.  0.
          5    1    5    5  501    0 -0.46315552048E+02 -0.94101802810E+02  0.47659079198E+03  0.48801757413E+03  0.47000000000E+01 0. -1.
        -13    1    6    6    0    0  0.16078224947E+02  0.95984725645E+01  0.38345519267E+03  0.38391213158E+03  0.00000000000E+00 0.  1.
         14    1    6    6    0    0  0.16441361009E+02  0.54221677463E+01  0.12978507104E+02  0.21637003063E+02  0.00000000000E+00 0. -1.
         -5    1    3    3    0  503  0.24600018021E+02 -0.38737089893E+02 -0.99547996137E+02  0.10971607246E+03  0.47000000000E+01 0.  1.
         13    1    4    4    0    0 -0.30637321015E+02  0.42919468171E+02 -0.52876007412E+02  0.74676625171E+02  0.00000000000E+00 0. -1.
        -14    1    4    4    0    0  0.19833269085E+02  0.74898784221E+02 -0.20706330787E+03  0.22108459898E+03  0.00000000000E+00 0.  1.
</event>
<event>
12    1  0.8493057E-002  0.2623287E+03  0.7818608E-02  0.1105792E+00
         21   -1    0    0  501  502  0.00000000000E+00  0.00000000000E+00  0.40831735746E+03  0.40831735746E+03  0.00000000000E+00 0.  1.
         21   -1    0    0  502  503 -0.00000000000E+00 -0.00000000000E+00 -0.48397066470E+03  0.48397066470E+03  0.00000000000E+00 0.  1.
         -6    2    1    2    0  503 -0.84291882102E+02 -0.17822480714E+03 -0.39811111451E+03  0.47676914594E+03  0.17305246531E+03 0.  0.
        -24    2    3    3    0    0 -0.60200696795E+02 -0.32325362992E+02 -0.23012499020E+03  0.25291995346E+03  0.79636290447E+02 0.  0.
          6    2    1    2  501    0  0.84291882102E+02  0.17822480714E+03  0.32245780728E+03  0.41551887622E+03  0.17264905372E+03 0.  0.
         24    2    5    5    0    0  0.40843733381E+02  0.11193495406E+02  0.10567589618E+03  0.13838409365E+03  0.78671833890E+02 0.  0.
          5    1    5    5  501    0  0.43448148721E+02  0.16703131173E+03  0.21678191110E+03  0.27713478257E+03  0.47000000000E+01 0. -1.
        -13    1    6    6    0    0  0.60591819440E+02 -0.11359210446E+01  0.51914435185E+02  0.79798292464E+02  0.00000000000E+00 0.  1.
         14    1    6    6    0    0 -0.19748086058E+02  0.12329416451E+02  0.53761460993E+02  0.58585801190E+02  0.00000000000E+00 0. -1.
         -5    1    3    3    0  503 -0.24091185307E+02 -0.14589944415E+03 -0.16798612432E+03  0.22384919248E+03  0.47000000000E+01 0.  1.
         11    1    4    4    0    0 -0.16875351862E+02 -0.24143951780E+02 -0.14498179061E+02  0.32831465153E+02  0.00000000000E+00 0. -1.
        -12    1    4    4    0    0 -0.43325344933E+02 -0.81814112121E+01 -0.21562681114E+03  0.22008848830E+03  0.00000000000E+00 0.  1.
</event>
<event>
12    1  0.8493057E-002  0.4392062E+03  0.7818608E-02  0.1031635E+00
         21   -1    0    0  501  502  0.00000000000E+00  0.00000000000E+00  0.86683358098E+03  0.86683358098E+03  0.00000000000E+00 0. -1.
         21   -1    0    0  502  503 -0.00000000000E+00 -0.00000000000E+00 -0.31374891929E+03  0.31374891929E+03  0.00000000000E+00 0.  1.
         -6    2    1    2    0  503 -0.38855953547E+03  0.10868418360E+03 -0.47105683130E+02  0.44172508176E+03  0.17352618852E+03 0.  0.
        -24    2    3    3    0    0 -0.30762176664E+03  0.21709279428E+02 -0.25089174704E+02  0.32080207724E+03  0.84747046839E+02 0.  0.
          6    2    1    2  501    0  0.38855953547E+03 -0.10868418360E+03  0.60019034482E+03  0.73885741851E+03  0.15129795274E+03 0.  0.
         24    2    5    5    0    0  0.38514154922E+03 -0.88387822382E+02  0.53236221238E+03  0.66781960845E+03  0.80169097360E+02 0.  0.
          5    1    5    5  501    0  0.34179862507E+01 -0.20296361218E+02  0.67828132438E+02  0.71037810064E+02  0.47000000000E+01 0. -1.
        -13    1    6    6    0    0  0.11792371232E+03 -0.55557323591E+02  0.13340725429E+03  0.18652108093E+03  0.00000000000E+00 0.  1.
         14    1    6    6    0    0  0.26721783690E+03 -0.32830498791E+02  0.39895495809E+03  0.48129852752E+03  0.00000000000E+00 0. -1.
         -5    1    3    3    0  503 -0.80937768829E+02  0.86974904172E+02 -0.22016508426E+02  0.12092300452E+03  0.47000000000E+01 0.  1.
         11    1    4    4    0    0 -0.71685351868E+02 -0.22032414515E+02  0.17711584956E+02  0.77057882163E+02  0.00000000000E+00 0. -1.
        -12    1    4    4    0    0 -0.23593641478E+03  0.43741693943E+02 -0.42800759660E+02  0.24374419508E+03  0.00000000000E+00 0.  1.
</event>
<event>
12    1  0.8493057E-002  0.1838130E+03  0.7818608E-02  0.1164580E+00
         21   -1    0    0  503  502  0.00000000000E+00  0.00000000000E+00  0.15758729585E+03  0.15758729585E+03  0.00000000000E+00 0.  1.
         21   -1    0    0  501  503 -0.00000000000E+00 -0.00000000000E+00 -0.25049415084E+03  0.25049415084E+03  0.00000000000E+00 0.  1.
          6    2    1    2  501    0  0.28232814319E+01  0.63937383365E+02  0.32974483266E+02  0.18674728260E+03  0.17231155243E+03 0.  0.
         24    2    3    3    0    0 -0.22761973382E+02 -0.91756451093E+01 -0.27635496904E+02  0.88280131257E+02  0.80170823809E+02 0.  0.
         -6    2    1    2    0  502 -0.28232814319E+01 -0.63937383365E+02 -0.12588133826E+03  0.22133416409E+03  0.17043104460E+03 0.  0.
        -24    2    5    5    0    0 -0.48330322115E+02 -0.80823375844E+01 -0.25584816539E+02  0.97753586492E+02  0.80622804579E+02 0.  0.
          5    1    3    3  501    0  0.25585254814E+02  0.73113028474E+02  0.60609980170E+02  0.98467151339E+02  0.47000000000E+01 0. -1.
        -11    1    4    4    0    0  0.14537114421E+02  0.35925318041E+01  0.20925054916E+02  0.25731146568E+02  0.00000000000E+00 0.  1.
         12    1    4    4    0    0 -0.37299087803E+02 -0.12768176913E+02 -0.48560551820E+02  0.62548984690E+02  0.00000000000E+00 0. -1.
         -5    1    5    5    0  502  0.45507040683E+02 -0.55855045780E+02 -0.10029652172E+03  0.12358057760E+03  0.47000000000E+01 0.  1.
         11    1    6    6    0    0  0.53679592297E+01  0.26166655260E+02  0.48769927602E+01  0.27153156210E+02  0.00000000000E+00 0. -1.
        -12    1    6    6    0    0 -0.53698281344E+02 -0.34248992844E+02 -0.30461809299E+02  0.70600430282E+02  0.00000000000E+00 0.  1.
</event>
<event>
12    1  0.8493057E-002  0.2380998E+03  0.7818608E-02  0.1121128E+00
         21   -1    0    0  501  502  0.00000000000E+00  0.00000000000E+00  0.41433940084E+03  0.41433940084E+03  0.00000000000E+00 0. -1.
         21   -1    0    0  502  503 -0.00000000000E+00 -0.00000000000E+00 -0.31613969917E+03  0.31613969917E+03  0.00000000000E+00 0. -1.
         -6    2    1    2    0  503  0.90810094268E+01  0.16631520755E+03 -0.22615324482E+03  0.32811564705E+03  0.16962126843E+03 0.  0.
        -24    2    3    3    0    0  0.15328900246E+02  0.18838344518E+03 -0.16954152459E+03  0.26685374927E+03  0.82117582400E+02 0.  0.
          6    2    1    2  501    0 -0.90810094268E+01 -0.16631520755E+03  0.32435294649E+03  0.40236345296E+03  0.17014200359E+03 0.  0.
         24    2    5    5    0    0  0.45750734614E+02 -0.83393672341E+02  0.24903074895E+03  0.27755149601E+03  0.77271499984E+02 0.  0.
          5    1    5    5  501    0 -0.54831744041E+02 -0.82921535206E+02  0.75322197540E+02  0.12481195695E+03  0.47000000000E+01 0. -1.
        -13    1    6    6    0    0  0.18562155585E+01  0.13381234450E+02  0.51604423970E+02  0.53343411448E+02  0.00000000000E+00 0.  1.
         14    1    6    6    0    0  0.43894519056E+02 -0.96774906791E+02  0.19742632498E+03  0.22420808456E+03  0.00000000000E+00 0. -1.
         -5    1    3    3    0  503 -0.62478908189E+01 -0.22068237634E+02 -0.56611720234E+02  0.61261897782E+02  0.47000000000E+01 0.  1.
         13    1    4    4    0    0 -0.16665980098E+02  0.15829838803E+03 -0.15024756438E+03  0.21888459322E+03  0.00000000000E+00 0. -1.
        -14    1    4    4    0    0  0.31994880344E+02  0.30085057155E+02 -0.19293960205E+02  0.47969156055E+02  0.00000000000E+00 0.  1.
</event>
<event>
12    1  0.8493057E-002  0.1806914E+03  0.7818608E-02  0.1167230E+00
         21   -1    0    0  501  502  0.00000000000E+00  0.00000000000E+00  0.29162616249E+02  0.29162616249E+02  0.00000000000E+00 0.  1.
         21   -1    0    0  502  503 -0.00000000000E+00 -0.00000000000E+00 -0.11553938378E+04  0.11553938378E+04  0.00000000000E+00 0.  1.
         -6    2    1    2    0  503  0.50438461107E+02 -0.22622537707E+02 -0.67147361098E+03  0.69536047033E+03  0.17202777646E+03 0.  0.
        -24    2    3    3    0    0 -0.32828690553E+02 -0.73417834292E+01 -0.45907259589E+03  0.46666153895E+03  0.76770560351E+02 0.  0.
          6    2    1    2  501    0 -0.50438461107E+02  0.22622537707E+02 -0.45475761052E+03  0.48919598367E+03  0.17161704038E+03 0.  0.
         24    2    5    5    0    0 -0.86281158800E+02 -0.11980923717E+02 -0.39355654760E+03  0.41014056879E+03  0.75766411487E+02 0.  0.
          5    1    5    5  501    0  0.35842697693E+02  0.34603461425E+02 -0.61201062917E+02  0.79055414885E+02  0.47000000000E+01 0. -1.
        -11    1    6    6    0    0 -0.64905357959E+02 -0.19804272288E+02 -0.14015556961E+03  0.15571929355E+03  0.00000000000E+00 0.  1.
         12    1    6    6    0    0 -0.21375800841E+02  0.78233485709E+01 -0.25340097799E+03  0.25442127524E+03  0.00000000000E+00 0. -1.
         -5    1    3    3    0  503  0.83267151660E+02 -0.15280754278E+02 -0.21240101510E+03  0.22869893137E+03  0.47000000000E+01 0.  1.
         13    1    4    4    0    0 -0.49713783381E-01  0.24951359277E+02 -0.30087471233E+03  0.30190754432E+03  0.00000000000E+00 0. -1.
        -14    1    4    4    0    0 -0.32778976770E+02 -0.32293142706E+02 -0.15819788356E+03  0.16475399463E+03  0.00000000000E+00 0.  1.
</event>
<event>
12    1  0.8493057E-002  0.1986386E+03  0.7818608E-02  0.1151162E+00
         21   -1    0    0  501  502  0.00000000000E+00  0.00000000000E+00  0.49912285280E+03  0.49912285280E+03  0.00000000000E+00 0.  1.
         21   -1    0    0  502  503 -0.00000000000E+00 -0.00000000000E+00 -0.17889277659E+03  0.17889277659E+03  0.00000000000E+00 0.  1.
         -6    2    1    2    0  503  0.62770561431E+02 -0.79692683767E+02 -0.93553365398E+02  0.21956665345E+03  0.17078119306E+03 0.  0.
        -24    2    3    3    0    0 -0.49469213041E+00 -0.66237048070E+02  0.30825574106E+01  0.10318736828E+03  0.79060353876E+02 0.  0.
          6    2    1    2  501    0 -0.62770561431E+02  0.79692683767E+02  0.41378344161E+03  0.45844897594E+03  0.16931526737E+03 0.  0.
         24    2    5    5    0    0 -0.54279570394E+02  0.58797832352E+02  0.41969610962E+03  0.43466365721E+03  0.79901274143E+02 0.  0.
          5    1    5    5  501    0 -0.84909910368E+01  0.20894851415E+02 -0.59126680136E+01  0.23785318738E+02  0.47000000000E+01 0. -1.
        -13    1    6    6    0    0 -0.68039988382E+02  0.49637406113E+02  0.24271491565E+03  0.25691212969E+03  0.00000000000E+00 0.  1.
         14    1    6    6    0    0  0.13760417988E+02  0.91604262388E+01  0.17698119398E+03  0.17775152751E+03  0.00000000000E+00 0. -1.
         -5    1    3    3    0  503  0.63265253561E+02 -0.13455635697E+02 -0.96635922809E+02  0.11637928517E+03  0.47000000000E+01 0.  1.
         13    1    4    4    0    0  0.16790127010E+02 -0.73816271023E+02 -0.14859697804E+02  0.77146359938E+02  0.00000000000E+00 0. -1.
        -14    1    4    4    0    0 -0.17284819141E+02  0.75792229537E+01  0.17942255214E+02  0.26041008342E+02  0.00000000000E+00 0.  1.
</event>
<event>
12    1  0.8493057E-002  0.2231957E+03  0.7818608E-02  0.1131605E+00
         21   -1    0    0  501  502  0.00000000000E+00  0.00000000000E+00  0.42272414734E+02  0.42272414734E+02  0.00000000000E+00 0.  1.
         21   -1    0    0  502  503 -0.00000000000E+00 -0.00000000000E+00 -0.11763847669E+04  0.11763847669E+04  0.00000000000E+00 0.  1.
         -6    2    1    2    0  503  0.14113928110E+03 -0.20309014635E+02 -0.55811464119E+03  0.60108924374E+03  0.17170781426E+03 0.  0.
        -24    2    3    3    0    0  0.97889060585E+02  0.13685401775E+02 -0.21801471348E+03  0.25653699406E+03  0.92256466590E+02 0.  0.
          6    2    1    2  501    0 -0.14113928110E+03  0.20309014635E+02 -0.57599771096E+03  0.61756793788E+03  0.17112580789E+03 0.  0.
         24    2    5    5    0    0 -0.10097433736E+03  0.13423179241E+02 -0.55794775226E+03  0.57275132887E+03  0.79764603174E+02 0.  0.
          5    1    5    5  501    0 -0.40164943737E+02  0.68858353939E+01 -0.18049958697E+02  0.44816609013E+02  0.47000000000E+01 0. -1.
        -13    1    6    6    0    0 -0.66149252504E+02  0.17198379410E+02 -0.16999932650E+03  0.18322466775E+03  0.00000000000E+00 0.  1.
         14    1    6    6    0    0 -0.34825084859E+02 -0.37752001692E+01 -0.38794842576E+03  0.38952666112E+03  0.00000000000E+00 0. -1.
         -5    1    3    3    0  503  0.43250220514E+02 -0.33994416410E+02 -0.34009992772E+03  0.34455224967E+03  0.47000000000E+01 0.  1.
         11    1    4    4    0    0  0.30794758238E+02 -0.22727165855E+02 -0.14828869172E+03  0.15314822002E+03  0.00000000000E+00 0. -1.
        -12    1    4    4    0    0  0.67094302347E+02  0.36412567630E+02 -0.69726021756E+02  0.10338877405E+03  0.00000000000E+00 0.  1.
</event>
<event>
12    1  0.8493057E-002  0.1789248E+03  0.7818608E-02  0.1170745E+00
         21   -1    0    0  503  502  0.00000000000E+00  0.00000000000E+00  0.70109222295E+03  0.70109222295E+03  0.00000000000E+00 0.  1.
         21   -1    0    0  501  503 -0.00000000000E+00 -0.00000000000E+00 -0.43745809664E+02  0.43745809664E+02  0.00000000000E+00 0.  1.
          6    2    1    2  501    0  0.34316123201E+01  0.68101521807E+01  0.31906994224E+03  0.36215661251E+03  0.17115381916E+03 0.  0.
         24    2    3    3    0    0 -0.11474565586E+01 -0.55164687770E+02  0.12665203853E+03  0.15989789619E+03  0.80511731512E+02 0.  0.
         -6    2    1    2    0  502 -0.34316123201E+01 -0.68101521807E+01  0.33827647105E+03  0.38268142010E+03  0.17876225633E+03 0.  0.
        -24    2    5    5    0    0  0.54379509040E+02 -0.23864072299E+02  0.11750490498E+03  0.15378158103E+03  0.79465382518E+02 0.  0.
          5    1    3    3  501    0  0.45790688788E+01  0.61974839950E+02  0.19241790371E+03  0.20225871632E+03  0.47000000000E+01 0. -1.
        -13    1    4    4    0    0  0.19964161687E+02  0.14541466895E+02  0.29436438578E+02  0.38425589488E+02  0.00000000000E+00 0.  1.
         14    1    4    4    0    0 -0.21111618246E+02 -0.69706154665E+02  0.97215599948E+02  0.12147230671E+03  0.00000000000E+00 0. -1.
         -5    1    5    5    0  502 -0.57811121360E+02  0.17053920118E+02  0.22077156606E+03  0.22889983907E+03  0.47000000000E+01 0.  1.
         13    1    6    6    0    0 -0.10016798695E+02  0.17607646857E+02  0.39875318618E+02  0.44725904338E+02  0.00000000000E+00 0. -1.
        -14    1    6    6    0    0  0.64396307734E+02 -0.41471719156E+02  0.77629586367E+02  0.10905567669E+03  0.00000000000E+00 0.  1.
</event>
<event>
12    1  0.8493057E-002  0.1909628E+03  0.7818608E-02  0.1158287E+00
         21   -1    0    0  503  502  0.00000000000E+00  0.00000000000E+00  0.39319867327E+03  0.39319867327E+03  0.00000000000E+00 0.  1.
         21   -1    0    0  501  503 -0.00000000000E+00 -0.00000000000E+00 -0.12012209311E+03  0.12012209311E+03  0.00000000000E+00 0.  1.
          6    2    1    2  501    0 -0.79455116883E+02  0.20099664900E+02  0.11578345717E+02  0.19131352255E+03  0.17248099517E+03 0.  0.
         24    2    3    3    0    0 -0.44719661772E+02 -0.56602450793E+02 -0.20221269714E+01  0.10589204252E+03  0.77494193894E+02 0.  0.
         -6    2    1    2    0  502  0.79455116883E+02 -0.20099664900E+02  0.26149823444E+03  0.32200724383E+03  0.16908644634E+03 0.  0.
        -24    2    5    5    0    0  0.56707740685E+01  0.40180676540E+02  0.94628478911E+02  0.12979524077E+03  0.79029178538E+02 0.  0.
          5    1    3    3  501    0 -0.34735455111E+02  0.76702115693E+02  0.13600472689E+02  0.85421480032E+02  0.47000000000E+01 0. -1.
        -13    1    4    4    0    0 -0.35649968776E+02  0.11216975083E+02 -0.26391524228E+01  0.37466063701E+02  0.00000000000E+00 0.  1.
         14    1    4    4    0    0 -0.90696929958E+01 -0.67819425876E+02  0.61702545133E+00  0.68425978821E+02  0.00000000000E+00 0. -1.
         -5    1    5    5    0  502  0.73784342815E+02 -0.60280341440E+02  0.16686975553E+03  0.19221200306E+03  0.47000000000E+01 0.  1.
         13    1    6    6    0    0 -0.97562199738E+01 -0.18502718287E+01 -0.11150397649E+02  0.14931131965E+02  0.00000000000E+00 0. -1.
        -14    1    6    6    0    0  0.15426994042E+02  0.42030948369E+02  0.10577887656E+03  0.11486410881E+03  0.00000000000E+00 0.  1.
</event>
<event>
12    1  0.8493057E-002  0.1819285E+03  0.7818608E-02  0.1166373E+00
         21   -1    0    0  501  502  0.00000000000E+00  0.00000000000E+00  0.14232204842E+03  0.14232204842E+03  0.00000000000E+00 0. -1.
         21   -1    0    0  502  503 -0.00000000000E+00 -0.00000000000E+00 -0.23406241105E+03  0.23406241105E+03  0.00000000000E+00 0. -1.
         -6    2    1    2    0  503  0.16637829494E+02  0.56204244843E+02 -0.69929450225E+02  0.19490537781E+03  0.17222730266E+03 0.  0.
        -24    2    3    3    0    0  0.31963899687E+02  0.59920415388E+02 -0.10969904297E+03  0.15186575818E+03  0.80107311861E+02 0.  0.
          6    2    1    2  501    0 -0.16637829494E+02 -0.56204244843E+02 -0.21810912405E+02  0.18147908166E+03  0.17036198717E+03 0.  0.
         24    2    5    5    0    0  0.99438049824E+01  0.29612017432E+02 -0.32904557383E+02  0.90835973148E+02  0.78693794464E+02 0.  0.
          5    1    5    5  501    0 -0.26581634476E+02 -0.85816262274E+02  0.11093644979E+02  0.90643108514E+02  0.47000000000E+01 0. -1.
        -13    1    6    6    0    0 -0.30764909124E+02 -0.46535698313E+01 -0.16110971475E+02  0.35038532325E+02  0.00000000000E+00 0.  1.
         14    1    6    6    0    0  0.40708714107E+02  0.34265587263E+02 -0.16793585908E+02  0.55797440823E+02  0.00000000000E+00 0. -1.
         -5    1    3    3    0  503 -0.15326070193E+02 -0.37161705458E+01  0.39769592749E+02  0.43039619637E+02  0.47000000000E+01 0.  1.
         13    1    4    4    0    0 -0.10562785523E+02  0.14867817956E+02 -0.81996940881E+02  0.84000730727E+02  0.00000000000E+00 0. -1.
        -14    1    4    4    0    0  0.42526685209E+02  0.45052597433E+02 -0.27702102092E+02  0.67865027449E+02  0.00000000000E+00 0.  1.
</event>
<event>
12    1  0.8493057E-002  0.1945200E+03  0.7818608E-02  0.1154843E+00
         21   -1    0    0  503  502  0.00000000000E+00  0.00000000000E+00  0.25201329411E+03  0.25201329411E+03  0.00000000000E+00 0. -1.
         21   -1    0    0  501  503 -0.00000000000E+00 -0.00000000000E+00 -0.29513589548E+03  0.29513589548E+03  0.00000000000E+00 0. -1.
          6    2    1    2  501    0  0.67270340706E+02 -0.60196526979E+02 -0.21427846218E+03  0.28940163540E+03  0.17230532963E+03 0.  0.
         24    2    3    3    0    0  0.47169754844E+02 -0.96208887765E+02 -0.97763301389E+02  0.16571333209E+03  0.80138065101E+02 0.  0.
         -6    2    1    2    0  502 -0.67270340706E+02  0.60196526979E+02  0.17115586080E+03  0.25774755418E+03  0.17026612229E+03 0.  0.
        -24    2    5    5    0    0  0.28556305153E+02  0.48190709057E+02  0.10118675894E+03  0.13839659719E+03  0.76006913659E+02 0.  0.
          5    1    3    3  501    0  0.20100585862E+02  0.36012360786E+02 -0.11651516079E+03  0.12368830330E+03  0.47000000000E+01 0. -1.
        -13    1    4    4    0    0 -0.10226228544E+01 -0.83430888621E+02 -0.54118560652E+02  0.99451382799E+02  0.00000000000E+00 0.  1.
         14    1    4    4    0    0  0.48192377699E+02 -0.12777999144E+02 -0.43644740737E+02  0.66261949295E+02  0.00000000000E+00 0. -1.
         -5    1    5    5    0  502 -0.95826645859E+02  0.12005817922E+02  0.69969101860E+02  0.11935095700E+03  0.47000000000E+01 0.  1.
         11    1    6    6    0    0  0.25093370057E+02  0.42178297840E+02  0.11383844625E+03  0.12396724517E+03  0.00000000000E+00 0. -1.
        -12    1    6    6    0    0  0.34629350957E+01  0.60124112171E+01 -0.12651687304E+02  0.14429352022E+02  0.00000000000E+00 0.  1.
</event>
<event>
12    1  0.8493057E-002  0.1910133E+03  0.7818608E-02  0.1158367E+00
         21   -1    0    0  501  502  0.00000000000E+00  0.00000000000E+00  0.65257766043E+02  0.65257766043E+02  0.00000000000E+00 0.  1.
         21   -1    0    0  502  503 -0.00000000000E+00 -0.00000000000E+00 -0.55130666130E+03  0.55130666130E+03  0.00000000000E+00 0.  1.
         -6    2    1    2    0  503  0.64826364030E+02 -0.50350194160E+02 -0.22368346573E+03  0.29414344895E+03  0.17247746576E+03 0.  0.
        -24    2    3    3    0    0  0.49608422585E+02 -0.39639476146E+02 -0.38915935102E+02  0.10838167786E+03  0.78739154372E+02 0.  0.
          6    2    1    2  501    0 -0.64826364030E+02  0.50350194160E+02 -0.26236542953E+03  0.32242097840E+03  0.16846978712E+03 0.  0.
         24    2    5    5    0    0 -0.10446840378E+03  0.58296028636E+02 -0.17906434109E+03  0.22970750075E+03  0.79933868358E+02 0.  0.
          5    1    5    5  501    0  0.39642039749E+02 -0.79458344758E+01 -0.83301088443E+02  0.92713477644E+02  0.47000000000E+01 0. -1.
        -11    1    6    6    0    0 -0.11215300515E+02  0.40674633987E+02 -0.25849349981E+02  0.49481286464E+02  0.00000000000E+00 0.  1.
         12    1    6    6    0    0 -0.93253103263E+02  0.17621394648E+02 -0.15321499110E+03  0.18022621429E+03  0.00000000000E+00 0. -1.
         -5    1    3    3    0  503  0.15217941445E+02 -0.10710718014E+02 -0.18476753063E+03  0.18576177109E+03  0.47000000000E+01 0.  1.
         11    1    4    4    0    0  0.67991064698E+02 -0.14825991945E+02 -0.21039392808E+02  0.72699731538E+02  0.00000000000E+00 0. -1.
        -12    1    4    4    0    0 -0.18382642113E+02 -0.24813484201E+02 -0.17876542294E+02  0.35681946326E+02  0.00000000000E+00 0.  1.
</event>
<event>
12    1  0.8493057E-002  0.1908013E+03  0.7818608E-02  0.1158051E+00
         21   -1    0    0  501  502  0.00000000000E+00  0.00000000000E+00  0.32242415839E+03  0.32242415839E+03  0.00000000000E+00 0. -1.
         21   -1    0    0  502  503 -0.00000000000E+00 -0.00000000000E+00 -0.27687744180E+03  0.27687744180E+03  0.00000000000E+00 0. -1.
         -6    2    1    2    0  503  0.33964885740E+02 -0.70500243027E+02 -0.20842617370E+03  0.28164242546E+03  0.17250242956E+03 0.  0.
        -24    2    3    3    0    0  0.82473323947E+02 -0.15973232648E+02 -0.12993378554E+03  0.17436051442E+03  0.80385365819E+02 0.  0.
          6    2    1    2  501    0 -0.33964885740E+02  0.70500243027E+02  0.25397289029E+03  0.31765917473E+03  0.17401501245E+03 0.  0.
         24    2    5    5    0    0  0.10295502145E+02  0.10139955808E+03  0.21935543846E+03  0.25336137090E+03  0.75414243583E+02 0.  0.
          5    1    5    5  501    0 -0.44260387885E+02 -0.30899315056E+02  0.34617451826E+02  0.64297803832E+02  0.47000000000E+01 0. -1.
        -13    1    6    6    0    0 -0.25868628254E+02  0.81455126771E+02  0.15021148713E+03  0.17282249411E+03  0.00000000000E+00 0.  1.
         14    1    6    6    0    0  0.36164130399E+02  0.19944431312E+02  0.69143951336E+02  0.80538876787E+02  0.00000000000E+00 0. -1.
         -5    1    3    3    0  503 -0.48508438207E+02 -0.54527010380E+02 -0.78492388154E+02  0.10728191104E+03  0.47000000000E+01 0.  1.
         13    1    4    4    0    0  0.25065206063E+02 -0.24705479649E+02 -0.10575848928E+03  0.11146068066E+03  0.00000000000E+00 0. -1.
        -14    1    4    4    0    0  0.57408117884E+02  0.87322470019E+01 -0.24175296266E+02  0.62899833754E+02  0.00000000000E+00 0.  1.
</event>
<event>
12    1  0.8493057E-002  0.1888099E+03  0.7818608E-02  0.1159542E+00
         21   -1    0    0  503  502  0.00000000000E+00  0.00000000000E+00  0.18205471914E+03  0.18205471914E+03  0.00000000000E+00 0.  1.
         21   -1    0    0  501  503 -0.00000000000E+00 -0.00000000000E+00 -0.22399423704E+03  0.22399423704E+03  0.00000000000E+00 0. -1.
          6    2    1    2  501    0  0.50556615717E+02  0.64447373070E+02 -0.92996855666E+02  0.21046993552E+03  0.17011685192E+03 0.  0.
         24    2    3    3    0    0  0.26427838737E+02 -0.12892445437E+02  0.20957552472E+01  0.85456576014E+02  0.80210899410E+02 0.  0.
         -6    2    1    2    0  502 -0.50556615717E+02 -0.64447373070E+02  0.51057337760E+02  0.19557902066E+03  0.17010251702E+03 0.  0.
        -24    2    5    5    0    0 -0.16786738238E+02 -0.80497121796E+02 -0.18902465739E+02  0.11611542419E+03  0.79774101843E+02 0.  0.
          5    1    3    3  501    0  0.24128776980E+02  0.77339818508E+02 -0.95092610913E+02  0.12501335951E+03  0.47000000000E+01 0. -1.
        -11    1    4    4    0    0  0.14873770291E+02  0.33564163657E+02  0.68623689584E+01  0.37348015107E+02  0.00000000000E+00 0.  1.
         12    1    4    4    0    0  0.11554068446E+02 -0.46456609095E+02 -0.47666137112E+01  0.48108560907E+02  0.00000000000E+00 0. -1.
         -5    1    5    5    0  502 -0.33769877479E+02  0.16049748725E+02  0.69959803498E+02  0.79463596474E+02  0.47000000000E+01 0.  1.
         11    1    6    6    0    0  0.93265585326E+01 -0.13540323734E+02 -0.38295808865E+02  0.41676060725E+02  0.00000000000E+00 0. -1.
        -12    1    6    6    0    0 -0.26113296771E+02 -0.66956798062E+02  0.19393343127E+02  0.74439363461E+02  0.00000000000E+00 0.  1.
</event>
<event>
12    1  0.8493057E-002  0.2709849E+03  0.7818608E-02  0.1100782E+00
         21   -1    0    0  503  502  0.00000000000E+00  0.00000000000E+00  0.27679561254E+04  0.27679561254E+04  0.00000000000E+00 0.  1.
         21   -1    0    0  501  503 -0.00000000000E+00 -0.00000000000E+00 -0.43441839925E+02  0.43441839925E+02  0.00000000000E+00 0. -1.
          6    2    1    2  501    0  0.25863152137E+02  0.20715678060E+03  0.48472081495E+03  0.55532609464E+03  0.17277143444E+03 0.  0.
         24    2    3    3    0    0  0.58031895817E+02  0.21164224885E+03  0.45370606339E+03  0.51017133509E+03  0.79154638320E+02 0.  0.
         -6    2    1    2    0  502 -0.25863152137E+02 -0.20715678060E+03  0.22397934706E+04  0.22560718707E+04  0.17205423761E+03 0.  0.
        -24    2    5    5    0    0 -0.76262025019E+02 -0.89913880687E+02  0.10208170233E+04  0.10304244446E+04  0.76201960190E+02 0.  0.
          5    1    3    3  501    0 -0.32168743680E+02 -0.44854682518E+01  0.31014751562E+02  0.45154759548E+02  0.47000000000E+01 0. -1.
        -11    1    4    4    0    0 -0.38519180278E+01  0.26110670444E+02  0.12436364904E+03  0.12713347941E+03  0.00000000000E+00 0.  1.
         12    1    4    4    0    0  0.61883813844E+02  0.18553157841E+03  0.32934241434E+03  0.38303785569E+03  0.00000000000E+00 0. -1.
         -5    1    5    5    0  502  0.50398872883E+02 -0.11724289991E+03  0.12189764473E+04  0.12256474261E+04  0.47000000000E+01 0.  1.
         11    1    6    6    0    0  0.22948571104E+01  0.11636319470E+02  0.99639206806E+02  0.10034262221E+03  0.00000000000E+00 0. -1.
        -12    1    6    6    0    0 -0.78556882130E+02 -0.10155020016E+03  0.92117781645E+03  0.93008182242E+03  0.00000000000E+00 0.  1.
</event>
<event>
12    1  0.8493057E-002  0.2061958E+03  0.7818608E-02  0.1144645E+00
         21   -1    0    0  503  502  0.00000000000E+00  0.00000000000E+00  0.17051433936E+03  0.17051433936E+03  0.00000000000E+00 0. -1.
         21   -1    0    0  501  503 -0.00000000000E+00 -0.00000000000E+00 -0.75788640347E+03  0.75788640347E+03  0.00000000000E+00 0. -1.
          6    2    1    2  501    0  0.66515105576E+02 -0.91627634636E+02 -0.67403917716E+03  0.70487269610E+03  0.17232766075E+03 0.  0.
         24    2    3    3    0    0  0.20935801423E+02  0.20175212539E+01 -0.15435370505E+03  0.17483310502E+03  0.79367311755E+02 0.  0.
         -6    2    1    2    0  502 -0.66515105576E+02  0.91627634636E+02  0.86667113048E+02  0.22352804672E+03  0.17214446401E+03 0.  0.
        -24    2    5    5    0    0 -0.78540062464E+02  0.12573611388E+03  0.80921755803E+02  0.18660803760E+03  0.79348077408E+02 0.  0.
          5    1    3    3  501    0  0.45579304153E+02 -0.93645155890E+02 -0.51968547210E+03  0.53003959107E+03  0.47000000000E+01 0. -1.
        -11    1    4    4    0    0  0.20144932228E+02  0.54111034998E+00  0.31566130410E+00  0.20154670351E+02  0.00000000000E+00 0.  1.
         12    1    4    4    0    0  0.79086919451E+00  0.14764109040E+01 -0.15466936636E+03  0.15467843467E+03  0.00000000000E+00 0. -1.
         -5    1    5    5    0  502  0.12024956888E+02 -0.34108479240E+02  0.57453572448E+01  0.36920009129E+02  0.47000000000E+01 0.  1.
         11    1    6    6    0    0 -0.72055672550E+02  0.79542614653E+02  0.18860897042E+02  0.10897146842E+03  0.00000000000E+00 0. -1.
        -12    1    6    6    0    0 -0.64843899140E+01  0.46193499223E+02  0.62060858761E+02  0.77636569175E+02  0.00000000000E+00 0.  1.
</event>
<event>
12    1  0.8493057E-002  0.2014169E+03  0.7818608E-02  0.1148644E+00
         21   -1    0    0  503  502  0.00000000000E+00  0.00000000000E+00  0.33837465186E+03  0.33837465186E+03  0.00000000000E+00 0. -1.
         21   -1    0    0  501  503 -0.00000000000E+00 -0.00000000000E+00 -0.12309040097E+03  0.12309040097E+03  0.00000000000E+00 0. -1.
          6    2    1    2  501    0  0.97093573844E+01  0.10351314663E+03  0.14648298560E+03  0.24905026994E+03  0.17250950334E+03 0.  0.
         24    2    3    3    0    0  0.45003120609E+02  0.48371975120E+02  0.54792310319E+01  0.93517806061E+02  0.65957783742E+02 0.  0.
         -6    2    1    2    0  502 -0.97093573844E+01 -0.10351314663E+03  0.68801265285E+02  0.21241478288E+03  0.17198018122E+03 0.  0.
        -24    2    5    5    0    0  0.11886496615E+02 -0.11990922851E+03  0.58857496136E+01  0.14374408663E+03  0.78155028683E+02 0.  0.
          5    1    3    3  501    0 -0.35293763225E+02  0.55141171513E+02  0.14100375457E+03  0.15553246388E+03  0.47000000000E+01 0. -1.
        -11    1    4    4    0    0  0.26321241147E+01  0.45492860179E+02  0.18375228973E+02  0.49134279729E+02  0.00000000000E+00 0.  1.
         12    1    4    4    0    0  0.42370996494E+02  0.28791149411E+01 -0.12895997941E+02  0.44383526332E+02  0.00000000000E+00 0. -1.
         -5    1    5    5    0  502 -0.21595853999E+02  0.16396081880E+02  0.62915515671E+02  0.68670696248E+02  0.47000000000E+01 0.  1.
         11    1    6    6    0    0  0.87032359217E+01  0.68061485860E+01 -0.11329651041E+02  0.15825010799E+02  0.00000000000E+00 0. -1.
        -12    1    6    6    0    0  0.31832606931E+01 -0.12671537710E+03  0.17215400654E+02  0.12791907583E+03  0.00000000000E+00 0.  1.
</event>
<event>
12    1  0.8493057E-002  0.1955840E+03  0.7818608E-02  0.1154051E+00
         21   -1    0    0  501  502  0.00000000000E+00  0.00000000000E+00  0.25325150207E+02  0.25325150207E+02  0.00000000000E+00 0. -1.
         21   -1    0    0  502  503 -0.00000000000E+00 -0.00000000000E+00 -0.18912773758E+04  0.18912773758E+04  0.00000000000E+00 0. -1.
         -6    2    1    2    0  503 -0.87402424670E+02 -0.25007510733E+02 -0.13780166409E+04  0.13918272005E+04  0.17317197803E+03 0.  0.
        -24    2    3    3    0    0 -0.22010290241E+02 -0.75456902879E+02 -0.85805840841E+03  0.86532940757E+03  0.79702912650E+02 0.  0.
          6    2    1    2  501    0  0.87402424670E+02  0.25007510733E+02 -0.48793558469E+03  0.52477532553E+03  0.17042138375E+03 0.  0.
         24    2    5    5    0    0  0.15303391802E+01 -0.32290927369E+02 -0.25842172166E+03  0.27306948650E+03  0.82098186964E+02 0.  0.
          5    1    5    5  501    0  0.85872085490E+02  0.57298438102E+02 -0.22951386303E+03  0.25170583903E+03  0.47000000000E+01 0. -1.
        -11    1    6    6    0    0  0.30251220910E+02 -0.19828012255E+02 -0.22249163199E+03  0.22541253901E+03  0.00000000000E+00 0.  1.
         12    1    6    6    0    0 -0.28720881730E+02 -0.12462915114E+02 -0.35930089671E+02  0.47656947492E+02  0.00000000000E+00 0. -1.
         -5    1    3    3    0  503 -0.65392134429E+02  0.50449392146E+02 -0.51995823252E+03  0.52649779295E+03  0.47000000000E+01 0.  1.
         13    1    4    4    0    0 -0.24161582244E+02 -0.40041044241E+02 -0.75281065469E+03  0.75426185711E+03  0.00000000000E+00 0. -1.
        -14    1    4    4    0    0  0.21512920026E+01 -0.35415858638E+02 -0.10524775372E+03  0.11106755045E+03  0.00000000000E+00 0.  1.
</event>
<event>
12    1  0.8493057E-002  0.1877808E+03  0.7818608E-02  0.1160485E+00
         21   -1    0    0  503  502  0.00000000000E+00  0.00000000000E+00  0.33012291576E+03  0.33012291576E+03  0.00000000000E+00 0. -1.
         21   -1    0    0  501  503 -0.00000000000E+00 -0.00000000000E+00 -0.22044850331E+03  0.22044850331E+03  0.00000000000E+00 0. -1.
          6    2    1    2  501    0 -0.42545880781E+02  0.61220376253E+02  0.25249382783E+03  0.31464978765E+03  0.17231735065E+03 0.  0.
         24    2    3    3    0    0  0.30642216366E+02  0.71237238792E+02  0.15562386295E+03  0.19273705166E+03  0.83157048715E+02 0.  0.
         -6    2    1    2    0  502  0.42545880781E+02 -0.61220376253E+02 -0.14281941539E+03  0.23592163142E+03  0.17234716220E+03 0.  0.
        -24    2    5    5    0    0  0.85563416501E-01 -0.94541376490E+02 -0.13208013048E+03  0.18068948636E+03  0.79154598240E+02 0.  0.
          5    1    3    3  501    0 -0.73188097147E+02 -0.10016862539E+02  0.96869964887E+02  0.12191273599E+03  0.47000000000E+01 0. -1.
        -11    1    4    4    0    0  0.32644760109E+02  0.33804446865E+02  0.14692109160E+03  0.15425377839E+03  0.00000000000E+00 0.  1.
         12    1    4    4    0    0 -0.20025437425E+01  0.37432791927E+02  0.87027713481E+01  0.38483273276E+02  0.00000000000E+00 0. -1.
         -5    1    5    5    0  502  0.42460317364E+02  0.33321000237E+02 -0.10739284905E+02  0.55232145058E+02  0.47000000000E+01 0.  1.
         13    1    6    6    0    0  0.38716950406E+02 -0.40186944529E+02 -0.70581805444E+02  0.89976574835E+02  0.00000000000E+00 0. -1.
        -14    1    6    6    0    0 -0.38631386990E+02 -0.54354431960E+02 -0.61498325037E+02  0.90712911522E+02  0.00000000000E+00 0.  1.
</event>
<event>
12    1  0.8493057E-002  0.2153577E+03  0.7818608E-02  0.1137465E+00
         21   -1    0    0  501  502  0.00000000000E+00  0.00000000000E+00  0.13743869655E+03  0.13743869655E+03  0.00000000000E+00 0.  1.
         21   -1    0    0  502  503 -0.00000000000E+00 -0.00000000000E+00 -0.34250783430E+03  0.34250783430E+03  0.00000000000E+00 0. -1.
         -6    2    1    2    0  503  0.21836336622E+02  0.12717630093E+03 -0.71625167642E+02  0.22659652986E+03  0.17194529825E+03 0.  0.
        -24    2    3    3    0    0 -0.34463747014E+02  0.53237520630E+02 -0.84671318390E+02  0.13263411876E+03  0.80003711419E+02 0.  0.
          6    2    1    2  501    0 -0.21836336622E+02 -0.12717630093E+03 -0.13344397011E+03  0.25335000100E+03  0.17241894539E+03 0.  0.
         24    2    5    5    0    0  0.87097079993E+00 -0.17145799255E+02 -0.14690063837E+00  0.78958109444E+02  0.77068959024E+02 0.  0.
          5    1    5    5  501    0 -0.22707307422E+02 -0.11003050167E+03 -0.13329706947E+03  0.17439189155E+03  0.47000000000E+01 0. -1.
        -13    1    6    6    0    0 -0.15135293939E+02 -0.44644079080E+02 -0.22880426053E+00  0.47140463202E+02  0.00000000000E+00 0.  1.
         14    1    6    6    0    0  0.16006264739E+02  0.27498279824E+02  0.81903622160E-01  0.31817646242E+02  0.00000000000E+00 0. -1.
         -5    1    3    3    0  503  0.56300083637E+02  0.73938780297E+02  0.13046150748E+02  0.93962411095E+02  0.47000000000E+01 0.  1.
         11    1    4    4    0    0 -0.13573525573E+02 -0.20964465325E+02 -0.19361178650E+02  0.31600706346E+02  0.00000000000E+00 0. -1.
        -12    1    4    4    0    0 -0.20890221442E+02  0.74201985956E+02 -0.65310139740E+02  0.10103341242E+03  0.00000000000E+00 0.  1.
</event>
<event>
12    1  0.8493057E-002  0.1998078E+03  0.7818608E-02  0.1150016E+00
         21   -1    0    0  501  502  0.00000000000E+00  0.00000000000E+00  0.11924549198E+03  0.11924549198E+03  0.00000000000E+00 0. -1.
         21   -1    0    0  502  503 -0.00000000000E+00 -0.00000000000E+00 -0.42127655358E+03  0.42127655358E+03  0.00000000000E+00 0. -1.
         -6    2    1    2    0  503  0.34738479183E+02  0.94814115290E+02 -0.27764637690E+02  0.20119151036E+03  0.17178670012E+03 0.  0.
        -24    2    3    3    0    0  0.14804608142E+02  0.60350621879E+02  0.49842056504E+02  0.11384175033E+03  0.81328589919E+02 0.  0.
          6    2    1    2  501    0 -0.34738479183E+02 -0.94814115290E+02 -0.27426642391E+03  0.33933053520E+03  0.17241421763E+03 0.  0.
         24    2    5    5    0    0 -0.16116676701E+02 -0.13025468054E+03 -0.24646640416E+03  0.29036384968E+03  0.79620649012E+02 0.  0.
          5    1    5    5  501    0 -0.18621802482E+02  0.35440565252E+02 -0.27800019757E+02  0.48966685527E+02  0.47000000000E+01 0. -1.
        -11    1    6    6    0    0  0.22925909548E+01  0.29706804707E+01 -0.61798131931E+02  0.61911953821E+02  0.00000000000E+00 0.  1.
         12    1    6    6    0    0 -0.18409267656E+02 -0.13322536101E+03 -0.18466827223E+03  0.22845189585E+03  0.00000000000E+00 0. -1.
         -5    1    3    3    0  503  0.19933871041E+02  0.34463493411E+02 -0.77606694194E+02  0.87349760025E+02  0.47000000000E+01 0.  1.
         11    1    4    4    0    0  0.15586325279E+02  0.77067290918E+01 -0.19920488688E+02  0.26441502956E+02  0.00000000000E+00 0. -1.
        -12    1    4    4    0    0 -0.78171713655E+00  0.52643892787E+02  0.69762545192E+02  0.87400247374E+02  0.00000000000E+00 0.  1.
</event>
<event>
12    1  0.8493057E-002  0.2429598E+03  0.7818608E-02  0.1117889E+00
         21   -1    0    0  501  502  0.00000000000E+00  0.00000000000E+00  0.85292950167E+02  0.85292950167E+02  0.00000000000E+00 0.  1.
         21   -1    0    0  502  503 -0.00000000000E+00 -0.00000000000E+00 -0.70942146133E+03  0.70942146133E+03  0.00000000000E+00 0. -1.
         -6    2    1    2    0  503  0.16690959909E+03 -0.32621072074E+02 -0.24853599843E+03  0.34756237651E+03  0.17351228901E+03 0.  0.
        -24    2    3    3    0    0  0.82667398179E+02  0.34450222177E+02 -0.69679649682E+02  0.13873950800E+03  0.79829073461E+02 0.  0.
          6    2    1    2  501    0 -0.16690959909E+03  0.32621072074E+02 -0.37559251273E+03  0.44715203498E+03  0.17306720705E+03 0.  0.
         24    2    5    5    0    0 -0.24843935819E+02 -0.25763777691E+02 -0.11261805306E+03  0.14257183240E+03  0.79767838959E+02 0.  0.
          5    1    5    5  501    0 -0.14206566328E+03  0.58384849765E+02 -0.26297445968E+03  0.30458020258E+03  0.47000000000E+01 0. -1.
        -13    1    6    6    0    0 -0.44561880629E+02 -0.37032713137E+02 -0.52054279716E+02  0.77889865093E+02  0.00000000000E+00 0.  1.
         14    1    6    6    0    0  0.19717944810E+02  0.11268935446E+02 -0.60563773340E+02  0.64681967308E+02  0.00000000000E+00 0. -1.
         -5    1    3    3    0  503  0.84242200915E+02 -0.67071294251E+02 -0.17885634875E+03  0.20882286852E+03  0.47000000000E+01 0.  1.
         13    1    4    4    0    0 -0.50208292045E+01 -0.69083714436E+01 -0.34596168130E+02  0.35634662496E+02  0.00000000000E+00 0. -1.
        -14    1    4    4    0    0  0.87688227383E+02  0.41358593621E+02 -0.35083481552E+02  0.10310484550E+03  0.00000000000E+00 0.  1.
</event>
<event>
12    1  0.8493057E-002  0.2687539E+03  0.7818608E-02  0.1102526E+00
         21   -1    0    0  501  502  0.00000000000E+00  0.00000000000E+00  0.40213971154E+03  0.40213971154E+03  0.00000000000E+00 0. -1.
         21   -1    0    0  502  503 -0.00000000000E+00 -0.00000000000E+00 -0.26619774030E+03  0.26619774030E+03  0.00000000000E+00 0.  1.
         -6    2    1    2    0  503 -0.16576638600E+03 -0.12341963742E+03  0.26152805443E+03  0.37500078538E+03  0.17180734602E+03 0.  0.
        -24    2    3    3    0    0 -0.16449668675E+02 -0.70193550848E+02  0.83166745695E+02  0.13633083582E+03  0.80446647081E+02 0.  0.
          6    2    1    2  501    0  0.16576638600E+03  0.12341963742E+03 -0.12558608319E+03  0.29333666646E+03  0.16602299228E+03 0.  0.
         24    2    5    5    0    0  0.81869701429E+01  0.37056747762E+02 -0.42943840999E+02  0.95494175551E+02  0.76385437418E+02 0.  0.
          5    1    5    5  501    0  0.15757941586E+03  0.86362889662E+02 -0.82642242195E+02  0.19784249091E+03  0.47000000000E+01 0. -1.
        -11    1    6    6    0    0  0.90349315750E+01  0.36655185623E+02 -0.64060268950E+02  0.74356914134E+02  0.00000000000E+00 0.  1.
         12    1    6    6    0    0 -0.84796143213E+00  0.40156213962E+00  0.21116427952E+02  0.21137261416E+02  0.00000000000E+00 0. -1.
         -5    1    3    3    0  503 -0.14931671733E+03 -0.53226086576E+02  0.17836130874E+03  0.23866994955E+03  0.47000000000E+01 0.  1.
         11    1    4    4    0    0 -0.70162484029E+00 -0.85825711583E+02  0.65449453691E+02  0.10793598119E+03  0.00000000000E+00 0. -1.
        -12    1    4    4    0    0 -0.15748043835E+02  0.15632160735E+02  0.17717292005E+02  0.28394854637E+02  0.00000000000E+00 0.  1.
</event>
<event>
12    1  0.8493057E-002  0.2484356E+03  0.7818608E-02  0.1114636E+00
         21   -1    0    0  501  502  0.00000000000E+00  0.00000000000E+00  0.32537774122E+03  0.32537774122E+03  0.00000000000E+00 0.  1.
         21   -1    0    0  502  503 -0.00000000000E+00 -0.00000000000E+00 -0.33322895345E+03  0.33322895345E+03  0.00000000000E+00 0.  1.
         -6    2    1    2    0  503 -0.14488157806E+03 -0.10041931105E+03 -0.22125440008E+03  0.33109921186E+03  0.17204205546E+03 0.  0.
        -24    2    3    3    0    0 -0.14234047186E+02 -0.57591069547E+01 -0.99777366310E+02  0.12908908514E+03  0.80453052540E+02 0.  0.
          6    2    1    2  501    0  0.14488157806E+03  0.10041931105E+03  0.21340318785E+03  0.32750748280E+03  0.17505862164E+03 0.  0.
         24    2    5    5    0    0  0.91661548608E+02  0.12549888154E+03  0.20275280888E+03  0.26753351375E+03  0.79458610038E+02 0.  0.
          5    1    5    5  501    0  0.53220029455E+02 -0.25079570494E+02  0.10650378971E+02  0.59973969050E+02  0.47000000000E+01 0. -1.
        -13    1    6    6    0    0  0.45761531547E+02  0.53815611087E+02  0.33716200090E+02  0.78275282910E+02  0.00000000000E+00 0.  1.
         14    1    6    6    0    0  0.45900017061E+02  0.71683270458E+02  0.16903660879E+03  0.18925823084E+03  0.00000000000E+00 0. -1.
         -5    1    3    3    0  503 -0.13064753088E+03 -0.94660204095E+02 -0.12147703377E+03  0.20201012672E+03  0.47000000000E+01 0.  1.
         13    1    4    4    0    0  0.24734852633E+02 -0.22657105512E+02 -0.68724172163E+02  0.76473323482E+02  0.00000000000E+00 0. -1.
        -14    1    4    4    0    0 -0.38968899819E+02  0.16897998558E+02 -0.31053194147E+02  0.52615761660E+02  0.00000000000E+00 0.  1.
</event>
<event>
12    1  0.8493057E-002  0.2233797E+03  0.7818608E-02  0.1131876E+00
         21   -1    0    0  501  502  0.00000000000E+00  0.00000000000E+00  0.56497703814E+03  0.56497703814E+03  0.00000000000E+00 0.  1.
         21   -1    0    0  502  503 -0.00000000000E+00 -0.00000000000E+00 -0.10165977065E+03  0.10165977065E+03  0.00000000000E+00 0.  1.
         -6    2    1    2    0  503  0.10412169240E+03  0.93818855096E+02  0.35822839547E+03  0.42216827698E+03  0.17394012294E+03 0.  0.
        -24    2    3    3    0    0 -0.13517005819E+02  0.62936748623E+02  0.16078771225E+03  0.19022543659E+03  0.78672006081E+02 0.  0.
          6    2    1    2  501    0 -0.10412169240E+03 -0.93818855096E+02  0.10508887203E+03  0.24446853181E+03  0.17052239625E+03 0.  0.
         24    2    5    5    0    0 -0.10925664168E+03 -0.16583492373E+02  0.35047390652E+02  0.13997179467E+03  0.78433141864E+02 0.  0.
          5    1    5    5  501    0  0.51349492758E+01 -0.77235362723E+02  0.70041481378E+02  0.10449673714E+03  0.47000000000E+01 0. -1.
        -13    1    6    6    0    0 -0.73877450604E+02  0.28792802422E+01  0.57598823455E+02  0.93721888724E+02  0.00000000000E+00 0.  1.
         14    1    6    6    0    0 -0.35379191072E+02 -0.19462772615E+02 -0.22551432803E+02  0.46249905949E+02  0.00000000000E+00 0. -1.
         -5    1    3    3    0  503  0.11763869822E+03  0.30882106473E+02  0.19744068322E+03  0.23194284039E+03  0.47000000000E+01 0.  1.
         11    1    4    4    0    0 -0.37535645853E+02  0.51493307479E+02  0.65863641632E+02  0.91643356081E+02  0.00000000000E+00 0. -1.
        -12    1    4    4    0    0  0.24018640034E+02  0.11443441144E+02  0.94924070620E+02  0.98582080509E+02  0.00000000000E+00 0.  1.
</event>
<event>
12    1  0.8493057E-002  0.2004842E+03  0.7818608E-02  0.1149336E+00
         21   -1    0    0  503  502  0.00000000000E+00  0.00000000000E+00  0.22840626374E+03  0.22840626374E+03  0.00000000000E+00 0.  1.
         21   -1    0    0  501  503 -0.00000000000E+00 -0.00000000000E+00 -0.18418627889E+03  0.18418627889E+03  0.00000000000E+00 0. -1.
          6    2    1    2  501    0 -0.35103941870E+02  0.96416959447E+02  0.65716464700E+02  0.21097998105E+03  0.17223641272E+03 0.  0.
         24    2    3    3    0    0 -0.62836980658E+02  0.40077048398E+02  0.90757985795E+02  0.14321218047E+03  0.81963776768E+02 0.  0.
         -6    2    1    2    0  502  0.35103941870E+02 -0.96416959447E+02 -0.21496479849E+02  0.20161256158E+03  0.17221210624E+03 0.  0.
        -24    2    5    5    0    0  0.24394031800E+02 -0.65653080789E+02 -0.79350321147E+02  0.13505224790E+03  0.83888261354E+02 0.  0.
          5    1    3    3  501    0  0.27733038788E+02  0.56339911048E+02 -0.25041521095E+02  0.67767800585E+02  0.47000000000E+01 0. -1.
        -11    1    4    4    0    0 -0.60749170941E+02  0.22967656781E+02  0.10321333421E+03  0.12194657596E+03  0.00000000000E+00 0.  1.
         12    1    4    4    0    0 -0.20878097162E+01  0.17109391617E+02 -0.12455348419E+02  0.21265604510E+02  0.00000000000E+00 0. -1.
         -5    1    5    5    0  502  0.10709910070E+02 -0.30763878658E+02  0.57853841298E+02  0.66560313676E+02  0.47000000000E+01 0.  1.
         13    1    6    6    0    0  0.12576954194E+02 -0.82216888139E+02 -0.43577750991E+02  0.93897906545E+02  0.00000000000E+00 0. -1.
        -14    1    6    6    0    0  0.11817077606E+02  0.16563807350E+02 -0.35772570156E+02  0.41154341358E+02  0.00000000000E+00 0.  1.
</event>
<event>
12    1  0.8493057E-002  0.2011064E+03  0.7818608E-02  0.1149998E+00
         21   -1    0    0  501  502  0.00000000000E+00  0.00000000000E+00  0.41669036237E+02  0.41669036237E+02  0.00000000000E+00 0.  1.
         21   -1    0    0  502  503 -0.00000000000E+00 -0.00000000000E+00 -0.15242004277E+04  0.15242004277E+04  0.00000000000E+00 0.  1.
         -6    2    1    2    0  503 -0.78050777230E+02 -0.67594241904E+02 -0.12179037040E+04  0.12334967731E+04  0.16602394891E+03 0.  0.
        -24    2    3    3    0    0  0.41439063886E+01  0.56205913594E+01 -0.65794327073E+03  0.66280057136E+03  0.79790268153E+02 0.  0.
          6    2    1    2  501    0  0.78050777230E+02  0.67594241904E+02 -0.26462768744E+03  0.33237269083E+03  0.17257719226E+03 0.  0.
         24    2    5    5    0    0  0.86370066244E+02  0.99784175439E+02 -0.25537515051E+03  0.29754307943E+03  0.76803298166E+02 0.  0.
          5    1    5    5  501    0 -0.83192890138E+01 -0.32189933534E+02 -0.92525369243E+01  0.34829611398E+02  0.47000000000E+01 0. -1.
        -11    1    6    6    0    0  0.73671174137E+02  0.26646954534E+02 -0.12522365119E+03  0.14771074742E+03  0.00000000000E+00 0.  1.
         12    1    6    6    0    0  0.12698892106E+02  0.73137220905E+02 -0.13015149932E+03  0.14983233202E+03  0.00000000000E+00 0. -1.
         -5    1    3    3    0  503 -0.82194683618E+02 -0.73214833264E+02 -0.55996043328E+03  0.57069620173E+03  0.47000000000E+01 0.  1.
         13    1    4    4    0    0 -0.30010157331E+02 -0.44876518396E+01 -0.12355264070E+03  0.12722422563E+03  0.00000000000E+00 0. -1.
        -14    1    4    4    0    0  0.34154063719E+02  0.10108243199E+02 -0.53439063002E+03  0.53557634573E+03  0.00000000000E+00 0.  1.
</event>
<event>
12    1  0.8493057E-002  0.1985302E+03  0.7818608E-02  0.1151699E+00
         21   -1    0    0  503  502  0.00000000000E+00  0.00000000000E+00  0.33327262305E+03  0.33327262305E+03  0.00000000000E+00 0.  1.
         21   -1    0    0  501  503 -0.00000000000E+00 -0.00000000000E+00 -0.17616551399E+03  0.17616551399E+03  0.00000000000E+00 0. -1.
          6    2    1    2  501    0 -0.21698954079E+02 -0.91496101247E+02 -0.69500552179E+02  0.21034395978E+03  0.17484814415E+03 0.  0.
         24    2    3    3    0    0  0.13793971191E+02 -0.46488355188E+02 -0.10684745101E+03  0.14177045322E+03  0.79567850357E+02 0.  0.
         -6    2    1    2    0  502  0.21698954079E+02  0.91496101247E+02  0.22660766123E+03  0.29909417726E+03  0.17106698568E+03 0.  0.
        -24    2    5    5    0    0  0.18875145726E+02 -0.14904850849E+02  0.13200643188E+03  0.15661393619E+03  0.80770051667E+02 0.  0.
          5    1    3    3  501    0 -0.35492925270E+02 -0.45007746059E+02  0.37346898829E+02  0.68573506558E+02  0.47000000000E+01 0. -1.
        -13    1    4    4    0    0  0.31334484829E+02  0.63468109379E+01 -0.17360923524E+02  0.36380401512E+02  0.00000000000E+00 0.  1.
         14    1    4    4    0    0 -0.17540513637E+02 -0.52835166126E+02 -0.89486527484E+02  0.10539005171E+03  0.00000000000E+00 0. -1.
         -5    1    5    5    0  502  0.28238083526E+01  0.10640095210E+03  0.94601229356E+02  0.14248024107E+03  0.47000000000E+01 0.  1.
         11    1    6    6    0    0  0.17429995198E+02 -0.39301855226E+02  0.31815356392E+02  0.53485114370E+02  0.00000000000E+00 0. -1.
        -12    1    6    6    0    0  0.14451505282E+01  0.24397004377E+02  0.10019107548E+03  0.10312882182E+03  0.00000000000E+00 0.  1.
</event>
<event>
12    1  0.8493057E-002  0.1972758E+03  0.7818608E-02  0.1152305E+00
         21   -1    0    0  501  502  0.00000000000E+00  0.00000000000E+00  0.25225403765E+03  0.25225403765E+03  0.00000000000E+00 0. -1.
         21   -1    0    0  502  503 -0.00000000000E+00 -0.00000000000E+00 -0.23445533183E+03  0.23445533183E+03  0.00000000000E+00 0. -1.
         -6    2    1    2    0  503  0.54071866997E+02  0.78593033077E+02 -0.13421842381E+03  0.23765728446E+03  0.17136443014E+03 0.  0.
        -24    2    3    3    0    0  0.94867313135E+02  0.21449507216E+02 -0.82833882018E+02  0.15052455749E+03  0.79600891563E+02 0.  0.
          6    2    1    2  501    0 -0.54071866997E+02 -0.78593033077E+02  0.15201712963E+03  0.24905208501E+03  0.17267629165E+03 0.  0.
         24    2    5    5    0    0 -0.79577867201E+01 -0.35823471415E+02  0.11138421473E+02  0.94699747106E+02  0.86587124882E+02 0.  0.
          5    1    5    5  501    0 -0.46114080277E+02 -0.42769561662E+02  0.14087870816E+03  0.15435233791E+03  0.47000000000E+01 0. -1.
        -11    1    6    6    0    0  0.18574479171E+00 -0.58248606921E+02 -0.14139949435E+02  0.59940577903E+02  0.00000000000E+00 0.  1.
         12    1    6    6    0    0 -0.81435315118E+01  0.22425135506E+02  0.25278370907E+02  0.34759169203E+02  0.00000000000E+00 0. -1.
         -5    1    3    3    0  503 -0.40795446138E+02  0.57143525861E+02 -0.51384541797E+02  0.87132726969E+02  0.47000000000E+01 0.  1.
         13    1    4    4    0    0  0.51376903946E+02  0.25314548917E+02 -0.89599816681E+02  0.10634161836E+03  0.00000000000E+00 0. -1.
        -14    1    4    4    0    0  0.43490409189E+02 -0.38650417009E+01  0.67659346634E+01  0.44182939136E+02  0.00000000000E+00 0.  1.
</event>
<event>
12    1  0.8493057E-002  0.1903036E+03  0.7818608E-02  0.1161137E+00
         21   -1    0    0  503  502  0.00000000000E+00  0.00000000000E+00  0.29550301458E+04  0.29550301458E+04  0.00000000000E+00 0.  1.
         21   -1    0    0  501  503 -0.00000000000E+00 -0.00000000000E+00 -0.13625595664E+02  0.13625595664E+02  0.00000000000E+00 0.  1.
          6    2    1    2  501    0  0.15791046420E+02 -0.42683192538E+02  0.83618280601E+03  0.85485015576E+03  0.17174368016E+03 0.  0.
         24    2    3    3    0    0  0.40144738475E+02 -0.88528662676E+02  0.56557775657E+03  0.57927059878E+03  0.78913267182E+02 0.  0.
         -6    2    1    2    0  502 -0.15791046420E+02  0.42683192538E+02  0.21052217441E+04  0.21138055857E+04  0.18478162816E+03 0.  0.
        -24    2    5    5    0    0  0.41233086315E+02  0.87888751064E+02  0.93289963629E+03  0.93921778193E+03  0.49027650690E+02 0.  0.
          5    1    3    3  501    0 -0.24353692055E+02  0.45845470138E+02  0.27060504944E+03  0.27557955699E+03  0.47000000000E+01 0. -1.
        -13    1    4    4    0    0  0.37107010637E+02 -0.12201144094E+02  0.98063143290E+02  0.10555651675E+03  0.00000000000E+00 0.  1.
         14    1    4    4    0    0  0.30377278373E+01 -0.76327518582E+02  0.46751461328E+03  0.47371408203E+03  0.00000000000E+00 0. -1.
         -5    1    5    5    0  502 -0.57024132735E+02 -0.45205558526E+02  0.11723221078E+04  0.11745878038E+04  0.47000000000E+01 0.  1.
         13    1    6    6    0    0  0.77213301351E+01  0.61231566570E+02  0.67192786896E+03  0.67475624100E+03  0.00000000000E+00 0. -1.
        -14    1    6    6    0    0  0.33511756180E+02  0.26657184494E+02  0.26097176733E+03  0.26446154093E+03  0.00000000000E+00 0.  1.
</event>
<event>
12    1  0.8493057E-002  0.2367598E+03  0.7818608E-02  0.1122634E+00
         21   -1    0    0  503  502  0.00000000000E+00  0.00000000000E+00  0.76854316851E+03  0.76854316851E+03  0.00000000000E+00 0. -1.
         21   -1    0    0  501  503 -0.00000000000E+00 -0.00000000000E+00 -0.15135496165E+03  0.15135496165E+03  0.00000000000E+00 0.  1.
          6    2    1    2  501    0  0.10397089104E+03 -0.11741538773E+03 -0.26182897518E+02  0.23434611568E+03  0.17215178870E+03 0.  0.
         24    2    3    3    0    0 -0.84076345374E+01 -0.74288289342E+02 -0.23728230661E+02  0.11385962260E+03  0.82532093612E+02 0.  0.
         -6    2    1    2    0  502 -0.10397089104E+03  0.11741538773E+03  0.64337110438E+03  0.68555201448E+03  0.17736647693E+03 0.  0.
        -24    2    5    5    0    0 -0.32451183425E+02  0.28384638390E+02  0.46528405705E+03  0.47394239907E+03  0.79204651924E+02 0.  0.
          5    1    3    3  501    0  0.11237852558E+03 -0.43127098391E+02 -0.24546668576E+01  0.12048649308E+03  0.47000000000E+01 0. -1.
        -13    1    4    4    0    0 -0.21948493041E+02 -0.88137726322E+02 -0.25686759608E+02  0.94391762178E+02  0.00000000000E+00 0.  1.
         14    1    4    4    0    0  0.13540858504E+02  0.13849436980E+02  0.19585289476E+01  0.19467860420E+02  0.00000000000E+00 0. -1.
         -5    1    5    5    0  502 -0.71519707615E+02  0.89030749343E+02  0.17808704733E+03  0.21160961540E+03  0.47000000000E+01 0.  1.
         13    1    6    6    0    0  0.13551744311E+02  0.38557084302E+02  0.26876356016E+03  0.27185317690E+03  0.00000000000E+00 0. -1.
        -14    1    6    6    0    0 -0.46002927736E+02 -0.10172445912E+02  0.19652049690E+03  0.20208922217E+03  0.00000000000E+00 0.  1.
</event>
<event>
12    1  0.8493057E-002  0.1807716E+03  0.7818608E-02  0.1167739E+00
         21   -1    0    0  501  502  0.00000000000E+00  0.00000000000E+00  0.21186298670E+02  0.21186298670E+02  0.00000000000E+00 0. -1.
         21   -1    0    0  502  503 -0.00000000000E+00 -0.00000000000E+00 -0.15368406297E+04  0.15368406297E+04  0.00000000000E+00 0. -1.
         -6    2    1    2    0  503 -0.12465662244E+02 -0.51438246701E+02 -0.84859069142E+03  0.86763156747E+03  0.17284990408E+03 0.  0.
        -24    2    3    3    0    0 -0.52199528876E+02 -0.40724391600E+02 -0.78516853268E+03  0.79188180134E+03  0.78764812574E+02 0.  0.
          6    2    1    2  501    0  0.12465662244E+02  0.51438246701E+02 -0.66706363962E+03  0.69039536091E+03  0.16991341651E+03 0.  0.
         24    2    5    5    0    0 -0.52540178702E+02  0.47608032550E+02 -0.33690293846E+03  0.35384134075E+03  0.81689101727E+02 0.  0.
          5    1    5    5  501    0  0.65005840946E+02  0.38302141506E+01 -0.33016070116E+03  0.33655402016E+03  0.47000000000E+01 0. -1.
        -13    1    6    6    0    0 -0.43546167087E+02 -0.10515874200E+02 -0.19790419680E+03  0.20291112189E+03  0.00000000000E+00 0.  1.
         14    1    6    6    0    0 -0.89940116153E+01  0.58123906750E+02 -0.13899874166E+03  0.15093021886E+03  0.00000000000E+00 0. -1.
         -5    1    3    3    0  503  0.39733866632E+02 -0.10713855100E+02 -0.63422158746E+02  0.75749766129E+02  0.47000000000E+01 0.  1.
         11    1    4    4    0    0  0.19258515813E+02 -0.49703584424E+01 -0.92145931796E+02  0.94268062677E+02  0.00000000000E+00 0. -1.
        -12    1    4    4    0    0 -0.71458044689E+02 -0.35754033158E+02 -0.69302260088E+03  0.69761373866E+03  0.00000000000E+00 0.  1.
</event>
<event>
12    1  0.8493057E-002  0.1736489E+03  0.7818608E-02  0.1174338E+00
         21   -1    0    0  503  502  0.00000000000E+00  0.00000000000E+00  0.42891827586E+03  0.42891827586E+03  0.00000000000E+00 0.  1.
         21   -1    0    0  501  503 -0.00000000000E+00 -0.00000000000E+00 -0.10725537095E+03  0.10725537095E+03  0.00000000000E+00 0.  1.
          6    2    1    2  501    0  0.98381950051E+01  0.17365303832E+02  0.29414951155E+01  0.17367379456E+03  0.17249808888E+03 0.  0.
         24    2    3    3    0    0 -0.25012562433E+02  0.48495633562E+02 -0.45629853756E+02  0.10610946481E+03  0.78738048080E+02 0.  0.
         -6    2    1    2    0  502 -0.98381950051E+01 -0.17365303832E+02  0.31872140980E+03  0.36249985225E+03  0.17153559968E+03 0.  0.
        -24    2    5    5    0    0 -0.64218844956E+01 -0.71547510310E+02  0.13853719382E+03  0.17425579693E+03  0.77538647513E+02 0.  0.
          5    1    3    3  501    0  0.34850757438E+02 -0.31130329730E+02  0.48571348871E+02  0.67564329748E+02  0.47000000000E+01 0. -1.
        -11    1    4    4    0    0  0.19264615674E+02  0.30372338407E+01 -0.37321289257E+02  0.42109723797E+02  0.00000000000E+00 0.  1.
         12    1    4    4    0    0 -0.44277178106E+02  0.45458399721E+02 -0.83085644992E+01  0.63999741018E+02  0.00000000000E+00 0. -1.
         -5    1    5    5    0  502 -0.34163105095E+01  0.54182206478E+02  0.18018421598E+03  0.18824405532E+03  0.47000000000E+01 0.  1.
         11    1    6    6    0    0  0.14291063596E+02 -0.44057825027E+01 -0.38789406495E+01  0.15449647204E+02  0.00000000000E+00 0. -1.
        -12    1    6    6    0    0 -0.20712948092E+02 -0.67141727807E+02  0.14241613447E+03  0.15880614972E+03  0.00000000000E+00 0.  1.
</event>
<event>
12    1  0.8493057E-002  0.1857514E+03  0.7818608E-02  0.1162446E+00
         21   -1    0    0  503  502  0.00000000000E+00  0.00000000000E+00  0.69907521233E+02  0.69907521233E+02  0.00000000000E+00 0.  1.
         21   -1    0    0  501  503 -0.00000000000E+00 -0.00000000000E+00 -0.98896079842E+03  0.98896079842E+03  0.00000000000E+00 0. -1.
          6    2    1    2  501    0 -0.19179618159E+02 -0.68009945679E+02 -0.83440162550E+03  0.85473730525E+03  0.17133761372E+03 0.  0.
         24    2    3    3    0    0 -0.68462851710E+02 -0.41103362802E+02 -0.50850571209E+03  0.52400623974E+03  0.98121514268E+02 0.  0.
         -6    2    1    2    0  502  0.19179618159E+02  0.68009945679E+02 -0.84651651681E+02  0.20413101440E+03  0.17178579232E+03 0.  0.
        -24    2    5    5    0    0  0.36552893020E+02 -0.11868728585E+02 -0.83936217589E+02  0.12224673552E+03  0.80137350946E+02 0.  0.
          5    1    3    3  501    0  0.49283233550E+02 -0.26906582878E+02 -0.32589591342E+03  0.33073106551E+03  0.47000000000E+01 0. -1.
        -11    1    4    4    0    0 -0.53728812156E+02  0.16315203155E+02 -0.14132902205E+03  0.15207519056E+03  0.00000000000E+00 0.  1.
         12    1    4    4    0    0 -0.14734039554E+02 -0.57418565957E+02 -0.36717669004E+03  0.37193104918E+03  0.00000000000E+00 0. -1.
         -5    1    5    5    0  502 -0.17373274861E+02  0.79878674264E+02 -0.71543409273E+00  0.81884278879E+02  0.47000000000E+01 0.  1.
         13    1    6    6    0    0  0.23549103748E+02  0.27609256923E+02 -0.69217617513E+02  0.78153118487E+02  0.00000000000E+00 0. -1.
        -14    1    6    6    0    0  0.13003789272E+02 -0.39477985507E+02 -0.14718600076E+02  0.44093617036E+02  0.00000000000E+00 0.  1.
</event>
<event>
12    1  0.8493057E-002  0.3076953E+03  0.7818608E-02  0.1081481E+00
         21   -1    0    0  501  502  0.00000000000E+00  0.00000000000E+00  0.13376130488E+03  0.13376130488E+03  0.00000000000E+00 0. -1.
         21   -1    0    0  502  503 -0.00000000000E+00 -0.00000000000E+00 -0.72217184183E+03  0.72217184183E+03  0.00000000000E+00 0.  1.
         -6    2    1    2    0  503  0.23358164789E+03  0.10306499877E+03 -0.23294476080E+03  0.38592702272E+03  0.17173708127E+03 0.  0.
        -24    2    3    3    0    0  0.59706222202E+02  0.56135811770E+02 -0.39741694916E+02  0.12175941132E+03  0.80807732285E+02 0.  0.
          6    2    1    2  501    0 -0.23358164789E+03 -0.10306499877E+03 -0.35546577616E+03  0.47000612399E+03  0.17136819533E+03 0.  0.
         24    2    5    5    0    0 -0.90254955132E+02 -0.83052033217E+02 -0.24531906332E+03  0.28807908368E+03  0.88116505156E+02 0.  0.
          5    1    5    5  501    0 -0.14332669276E+03 -0.20012965553E+02 -0.11014671284E+03  0.18192704031E+03  0.47000000000E+01 0. -1.
        -11    1    6    6    0    0  0.13254680265E+02 -0.33376807446E+02 -0.50981852224E+02  0.62360621232E+02  0.00000000000E+00 0.  1.
         12    1    6    6    0    0 -0.10350963540E+03 -0.49675225771E+02 -0.19433721109E+03  0.22571846245E+03  0.00000000000E+00 0. -1.
         -5    1    3    3    0  503  0.17387542569E+03  0.46929187000E+02 -0.19320306588E+03  0.26416761141E+03  0.47000000000E+01 0.  1.
         13    1    4    4    0    0  0.79684430672E+02  0.43284187951E+02 -0.26084767361E+02  0.94358595297E+02  0.00000000000E+00 0. -1.
        -14    1    4    4    0    0 -0.19978208469E+02  0.12851623818E+02 -0.13656927555E+02  0.27400816022E+02  0.00000000000E+00 0.  1.
</event>
<event>
12    1  0.8493057E-002  0.3546839E+03  0.7818608E-02  0.1060773E+00
         21   -1    0    0  501  502  0.00000000000E+00  0.00000000000E+00  0.64104200810E+03  0.64104200810E+03  0.00000000000E+00 0.  1.
         21   -1    0    0  502  503 -0.00000000000E+00 -0.00000000000E+00 -0.52906686860E+03  0.52906686860E+03  0.00000000000E+00 0. -1.
         -6    2    1    2    0  503  0.16184959338E+03  0.26406418824E+03 -0.40830924853E+03  0.54042918956E+03  0.17152865681E+03 0.  0.
        -24    2    3    3    0    0  0.88276296645E+02  0.23773661380E+03 -0.36278162704E+03  0.44986967605E+03  0.80379191487E+02 0.  0.
          6    2    1    2  501    0 -0.16184959338E+03 -0.26406418824E+03  0.52028438803E+03  0.62967968713E+03  0.17284524165E+03 0.  0.
         24    2    5    5    0    0 -0.17044583567E+03 -0.15377288690E+03  0.33386237516E+03  0.41285412725E+03  0.79287837634E+02 0.  0.
          5    1    5    5  501    0  0.85962422898E+01 -0.11029130134E+03  0.18642201287E+03  0.21682555987E+03  0.47000000000E+01 0. -1.
        -11    1    6    6    0    0 -0.85591643990E+02 -0.11246458948E+03  0.14943091303E+03  0.20567890309E+03  0.00000000000E+00 0.  1.
         12    1    6    6    0    0 -0.84854191683E+02 -0.41308297419E+02  0.18443146213E+03  0.20717522416E+03  0.00000000000E+00 0. -1.
         -5    1    3    3    0  503  0.73573296739E+02  0.26327574447E+02 -0.45527621489E+02  0.90559513513E+02  0.47000000000E+01 0.  1.
         13    1    4    4    0    0  0.61783507995E+02  0.59546802978E+02 -0.12204146442E+03  0.14918827917E+03  0.00000000000E+00 0. -1.
        -14    1    4    4    0    0  0.26492788650E+02  0.17818981082E+03 -0.24074016262E+03  0.30068139688E+03  0.00000000000E+00 0.  1.
</event>
<event>
12    1  0.8493057E-002  0.3037517E+03  0.7818608E-02  0.1083500E+00
         21   -1    0    0  503  502  0.00000000000E+00  0.00000000000E+00  0.17172649969E+03  0.17172649969E+03  0.00000000000E+00 0. -1.
         21   -1    0    0  501  503 -0.00000000000E+00 -0.00000000000E+00 -0.56327364544E+03  0.56327364544E+03  0.00000000000E+00 0. -1.
          6    2    1    2  501    0 -0.12036587002E+03 -0.21768069244E+03 -0.27759078211E+03  0.41148722797E+03  0.17433378886E+03 0.  0.
         24    2    3    3    0    0 -0.12986390419E+03 -0.18995088836E+03 -0.29055693067E+03  0.37909331348E+03  0.79639417164E+02 0.  0.
         -6    2    1    2    0  502  0.12036587002E+03  0.21768069244E+03 -0.11395636364E+03  0.32351291717E+03  0.17263177064E+03 0.  0.
        -24    2    5    5    0    0  0.34588235886E+02  0.18596990668E+03 -0.47865906436E+02  0.21058189847E+03  0.79198729237E+02 0.  0.
          5    1    3    3  501    0  0.94980341665E+01 -0.27729804081E+02  0.12966148555E+02  0.32393914486E+02  0.47000000000E+01 0. -1.
        -11    1    4    4    0    0 -0.42458280797E+01 -0.34509041989E+02 -0.13108808374E+02  0.37158335432E+02  0.00000000000E+00 0.  1.
         12    1    4    4    0    0 -0.12561807611E+03 -0.15544184637E+03 -0.27744812229E+03  0.34193497805E+03  0.00000000000E+00 0. -1.
         -5    1    5    5    0  502  0.85777634134E+02  0.31710785762E+02 -0.66090457202E+02  0.11293101870E+03  0.47000000000E+01 0.  1.
         13    1    6    6    0    0  0.34852170963E+02  0.30125538466E+02 -0.26864948262E+02  0.53328672718E+02  0.00000000000E+00 0. -1.
        -14    1    6    6    0    0 -0.26393507751E+00  0.15584436822E+03 -0.21000958174E+02  0.15725322576E+03  0.00000000000E+00 0.  1.
</event>
<event>
12    1  0.8493057E-002  0.1934971E+03  0.7818608E-02  0.1155815E+00
         21   -1    0    0  503  502  0.00000000000E+00  0.00000000000E+00  0.20285619730E+02  0.20285619730E+02  0.00000000000E+00 0. -1.
         21   -1    0    0  501  503 -0.00000000000E+00 -0.00000000000E+00 -0.19510559426E+04  0.19510559426E+04  0.00000000000E+00 0. -1.
          6    2    1    2  501    0 -0.78550292787E+02  0.32656044856E+02 -0.12203944570E+04  0.12356390045E+04  0.17379457154E+03 0.  0.
         24    2    3    3    0    0  0.74905684197E+01 -0.25203783190E+02 -0.38431691014E+03  0.39314357793E+03  0.78556006411E+02 0.  0.
         -6    2    1    2    0  502  0.78550292787E+02 -0.32656044856E+02 -0.71037586590E+03  0.73570255782E+03  0.17142875187E+03 0.  0.
        -24    2    5    5    0    0  0.65444602465E+02  0.47689504844E+01 -0.20188992981E+03  0.22565116179E+03  0.76505974778E+02 0.  0.
          5    1    3    3  501    0 -0.86040861207E+02  0.57859828046E+02 -0.83607754682E+03  0.84249542657E+03  0.47000000000E+01 0. -1.
        -11    1    4    4    0    0  0.25267801634E+02  0.21237881327E+02 -0.16306456185E+03  0.16637175461E+03  0.00000000000E+00 0.  1.
         12    1    4    4    0    0 -0.17777233215E+02 -0.46441664517E+02 -0.22125234830E+03  0.22677182332E+03  0.00000000000E+00 0. -1.
         -5    1    5    5    0  502  0.13105690322E+02 -0.37424995340E+02 -0.50848593608E+03  0.51005139603E+03  0.47000000000E+01 0.  1.
         11    1    6    6    0    0 -0.65271924408E+01  0.18422395978E+02 -0.88673967799E+02  0.90802320895E+02  0.00000000000E+00 0. -1.
        -12    1    6    6    0    0  0.71971794906E+02 -0.13653445494E+02 -0.11321596201E+03  0.13484884089E+03  0.00000000000E+00 0.  1.
</event>
<event>
12    1  0.8493057E-002  0.2399087E+03  0.7818608E-02  0.1120299E+00
         21   -1    0    0  501  502  0.00000000000E+00  0.00000000000E+00  0.37011437793E+03  0.37011437793E+03  0.00000000000E+00 0.  1.
         21   -1    0    0  502  503 -0.00000000000E+00 -0.00000000000E+00 -0.15517051680E+03  0.15517051680E+03  0.00000000000E+00 0.  1.
         -6    2    1    2    0  503 -0.13353043518E+03  0.96215356570E+02  0.83306843124E+02  0.25396107860E+03  0.17455207639E+03 0.  0.
        -24    2    3    3    0    0 -0.67216674494E+02  0.44732750430E+02  0.11848429075E+03  0.16281550047E+03  0.77144408389E+02 0.  0.
          6    2    1    2  501    0  0.13353043518E+03 -0.96215356570E+02  0.13163701801E+03  0.27132381613E+03  0.17088164539E+03 0.  0.
         24    2    5    5    0    0  0.14591219335E+03 -0.83607694604E+02  0.59281141720E+02  0.19669323320E+03  0.83026257630E+02 0.  0.
          5    1    5    5  501    0 -0.12381758175E+02 -0.12607661966E+02  0.72355876292E+02  0.74630582938E+02  0.47000000000E+01 0. -1.
        -13    1    6    6    0    0  0.60296701502E+02  0.65174371831E+01  0.35042416887E+02  0.70043844703E+02  0.00000000000E+00 0.  1.
         14    1    6    6    0    0  0.85615491848E+02 -0.90125131788E+02  0.24238724832E+02  0.12664938849E+03  0.00000000000E+00 0. -1.
         -5    1    3    3    0  503 -0.66313760681E+02  0.51482606140E+02 -0.35177447631E+02  0.91145578129E+02  0.47000000000E+01 0.  1.
         13    1    4    4    0    0  0.34539977903E+01  0.35917497780E+02  0.62735607301E+02  0.72372323239E+02  0.00000000000E+00 0. -1.
        -14    1    4    4    0    0 -0.70670672285E+02  0.88152526505E+01  0.55748683453E+02  0.90443177229E+02  0.00000000000E+00 0.  1.
</event>
<event>
12    1  0.8493057E-002  0.2195890E+03  0.7818608E-02  0.1135850E+00
         21   -1    0    0  503  502  0.00000000000E+00  0.00000000000E+00  0.83846377511E+03  0.83846377511E+03  0.00000000000E+00 0. -1.
         21   -1    0    0  501  503 -0.00000000000E+00 -0.00000000000E+00 -0.11865079676E+03  0.11865079676E+03  0.00000000000E+00 0.  1.
          6    2    1    2  501    0  0.12707518855E+03  0.44995733532E+02  0.67439364044E+01  0.21100012148E+03  0.16218153720E+03 0.  0.
         24    2    3    3    0    0  0.11763722976E+03  0.84675221848E+02  0.21956446601E+02  0.16721602248E+03  0.80440671347E+02 0.  0.
         -6    2    1    2    0  502 -0.12707518855E+03 -0.44995733532E+02  0.71306904194E+03  0.74611445039E+03  0.17333953653E+03 0.  0.
        -24    2    5    5    0    0 -0.14710839404E+03 -0.95894050123E+01  0.43452342565E+03  0.46457459925E+03  0.72705670673E+02 0.  0.
          5    1    3    3  501    0  0.94379587889E+01 -0.39679488317E+02 -0.15212510197E+02  0.43784099005E+02  0.47000000000E+01 0. -1.
        -11    1    4    4    0    0  0.97565780027E+02  0.22188836632E+02  0.15801801509E+02  0.10129720053E+03  0.00000000000E+00 0.  1.
         12    1    4    4    0    0  0.20071449730E+02  0.62486385216E+02  0.61546450921E+01  0.65918821955E+02  0.00000000000E+00 0. -1.
         -5    1    5    5    0  502  0.20033205497E+02 -0.35406328519E+02  0.27854561629E+03  0.28153985114E+03  0.47000000000E+01 0.  1.
         11    1    6    6    0    0 -0.37134116486E+02 -0.35282368776E+02  0.12477141382E+03  0.13487658752E+03  0.00000000000E+00 0. -1.
        -12    1    6    6    0    0 -0.10997427756E+03  0.25692963764E+02  0.30975201183E+03  0.32969801174E+03  0.00000000000E+00 0.  1.
</event>
<event>
12    1  0.8493057E-002  0.1790661E+03  0.7818608E-02  0.1169143E+00
         21   -1    0    0  501  502  0.00000000000E+00  0.00000000000E+00  0.78686863377E+02  0.78686863377E+02  0.00000000000E+00 0.  1.
         21   -1    0    0  502  503 -0.00000000000E+00 -0.00000000000E+00 -0.58972549256E+03  0.58972549256E+03  0.00000000000E+00 0.  1.
         -6    2    1    2    0  503  0.12265029480E+02 -0.43407554848E+02 -0.44420035070E+03  0.47893487446E+03  0.17329170680E+03 0.  0.
        -24    2    3    3    0    0  0.59284864274E+02 -0.52730036446E+01 -0.36933122420E+03  0.38253681970E+03  0.79914739272E+02 0.  0.
          6    2    1    2  501    0 -0.12265029480E+02  0.43407554848E+02 -0.66838278477E+02  0.18947748147E+03  0.17146344727E+03 0.  0.
         24    2    5    5    0    0 -0.53693531435E+01 -0.36580593465E+02 -0.68336694244E+02  0.10904123670E+03  0.76505671360E+02 0.  0.
          5    1    5    5  501    0 -0.68956763369E+01  0.79988148313E+02  0.14984157663E+01  0.80436244769E+02  0.47000000000E+01 0. -1.
        -13    1    6    6    0    0  0.12958456904E+02 -0.29459405188E+02  0.54834470575E+01  0.32647302355E+02  0.00000000000E+00 0.  1.
         14    1    6    6    0    0 -0.18327810048E+02 -0.71211882762E+01 -0.73820141301E+02  0.76393934349E+02  0.00000000000E+00 0. -1.
         -5    1    3    3    0  503 -0.47019834794E+02 -0.38134551204E+02 -0.74869126501E+02  0.96398054765E+02  0.47000000000E+01 0.  1.
         11    1    4    4    0    0  0.38896882165E+02 -0.25907899827E+02 -0.87343220262E+02  0.99060712906E+02  0.00000000000E+00 0. -1.
        -12    1    4    4    0    0  0.20387982109E+02  0.20634896182E+02 -0.28198800394E+03  0.28347610679E+03  0.00000000000E+00 0.  1.
</event>
<event>
12    1  0.8493057E-002  0.1856424E+03  0.7818608E-02  0.1162614E+00
         21   -1    0    0  501  502  0.00000000000E+00  0.00000000000E+00  0.10125954646E+03  0.10125954646E+03  0.00000000000E+00 0. -1.
         21   -1    0    0  502  503 -0.00000000000E+00 -0.00000000000E+00 -0.46400737262E+03  0.46400737262E+03  0.00000000000E+00 0. -1.
         -6    2    1    2    0  503  0.53032198604E+02  0.43397947507E+02 -0.34961326647E+02  0.18890579532E+03  0.17253205269E+03 0.  0.
        -24    2    3    3    0    0  0.97703783430E+02  0.59024736414E+02 -0.25642092097E+02  0.14044256023E+03  0.77695862389E+02 0.  0.
          6    2    1    2  501    0 -0.53032198604E+02 -0.43397947507E+02 -0.32778649951E+03  0.37636112377E+03  0.17177866655E+03 0.  0.
         24    2    5    5    0    0 -0.10094849298E+03 -0.17736902528E+02 -0.22783166454E+03  0.26248610662E+03  0.80538766163E+02 0.  0.
          5    1    5    5  501    0  0.47916294373E+02 -0.25661044979E+02 -0.99954834971E+02  0.11387501715E+03  0.47000000000E+01 0. -1.
        -13    1    6    6    0    0 -0.62826855628E+02  0.99680476058E+01 -0.57476466093E+02  0.85732840357E+02  0.00000000000E+00 0.  1.
         14    1    6    6    0    0 -0.38121637350E+02 -0.27704950133E+02 -0.17035519845E+03  0.17675326626E+03  0.00000000000E+00 0. -1.
         -5    1    3    3    0  503 -0.44671584825E+02 -0.15626788907E+02 -0.93192345508E+01  0.48463235085E+02  0.47000000000E+01 0.  1.
         11    1    4    4    0    0  0.34628285652E+00  0.37525512072E+02 -0.13045344083E+00  0.37527336519E+02  0.00000000000E+00 0. -1.
        -12    1    4    4    0    0  0.97357500573E+02  0.21499224342E+02 -0.25511638656E+02  0.10291522371E+03  0.00000000000E+00 0.  1.
</event>
