<event>
12    1  0.8133506E-002  0.1970133E+03  0.7818608E-02  0.1152782E+00
         21   -1    0    0  503  502  0.00000000000E+00  0.00000000000E+00  0.84802705982E+02  0.84802705982E+02  0.00000000000E+00 0. -1.
         21   -1    0    0  501  503 -0.00000000000E+00 -0.00000000000E+00 -0.93729893463E+03  0.93729893463E+03  0.00000000000E+00 0.  1.
          6    2    1    2  501    0 -0.84779160045E+02 -0.53991910149E+02 -0.79504841062E+03  0.81909476319E+03  0.16944504571E+03 0.  0.
         24    2    3    3    0    0  0.82255715607E+01 -0.59665069647E+02 -0.49016155476E+03  0.50025287492E+03  0.79793536938E+02 0.  0.
         -6    2    1    2    0  502  0.84779160045E+02  0.53991910149E+02 -0.57447818037E+02  0.20300687743E+03  0.16676003162E+03 0.  0.
        -24    2    5    5    0    0  0.79611575373E+02  0.70162761779E+02  0.14568777262E+02  0.12886727686E+03  0.71649910686E+02 0.  0.
          5    1    3    3  501    0 -0.93004731605E+02  0.56731594972E+01 -0.30488685585E+03  0.31884188826E+03  0.47000000000E+01 0. -1.
        -11    1    4    4    0    0 -0.13922911868E+02  0.15822675070E+02 -0.11797758483E+03  0.11984537973E+03  0.00000000000E+00 0.  1.
         12    1    4    4    0    0  0.22148483429E+02 -0.75487744716E+02 -0.37218396993E+03  0.38040749519E+03  0.00000000000E+00 0. -1.
         -5    1    5    5    0  502  0.51675846712E+01 -0.16170851629E+02 -0.72016595299E+02  0.74139600567E+02  0.47000000000E+01 0.  1.
         13    1    6    6    0    0  0.75723521789E+02  0.33742801279E+02 -0.11798594982E+02  0.83736701833E+02  0.00000000000E+00 0. -1.
        -14    1    6    6    0    0  0.38880535845E+01  0.36419960500E+02  0.26367372244E+02  0.45130575030E+02  0.00000000000E+00 0.  1.
</event>
<event>
12    1  0.8133506E-002  0.2367744E+03  0.7818608E-02  0.1122403E+00
         21   -1    0    0  503  502  0.00000000000E+00  0.00000000000E+00  0.58677541147E+03  0.58677541147E+03  0.00000000000E+00 0. -1.
         21   -1    0    0  501  503 -0.00000000000E+00 -0.00000000000E+00 -0.99685537085E+02  0.99685537085E+02  0.00000000000E+00 0. -1.
          6    2    1    2  501    0  0.12111505302E+03  0.10935697816E+03  0.16398194377E+03  0.28588530505E+03  0.16796584481E+03 0.  0.
         24    2    3    3    0    0 -0.82084621047E+01  0.60036872495E+02  0.79428072242E+02  0.12362473813E+03  0.72817939471E+02 0.  0.
         -6    2    1    2    0  502 -0.12111505302E+03 -0.10935697816E+03  0.32310793062E+03  0.40057564350E+03  0.17156429289E+03 0.  0.
        -24    2    5    5    0    0 -0.10138292532E+03 -0.14587702208E+03  0.27767462901E+03  0.33885574908E+03  0.78494687551E+02 0.  0.
          5    1    3    3  501    0  0.12932351513E+03  0.49320105668E+02  0.84553871524E+02  0.16226056692E+03  0.47000000000E+01 0. -1.
        -11    1    4    4    0    0  0.12172917941E+02  0.27217219659E+02  0.79589783125E+02  0.84991120448E+02  0.00000000000E+00 0.  1.
         12    1    4    4    0    0 -0.20381380046E+02  0.32819652836E+02 -0.16171088258E+00  0.38633617683E+02  0.00000000000E+00 0. -1.
         -5    1    5    5    0  502 -0.19732127704E+02  0.36520043920E+02  0.45433301613E+02  0.61719894419E+02  0.47000000000E+01 0.  1.
         11    1    6    6    0    0  0.64946599289E+01 -0.13635767664E+02  0.28753465938E+01  0.15374732044E+02  0.00000000000E+00 0. -1.
        -12    1    6    6    0    0 -0.10787758525E+03 -0.13224125442E+03  0.27479928241E+03  0.32348101704E+03  0.00000000000E+00 0.  1.
</event>
<event>
12    1  0.8133506E-002  0.2977186E+03  0.7818608E-02  0.1086677E+00
         21   -1    0    0  501  502  0.00000000000E+00  0.00000000000E+00  0.16708749108E+04  0.16708749108E+04  0.00000000000E+00 0. -1.
         21   -1    0    0  502  503 -0.00000000000E+00 -0.00000000000E+00 -0.57352008796E+02  0.57352008796E+02  0.00000000000E+00 0.  1.
         -6    2    1    2    0  503 -0.21823630468E+03 -0.10640959252E+03  0.55621027435E+03  0.62979787600E+03  0.16830154266E+03 0.  0.
        -24    2    3    3    0    0 -0.12256246868E+03 -0.27550511224E+02  0.41925915096E+03  0.44500085818E+03  0.80417278741E+02 0.  0.
          6    2    1    2  501    0  0.21823630468E+03  0.10640959252E+03  0.10573126277E+04  0.10984290436E+04  0.17229708405E+03 0.  0.
         24    2    5    5    0    0  0.23190872528E+03  0.75244226347E+02  0.83714956903E+03  0.87560158229E+03  0.80096064275E+02 0.  0.
          5    1    5    5  501    0 -0.13672420604E+02  0.31165366168E+02  0.22016305866E+03  0.22282746135E+03  0.47000000000E+01 0. -1.
        -13    1    6    6    0    0  0.93695881182E+02  0.38753014688E+02  0.22196495904E+03  0.24402696028E+03  0.00000000000E+00 0.  1.
         14    1    6    6    0    0  0.13821284410E+03  0.36491211659E+02  0.61518460999E+03  0.63157462201E+03  0.00000000000E+00 0. -1.
         -5    1    3    3    0  503 -0.95673835997E+02 -0.78859081291E+02  0.13695112339E+03  0.18479701782E+03  0.47000000000E+01 0.  1.
         13    1    4    4    0    0 -0.12018853188E+02 -0.24375138933E+01  0.17815754647E+03  0.17857913000E+03  0.00000000000E+00 0. -1.
        -14    1    4    4    0    0 -0.11054361549E+03 -0.25112997331E+02  0.24110160449E+03  0.26642172818E+03  0.00000000000E+00 0.  1.
</event>
<event>
12    1  0.8133506E-002  0.1952725E+03  0.7818608E-02  0.1154657E+00
         21   -1    0    0  503  502  0.00000000000E+00  0.00000000000E+00  0.11224476802E+04  0.11224476802E+04  0.00000000000E+00 0.  1.
         21   -1    0    0  501  503 -0.00000000000E+00 -0.00000000000E+00 -0.49616245781E+02  0.49616245781E+02  0.00000000000E+00 0.  1.
          6    2    1    2  501    0  0.62120730160E+02 -0.70949159457E+02  0.20392686124E+03  0.28234288413E+03  0.17099289792E+03 0.  0.
         24    2    3    3    0    0  0.25013177110E+02  0.21070092680E+02  0.52885802757E+02  0.10156676678E+03  0.80307484990E+02 0.  0.
         -6    2    1    2    0  502 -0.62120730160E+02  0.70949159457E+02  0.86890457320E+03  0.88972104187E+03  0.16648004889E+03 0.  0.
        -24    2    5    5    0    0 -0.84305947732E+01  0.41612861252E+02  0.22498483843E+03  0.24288415064E+03  0.81066811705E+02 0.  0.
          5    1    3    3  501    0  0.37107553050E+02 -0.92019252138E+02  0.15104105848E+03  0.18077611735E+03  0.47000000000E+01 0. -1.
        -11    1    4    4    0    0 -0.25705414407E+02 -0.91573278085E+01  0.12377768186E+02  0.29963880384E+02  0.00000000000E+00 0.  1.
         12    1    4    4    0    0  0.50718591517E+02  0.30227420489E+02  0.40508034571E+02  0.71602886392E+02  0.00000000000E+00 0. -1.
         -5    1    5    5    0  502 -0.53690135387E+02  0.29336298205E+02  0.64391973477E+03  0.64683689123E+03  0.47000000000E+01 0.  1.
         13    1    6    6    0    0  0.13053542184E+02  0.53821028945E+02  0.20084044295E+03  0.20833622260E+03  0.00000000000E+00 0. -1.
        -14    1    6    6    0    0 -0.21484136957E+02 -0.12208167693E+02  0.24144395471E+02  0.34547928040E+02  0.00000000000E+00 0.  1.
</event>
<event>
12    1  0.8133506E-002  0.2230428E+03  0.7818608E-02  0.1131762E+00
         21   -1    0    0  501  502  0.00000000000E+00  0.00000000000E+00  0.12167231285E+03  0.12167231285E+03  0.00000000000E+00 0.  1.
         21   -1    0    0  502  503 -0.00000000000E+00 -0.00000000000E+00 -0.41202596151E+03  0.41202596151E+03  0.00000000000E+00 0.  1.
         -6    2    1    2    0  503 -0.14023156543E+03  0.57566200493E+01 -0.11728708223E+03  0.25138612977E+03  0.17245490995E+03 0.  0.
        -24    2    3    3    0    0 -0.77276503166E+02 -0.21724351099E+02 -0.13949942263E+03  0.17903959077E+03  0.78431376220E+02 0.  0.
          6    2    1    2  501    0  0.14023156543E+03 -0.57566200493E+01 -0.17306656643E+03  0.28231214459E+03  0.17334958883E+03 0.  0.
         24    2    5    5    0    0  0.92836009900E+01 -0.37354653907E+02 -0.68385328263E+02  0.11164856687E+03  0.79418473586E+02 0.  0.
          5    1    5    5  501    0  0.13094796444E+03  0.31598033857E+02 -0.10468123817E+03  0.17066357772E+03  0.47000000000E+01 0. -1.
        -13    1    6    6    0    0  0.18787404895E+02 -0.56301861623E+02 -0.27117424309E+02  0.65255045062E+02  0.00000000000E+00 0.  1.
         14    1    6    6    0    0 -0.95038039052E+01  0.18947207717E+02 -0.41267903954E+02  0.46393521808E+02  0.00000000000E+00 0. -1.
         -5    1    3    3    0  503 -0.62955062267E+02  0.27480971149E+02  0.22212340397E+02  0.72346539007E+02  0.47000000000E+01 0.  1.
         11    1    4    4    0    0 -0.93225286377E+02 -0.14863774362E+02 -0.12334169623E+03  0.15532243829E+03  0.00000000000E+00 0. -1.
        -12    1    4    4    0    0  0.15948783210E+02 -0.68605767375E+01 -0.16157726394E+02  0.23717152470E+02  0.00000000000E+00 0.  1.
</event>
<event>
12    1  0.8133506E-002  0.2896332E+03  0.7818608E-02  0.1091097E+00
         21   -1    0    0  501  502  0.00000000000E+00  0.00000000000E+00  0.89953456437E+02  0.89953456437E+02  0.00000000000E+00 0. -1.
         21   -1    0    0  502  503 -0.00000000000E+00 -0.00000000000E+00 -0.10611536154E+04  0.10611536154E+04  0.00000000000E+00 0. -1.
         -6    2    1    2    0  503 -0.13186189895E+03 -0.19016977145E+03 -0.69932466124E+03  0.75692955536E+03  0.17417022593E+03 0.  0.
        -24    2    3    3    0    0 -0.12934146613E+03 -0.21104693847E+03 -0.57935790391E+03  0.63504304443E+03  0.79712372698E+02 0.  0.
          6    2    1    2  501    0  0.13186189895E+03  0.19016977145E+03 -0.27187549771E+03  0.39417751645E+03  0.16705545742E+03 0.  0.
         24    2    5    5    0    0  0.13625837585E+02  0.46153710203E+02 -0.12873474833E+03  0.15916314192E+03  0.80277281361E+02 0.  0.
          5    1    5    5  501    0  0.11823606137E+03  0.14401606125E+03 -0.14314074938E+03  0.23501437454E+03  0.47000000000E+01 0. -1.
        -11    1    6    6    0    0  0.22248453752E+02  0.59833513840E+02 -0.12793013193E+03  0.14297259083E+03  0.00000000000E+00 0.  1.
         12    1    6    6    0    0 -0.86226161665E+01 -0.13679803637E+02 -0.80461640111E+00  0.16190551092E+02  0.00000000000E+00 0. -1.
         -5    1    3    3    0  503 -0.25204328213E+01  0.20877167012E+02 -0.11996675732E+03  0.12188651093E+03  0.47000000000E+01 0.  1.
         11    1    4    4    0    0 -0.12512213350E+03 -0.14932387893E+03 -0.39211354679E+03  0.43784266887E+03  0.00000000000E+00 0. -1.
        -12    1    4    4    0    0 -0.42193326264E+01 -0.61723059541E+02 -0.18724435713E+03  0.19720037557E+03  0.00000000000E+00 0.  1.
</event>
<event>
12    1  0.8133506E-002  0.1822877E+03  0.7818608E-02  0.1165622E+00
         21   -1    0    0  501  502  0.00000000000E+00  0.00000000000E+00  0.14097322161E+04  0.14097322161E+04  0.00000000000E+00 0.  1.
         21   -1    0    0  502  503 -0.00000000000E+00 -0.00000000000E+00 -0.23874955563E+02  0.23874955563E+02  0.00000000000E+00 0.  1.
         -6    2    1    2    0  503  0.41781514273E+02  0.41536970175E+02  0.77473054189E+03  0.79587317213E+03  0.17244036289E+03 0.  0.
        -24    2    3    3    0    0  0.47056546464E+02  0.80278840877E+02  0.70520204172E+03  0.71596659640E+03  0.81481511082E+02 0.  0.
          6    2    1    2  501    0 -0.41781514273E+02 -0.41536970175E+02  0.61112671868E+03  0.63773399957E+03  0.17250441470E+03 0.  0.
         24    2    5    5    0    0 -0.87745531025E+02 -0.37682392432E+02  0.52740560832E+03  0.54203205117E+03  0.80764026037E+02 0.  0.
          5    1    5    5  501    0  0.45964016752E+02 -0.38545777434E+01  0.83721110364E+02  0.95701948393E+02  0.47000000000E+01 0. -1.
        -13    1    6    6    0    0 -0.47767773458E+00 -0.26184605165E+02  0.24065354264E+03  0.24207434666E+03  0.00000000000E+00 0.  1.
         14    1    6    6    0    0 -0.87267853290E+02 -0.11497787267E+02  0.28675206568E+03  0.29995770452E+03  0.00000000000E+00 0. -1.
         -5    1    3    3    0  503 -0.52750321910E+01 -0.38741870702E+02  0.69528500172E+02  0.79906575739E+02  0.47000000000E+01 0.  1.
         11    1    4    4    0    0  0.41111438313E+01  0.14459797716E+02  0.41613874126E+03  0.41641018147E+03  0.00000000000E+00 0. -1.
        -12    1    4    4    0    0  0.42945402633E+02  0.65819043161E+02  0.28906330047E+03  0.29955641493E+03  0.00000000000E+00 0.  1.
</event>
<event>
12    1  0.8133506E-002  0.1907894E+03  0.7818608E-02  0.1158316E+00
         21   -1    0    0  503  502  0.00000000000E+00  0.00000000000E+00  0.30381668111E+03  0.30381668111E+03  0.00000000000E+00 0. -1.
         21   -1    0    0  501  503 -0.00000000000E+00 -0.00000000000E+00 -0.12371695848E+03  0.12371695848E+03  0.00000000000E+00 0. -1.
          6    2    1    2  501    0  0.56519657428E+02 -0.59163144312E+02  0.13556893583E+03  0.23405027188E+03  0.17235383397E+03 0.  0.
         24    2    3    3    0    0  0.48885566272E+02  0.31016899217E+02  0.51397593012E+02  0.11036670567E+03  0.78659077835E+02 0.  0.
         -6    2    1    2    0  502 -0.56519657428E+02  0.59163144312E+02  0.44530786806E+02  0.19348336771E+03  0.16958205473E+03 0.  0.
        -24    2    5    5    0    0  0.18752811939E+02  0.25728772372E+02  0.66201365527E+02  0.10818679185E+03  0.79423695774E+02 0.  0.
          5    1    3    3  501    0  0.76340911558E+01 -0.90180043529E+02  0.84171342818E+02  0.12368356621E+03  0.47000000000E+01 0. -1.
        -13    1    4    4    0    0  0.15604409700E+02  0.39456479542E+02  0.61373323410E+02  0.74612305998E+02  0.00000000000E+00 0.  1.
         14    1    4    4    0    0  0.33281156572E+02 -0.84395803249E+01 -0.99757303974E+01  0.35754399671E+02  0.00000000000E+00 0. -1.
         -5    1    5    5    0  502 -0.75272469366E+02  0.33434371940E+02 -0.21670578720E+02  0.85296575861E+02  0.47000000000E+01 0.  1.
         13    1    6    6    0    0  0.37807082843E+01  0.46629086970E+02  0.67860801995E+02  0.82423624976E+02  0.00000000000E+00 0. -1.
        -14    1    6    6    0    0  0.14972103654E+02 -0.20900314598E+02 -0.16594364684E+01  0.25763166877E+02  0.00000000000E+00 0.  1.
</event>
<event>
12    1  0.8133506E-002  0.2173047E+03  0.7818608E-02  0.1136371E+00
         21   -1    0    0  503  502  0.00000000000E+00  0.00000000000E+00  0.19639125014E+03  0.19639125014E+03  0.00000000000E+00 0. -1.
         21   -1    0    0  501  503 -0.00000000000E+00 -0.00000000000E+00 -0.23873243767E+03  0.23873243767E+03  0.00000000000E+00 0.  1.
          6    2    1    2  501    0  0.11710640874E+02 -0.13018254012E+03 -0.72406055138E+01  0.21500243554E+03  0.17055494146E+03 0.  0.
         24    2    3    3    0    0 -0.22223471592E+02 -0.60176746735E+02 -0.63454136101E+02  0.11890672222E+03  0.77441963202E+02 0.  0.
         -6    2    1    2    0  502 -0.11710640874E+02  0.13018254012E+03 -0.35100582013E+02  0.22012125227E+03  0.17359919925E+03 0.  0.
        -24    2    5    5    0    0 -0.27568391090E+02  0.54267798210E+01 -0.38161284524E+02  0.94236678673E+02  0.81454292976E+02 0.  0.
          5    1    3    3  501    0  0.33934112466E+02 -0.70005793385E+02  0.56213530587E+02  0.96095713314E+02  0.47000000000E+01 0. -1.
        -11    1    4    4    0    0 -0.46418653623E+02 -0.14823797166E+02 -0.25403597458E+02  0.54952517052E+02  0.00000000000E+00 0.  1.
         12    1    4    4    0    0  0.24195182031E+02 -0.45352949569E+02 -0.38050538643E+02  0.63954205172E+02  0.00000000000E+00 0. -1.
         -5    1    5    5    0  502  0.15857750217E+02  0.12475576030E+03  0.30607025110E+01  0.12588457360E+03  0.47000000000E+01 0.  1.
         13    1    6    6    0    0  0.28645972442E+01  0.26649316259E+02  0.13989919934E+02  0.30234249357E+02  0.00000000000E+00 0. -1.
        -14    1    6    6    0    0 -0.30432988334E+02 -0.21222536438E+02 -0.52151204458E+02  0.64002429315E+02  0.00000000000E+00 0.  1.
</event>
<event>
12    1  0.8133506E-002  0.1969190E+03  0.7818608E-02  0.1152454E+00
         21   -1    0    0  503  502  0.00000000000E+00  0.00000000000E+00  0.62699906868E+03  0.62699906868E+03  0.00000000000E+00 0. -1.
         21   -1    0    0  501  503 -0.00000000000E+00 -0.00000000000E+00 -0.10126029939E+03  0.10126029939E+03  0.00000000000E+00 0. -1.
          6    2    1    2  501    0 -0.70288741364E+01 -0.97756502047E+02  0.35151519375E+02  0.19962628753E+03  0.17032112786E+03 0.  0.
         24    2    3    3    0    0 -0.12717043290E+02  0.13044932168E+02  0.47067368165E+00  0.83289860946E+02  0.81271679922E+02 0.  0.
         -6    2    1    2    0  502  0.70288741364E+01  0.97756502047E+02  0.49058724992E+03  0.52863308055E+03  0.17079620987E+03 0.  0.
        -24    2    5    5    0    0 -0.62227712486E+02  0.56641269584E+02  0.28014827508E+03  0.30325874914E+03  0.80014319180E+02 0.  0.
          5    1    3    3  501    0  0.56881691532E+01 -0.11080143421E+03  0.34680845693E+02  0.11633642658E+03  0.47000000000E+01 0. -1.
        -13    1    4    4    0    0 -0.84202359384E+01  0.72274398007E+01  0.40817996394E+02  0.42299469133E+02  0.00000000000E+00 0.  1.
         14    1    4    4    0    0 -0.42968073512E+01  0.58174923671E+01 -0.40347322713E+02  0.40990391812E+02  0.00000000000E+00 0. -1.
         -5    1    5    5    0  502  0.69256586622E+02  0.41115232463E+02  0.21043897483E+03  0.22537433141E+03  0.47000000000E+01 0.  1.
         13    1    6    6    0    0 -0.50882324810E+02 -0.62646368520E+01  0.10591116243E+03  0.11766660945E+03  0.00000000000E+00 0. -1.
        -14    1    6    6    0    0 -0.11345387676E+02  0.62905906436E+02  0.17423711266E+03  0.18559213969E+03  0.00000000000E+00 0.  1.
</event>
<event>
12    1  0.8133506E-002  0.1895492E+03  0.7818608E-02  0.1159781E+00
         21   -1    0    0  501  502  0.00000000000E+00  0.00000000000E+00  0.95343706943E+02  0.95343706943E+02  0.00000000000E+00 0.  1.
         21   -1    0    0  502  503 -0.00000000000E+00 -0.00000000000E+00 -0.38451557322E+03  0.38451557322E+03  0.00000000000E+00 0.  1.
         -6    2    1    2    0  503  0.76400084614E+02 -0.22260504582E+02 -0.19433280872E+03  0.27146666879E+03  0.17203606810E+03 0.  0.
        -24    2    3    3    0    0  0.10834973269E+01  0.39695189941E+02 -0.11857384633E+03  0.14788428013E+03  0.78950118465E+02 0.  0.
          6    2    1    2  501    0 -0.76400084614E+02  0.22260504582E+02 -0.94839057561E+02  0.20839261137E+03  0.16763212891E+03 0.  0.
         24    2    5    5    0    0 -0.11103752671E+03  0.59132884562E+01 -0.46938367564E+02  0.14688204340E+03  0.83706779925E+02 0.  0.
          5    1    5    5  501    0  0.34637442098E+02  0.16347216126E+02 -0.47900689997E+02  0.61510567973E+02  0.47000000000E+01 0. -1.
        -11    1    6    6    0    0 -0.16697194994E+02  0.31275571279E+02 -0.32565957712E+02  0.48140412142E+02  0.00000000000E+00 0.  1.
         12    1    6    6    0    0 -0.94340331719E+02 -0.25362282823E+02 -0.14372409852E+02  0.98741631259E+02  0.00000000000E+00 0. -1.
         -5    1    3    3    0  503  0.75316587287E+02 -0.61955694524E+02 -0.75758962386E+02  0.12358238866E+03  0.47000000000E+01 0.  1.
         13    1    4    4    0    0 -0.54594140270E+01 -0.20424730965E+01 -0.10252610150E+03  0.10269166659E+03  0.00000000000E+00 0. -1.
        -14    1    4    4    0    0  0.65429113539E+01  0.41737663038E+02 -0.16047744833E+02  0.45192613546E+02  0.00000000000E+00 0.  1.
</event>
<event>
12    1  0.8133506E-002  0.2028832E+03  0.7818608E-02  0.1147540E+00
         21   -1    0    0  503  502  0.00000000000E+00  0.00000000000E+00  0.12262764528E+03  0.12262764528E+03  0.00000000000E+00 0.  1.
         21   -1    0    0  501  503 -0.00000000000E+00 -0.00000000000E+00 -0.56922810246E+03  0.56922810246E+03  0.00000000000E+00 0.  1.
          6    2    1    2  501    0  0.34972525917E+02  0.10033334658E+03 -0.44535419436E+03  0.48896869182E+03  0.17163963744E+03 0.  0.
         24    2    3    3    0    0  0.70890358334E+02  0.94484054970E+02 -0.42320344004E+03  0.44610786104E+03  0.77190624283E+02 0.  0.
         -6    2    1    2    0  502 -0.34972525917E+02 -0.10033334658E+03 -0.12462628137E+01  0.20288705591E+03  0.17283444762E+03 0.  0.
        -24    2    5    5    0    0  0.66578204296E+01 -0.38413511491E+00  0.34532430241E+02  0.88759340240E+02  0.81493911483E+02 0.  0.
          5    1    3    3  501    0 -0.35917832416E+02  0.58492916049E+01 -0.22150754329E+02  0.42860830780E+02  0.47000000000E+01 0. -1.
        -11    1    4    4    0    0  0.53878761045E+02  0.84386199923E+02 -0.21729249784E+03  0.23924878526E+03  0.00000000000E+00 0.  1.
         12    1    4    4    0    0  0.17011597289E+02  0.10097855047E+02 -0.20591094220E+03  0.20685907579E+03  0.00000000000E+00 0. -1.
         -5    1    5    5    0  502 -0.41630346347E+02 -0.99949211460E+02 -0.35778693055E+02  0.11412771568E+03  0.47000000000E+01 0.  1.
         13    1    6    6    0    0 -0.19267809943E+02 -0.22910567163E+02  0.43922515477E+02  0.53153832916E+02  0.00000000000E+00 0. -1.
        -14    1    6    6    0    0  0.25925630373E+02  0.22526432049E+02 -0.93900852359E+01  0.35605507324E+02  0.00000000000E+00 0.  1.
</event>
<event>
12    1  0.8133506E-002  0.2481574E+03  0.7818608E-02  0.1114492E+00
         21   -1    0    0  503  502  0.00000000000E+00  0.00000000000E+00  0.34519800410E+02  0.34519800410E+02  0.00000000000E+00 0. -1.
         21   -1    0    0  501  503 -0.00000000000E+00 -0.00000000000E+00 -0.18101174199E+04  0.18101174199E+04  0.00000000000E+00 0.  1.
          6    2    1    2  501    0  0.79543296223E+02  0.16129823084E+03 -0.10000753941E+04  0.10303787611E+04  0.17083718025E+03 0.  0.
         24    2    3    3    0    0  0.64220010001E+02  0.23534746132E+02 -0.52815767235E+03  0.53850275341E+03  0.79728254771E+02 0.  0.
         -6    2    1    2    0  502 -0.79543296223E+02 -0.16129823084E+03 -0.77552222536E+03  0.81425845920E+03  0.17099082170E+03 0.  0.
        -24    2    5    5    0    0 -0.77865890951E+02 -0.15410207867E+03 -0.78108668270E+03  0.80388293608E+03  0.79503593707E+02 0.  0.
          5    1    3    3  501    0  0.15323286222E+02  0.13776348471E+03 -0.47191772177E+03  0.49187600769E+03  0.47000000000E+01 0. -1.
        -13    1    4    4    0    0 -0.15170106133E+02 -0.42840643730E+01 -0.37383495602E+02  0.40571061991E+02  0.00000000000E+00 0.  1.
         14    1    4    4    0    0  0.79390116134E+02  0.27818810505E+02 -0.49077417674E+03  0.49793169142E+03  0.00000000000E+00 0. -1.
         -5    1    5    5    0  502 -0.16774052720E+01 -0.71961521721E+01  0.55644573367E+01  0.10375523118E+02  0.47000000000E+01 0.  1.
         11    1    6    6    0    0 -0.44325709263E+02 -0.14843758746E+02 -0.18132474659E+03  0.18725322267E+03  0.00000000000E+00 0. -1.
        -12    1    6    6    0    0 -0.33540181688E+02 -0.13925831992E+03 -0.59976193611E+03  0.61662971341E+03  0.00000000000E+00 0.  1.
</event>
<event>
12    1  0.8133506E-002  0.2124399E+03  0.7818608E-02  0.1140639E+00
         21   -1    0    0  501  502  0.00000000000E+00  0.00000000000E+00  0.75323071067E+03  0.75323071067E+03  0.00000000000E+00 0. -1.
         21   -1    0    0  502  503 -0.00000000000E+00 -0.00000000000E+00 -0.59246582911E+02  0.59246582911E+02  0.00000000000E+00 0. -1.
         -6    2    1    2    0  503 -0.20142006079E+02 -0.11515099520E+03  0.29759883780E+03  0.36275290109E+03  0.17134511047E+03 0.  0.
        -24    2    3    3    0    0 -0.45174346583E+02 -0.17400704279E+01  0.95392577581E+02  0.12951886069E+03  0.75044266817E+02 0.  0.
          6    2    1    2  501    0  0.20142006079E+02  0.11515099520E+03  0.39638528997E+03  0.44972439250E+03  0.17738455119E+03 0.  0.
         24    2    5    5    0    0  0.59497660098E+02  0.60432043814E+02  0.12905172490E+03  0.17398473964E+03  0.80151970989E+02 0.  0.
          5    1    5    5  501    0 -0.39355654020E+02  0.54718951390E+02  0.26733356507E+03  0.27573965286E+03  0.47000000000E+01 0. -1.
        -13    1    6    6    0    0 -0.35221302832E+00  0.56329607848E+02  0.55608001677E+02  0.79154271045E+02  0.00000000000E+00 0.  1.
         14    1    6    6    0    0  0.59849873127E+02  0.41024359664E+01  0.73443723221E+02  0.94830468599E+02  0.00000000000E+00 0. -1.
         -5    1    3    3    0  503  0.25032340504E+02 -0.11341092478E+03  0.20220626022E+03  0.23323404040E+03  0.47000000000E+01 0.  1.
         11    1    4    4    0    0 -0.47902353189E+02 -0.31753304004E+02  0.62928019995E+02  0.85222317832E+02  0.00000000000E+00 0. -1.
        -12    1    4    4    0    0  0.27280066062E+01  0.30013233576E+02  0.32464557585E+02  0.44296542855E+02  0.00000000000E+00 0.  1.
</event>
<event>
12    1  0.8133506E-002  0.2694560E+03  0.7818608E-02  0.1101750E+00
         21   -1    0    0  501  502  0.00000000000E+00  0.00000000000E+00  0.66774751250E+02  0.66774751250E+02  0.00000000000E+00 0.  1.
         21   -1    0    0  502  503 -0.00000000000E+00 -0.00000000000E+00 -0.13575893589E+04  0.13575893589E+04  0.00000000000E+00 0. -1.
         -6    2    1    2    0  503  0.96844336910E+02 -0.18350434081E+03 -0.96682059404E+03  0.10036675689E+04  0.17191235864E+03 0.  0.
        -24    2    3    3    0    0  0.10391786292E+03 -0.18648405848E+03 -0.68993840294E+03  0.72663913850E+03  0.80088772258E+02 0.  0.
          6    2    1    2  501    0 -0.96844336910E+02  0.18350434081E+03 -0.32399401359E+03  0.42069654127E+03  0.17017870107E+03 0.  0.
         24    2    5    5    0    0 -0.12684773351E+03  0.11407444548E+03 -0.23953031291E+03  0.30722001987E+03  0.88915933322E+02 0.  0.
          5    1    5    5  501    0  0.30003396604E+02  0.69429895337E+02 -0.84463700685E+02  0.11347652139E+03  0.47000000000E+01 0. -1.
        -13    1    6    6    0    0 -0.10106140516E+03  0.78900442553E+02 -0.10476427545E+03  0.16557246407E+03  0.00000000000E+00 0.  1.
         14    1    6    6    0    0 -0.25786328352E+02  0.35174002924E+02 -0.13476603746E+03  0.14164755580E+03  0.00000000000E+00 0. -1.
         -5    1    3    3    0  503 -0.70735260055E+01  0.29797176667E+01 -0.27688219110E+03  0.27702843037E+03  0.47000000000E+01 0.  1.
         11    1    4    4    0    0 -0.79935674749E+01 -0.45515113338E+02 -0.18117645512E+03  0.18697708564E+03  0.00000000000E+00 0. -1.
        -12    1    4    4    0    0  0.11191143039E+03 -0.14096894514E+03 -0.50876194782E+03  0.53966205286E+03  0.00000000000E+00 0.  1.
</event>
<event>
12    1  0.8133506E-002  0.1917012E+03  0.7818608E-02  0.1156971E+00
         21   -1    0    0  503  502  0.00000000000E+00  0.00000000000E+00  0.17297119684E+03  0.17297119684E+03  0.00000000000E+00 0. -1.
         21   -1    0    0  501  503 -0.00000000000E+00 -0.00000000000E+00 -0.29264127399E+03  0.29264127399E+03  0.00000000000E+00 0.  1.
          6    2    1    2  501    0  0.13097195831E+02 -0.82907932183E+02 -0.18181240885E+03  0.26409066738E+03  0.17217103945E+03 0.  0.
         24    2    3    3    0    0  0.28505392411E+02 -0.58918698986E+02 -0.20397828991E+03  0.22767209911E+03  0.77093913321E+02 0.  0.
         -6    2    1    2    0  502 -0.13097195831E+02  0.82907932183E+02  0.62142331702E+02  0.20152180345E+03  0.17234879205E+03 0.  0.
        -24    2    5    5    0    0 -0.22724997653E+01  0.12299096287E+03  0.60836550592E+02  0.15971727668E+03  0.81710350510E+02 0.  0.
          5    1    3    3  501    0 -0.15408196580E+02 -0.23989233197E+02  0.22165881062E+02  0.36418568265E+02  0.47000000000E+01 0. -1.
        -11    1    4    4    0    0  0.29896842171E+02 -0.55004274092E+02 -0.71119932473E+02  0.94748805455E+02  0.00000000000E+00 0.  1.
         12    1    4    4    0    0 -0.13914497608E+01 -0.39144248936E+01 -0.13285835744E+03  0.13292329366E+03  0.00000000000E+00 0. -1.
         -5    1    5    5    0  502 -0.10824696065E+02 -0.40083030689E+02  0.13057811105E+01  0.41804526769E+02  0.47000000000E+01 0.  1.
         13    1    6    6    0    0  0.38715574066E+01  0.11308091461E+03  0.79096029216E+02  0.13805239601E+03  0.00000000000E+00 0. -1.
        -14    1    6    6    0    0 -0.61440571718E+01  0.99100482584E+01 -0.18259478624E+02  0.21664880675E+02  0.00000000000E+00 0.  1.
</event>
<event>
12    1  0.8133506E-002  0.2818996E+03  0.7818608E-02  0.1095026E+00
         21   -1    0    0  501  502  0.00000000000E+00  0.00000000000E+00  0.12053008416E+03  0.12053008416E+03  0.00000000000E+00 0. -1.
         21   -1    0    0  502  503 -0.00000000000E+00 -0.00000000000E+00 -0.10922536697E+04  0.10922536697E+04  0.00000000000E+00 0.  1.
         -6    2    1    2    0  503 -0.96499649310E+02 -0.19791257666E+03 -0.86901269974E+03  0.91275554011E+03  0.17163342734E+03 0.  0.
        -24    2    3    3    0    0  0.16434387485E+02 -0.83363729385E+02 -0.36085196102E+03  0.37972180623E+03  0.82188270979E+02 0.  0.
          6    2    1    2  501    0  0.96499649310E+02  0.19791257666E+03 -0.10271088584E+03  0.30002821378E+03  0.17602793153E+03 0.  0.
         24    2    5    5    0    0  0.12312342454E+03  0.95243896263E+02 -0.54286864394E+02  0.18333777203E+03  0.80217813251E+02 0.  0.
          5    1    5    5  501    0 -0.26623775231E+02  0.10266868040E+03 -0.48424021444E+02  0.11669044175E+03  0.47000000000E+01 0. -1.
        -11    1    6    6    0    0  0.33904726463E+02  0.33743250842E+02 -0.57665814237E+02  0.74923184566E+02  0.00000000000E+00 0.  1.
         12    1    6    6    0    0  0.89218698078E+02  0.61500645421E+02  0.33789498428E+01  0.10841458747E+03  0.00000000000E+00 0. -1.
         -5    1    3    3    0  503 -0.11293403680E+03 -0.11454884728E+03 -0.50816073872E+03  0.53303373388E+03  0.47000000000E+01 0.  1.
         13    1    4    4    0    0  0.81754177173E+01 -0.34211739341E+02 -0.33425487022E+02  0.48523641107E+02  0.00000000000E+00 0. -1.
        -14    1    4    4    0    0  0.82589697681E+01 -0.49151990044E+02 -0.32742647400E+03  0.33119816513E+03  0.00000000000E+00 0.  1.
</event>
<event>
12    1  0.8133506E-002  0.2632136E+03  0.7818608E-02  0.1105292E+00
         21   -1    0    0  501  502  0.00000000000E+00  0.00000000000E+00  0.61411682555E+03  0.61411682555E+03  0.00000000000E+00 0. -1.
         21   -1    0    0  502  503 -0.00000000000E+00 -0.00000000000E+00 -0.11511919321E+03  0.11511919321E+03  0.00000000000E+00 0.  1.
         -6    2    1    2    0  503 -0.10519945115E+03  0.16819495271E+03  0.30293306968E+03  0.40102459814E+03  0.17232474276E+03 0.  0.
        -24    2    3    3    0    0 -0.34171084967E+02  0.13896957650E+03  0.12273461700E+03  0.20508398528E+03  0.80718328578E+02 0.  0.
          6    2    1    2  501    0  0.10519945115E+03 -0.16819495271E+03  0.19606456266E+03  0.32821142062E+03  0.17298831536E+03 0.  0.
         24    2    5    5    0    0  0.92703251102E+02 -0.37403286410E+02  0.12502084154E+03  0.17877275327E+03  0.79602687718E+02 0.  0.
          5    1    5    5  501    0  0.12496200049E+02 -0.13079166630E+03  0.71043721125E+02  0.14943866735E+03  0.47000000000E+01 0. -1.
        -11    1    6    6    0    0  0.24563187123E+02 -0.43847707689E+02  0.21484806421E+02  0.54658654742E+02  0.00000000000E+00 0.  1.
         12    1    6    6    0    0  0.68140063978E+02  0.64444212785E+01  0.10353603512E+03  0.12411409852E+03  0.00000000000E+00 0. -1.
         -5    1    3    3    0  503 -0.71028366184E+02  0.29225376202E+02  0.18019845268E+03  0.19594061286E+03  0.47000000000E+01 0.  1.
         11    1    4    4    0    0 -0.53018022404E+02  0.48386097154E+02  0.54104527066E+02  0.89885621466E+02  0.00000000000E+00 0. -1.
        -12    1    4    4    0    0  0.18846937437E+02  0.90583479350E+02  0.68630089932E+02  0.11519836382E+03  0.00000000000E+00 0.  1.
</event>
<event>
12    1  0.8133506E-002  0.3157168E+03  0.7818608E-02  0.1077694E+00
         21   -1    0    0  501  502  0.00000000000E+00  0.00000000000E+00  0.52100178028E+03  0.52100178028E+03  0.00000000000E+00 0. -1.
         21   -1    0    0  502  503 -0.00000000000E+00 -0.00000000000E+00 -0.19996456367E+03  0.19996456367E+03  0.00000000000E+00 0.  1.
         -6    2    1    2    0  503  0.57954454369E+02  0.25792191171E+03  0.84421549214E+02  0.32680894163E+03  0.17261128305E+03 0.  0.
        -24    2    3    3    0    0  0.73113281256E+01  0.25159162922E+03  0.77495001053E+02  0.27508983702E+03  0.79480436794E+02 0.  0.
          6    2    1    2  501    0 -0.57954454369E+02 -0.25792191171E+03  0.23661566740E+03  0.39415740232E+03  0.17172842637E+03 0.  0.
         24    2    5    5    0    0  0.96658664109E+01 -0.94170570149E+02  0.15737551837E+03  0.20002316818E+03  0.79250796669E+02 0.  0.
          5    1    5    5  501    0 -0.67620320780E+02 -0.16375134156E+03  0.79240149029E+02  0.19413423414E+03  0.47000000000E+01 0. -1.
        -11    1    6    6    0    0  0.18935094194E+02 -0.12430218166E+02  0.23480195757E+00  0.22651782441E+02  0.00000000000E+00 0.  1.
         12    1    6    6    0    0 -0.92692277834E+01 -0.81740351983E+02  0.15714071641E+03  0.17737138574E+03  0.00000000000E+00 0. -1.
         -5    1    3    3    0  503  0.50643126244E+02  0.63302824949E+01  0.69265481612E+01  0.51719104610E+02  0.47000000000E+01 0.  1.
         13    1    4    4    0    0 -0.26038740806E+02  0.67936070809E+02  0.45214132047E+02  0.85660045975E+02  0.00000000000E+00 0. -1.
        -14    1    4    4    0    0  0.33350068932E+02  0.18365555841E+03  0.32280869006E+02  0.18942979105E+03  0.00000000000E+00 0.  1.
</event>
<event>
12    1  0.8133506E-002  0.1996547E+03  0.7818608E-02  0.1150038E+00
         21   -1    0    0  503  502  0.00000000000E+00  0.00000000000E+00  0.68752555417E+02  0.68752555417E+02  0.00000000000E+00 0.  1.
         21   -1    0    0  501  503 -0.00000000000E+00 -0.00000000000E+00 -0.15692508375E+04  0.15692508375E+04  0.00000000000E+00 0.  1.
          6    2    1    2  501    0  0.48084248861E+02  0.88529545997E+02 -0.14005940872E+04  0.14147482608E+04  0.17233475776E+03 0.  0.
         24    2    3    3    0    0  0.31703272177E+02 -0.19500717072E+02 -0.75246056856E+03  0.75745226798E+03  0.78432490773E+02 0.  0.
         -6    2    1    2    0  502 -0.48084248861E+02 -0.88529545997E+02 -0.99904194879E+02  0.22325513215E+03  0.17237293979E+03 0.  0.
        -24    2    5    5    0    0 -0.78634060803E+02 -0.10136849540E+03 -0.11377988503E+03  0.18702317928E+03  0.74651992426E+02 0.  0.
          5    1    3    3  501    0  0.16380976684E+02  0.10803026307E+03 -0.64813351866E+03  0.65729599280E+03  0.47000000000E+01 0. -1.
        -13    1    4    4    0    0  0.15590913972E+02  0.21558595926E+02 -0.52965501026E+03  0.53032280693E+03  0.00000000000E+00 0.  1.
         14    1    4    4    0    0  0.16112358205E+02 -0.41059312998E+02 -0.22280555829E+03  0.22712946105E+03  0.00000000000E+00 0. -1.
         -5    1    5    5    0  502  0.30549811942E+02  0.12838949405E+02  0.13875690147E+02  0.36231952867E+02  0.47000000000E+01 0.  1.
         13    1    6    6    0    0 -0.30301422661E+02 -0.43412521906E+02 -0.95785577950E+02  0.10944268005E+03  0.00000000000E+00 0. -1.
        -14    1    6    6    0    0 -0.48332638142E+02 -0.57955973496E+02 -0.17994307077E+02  0.77580499230E+02  0.00000000000E+00 0.  1.
</event>
<event>
12    1  0.8133506E-002  0.1732503E+03  0.7818608E-02  0.1174519E+00
         21   -1    0    0  503  502  0.00000000000E+00  0.00000000000E+00  0.10346204494E+03  0.10346204494E+03  0.00000000000E+00 0.  1.
         21   -1    0    0  501  503 -0.00000000000E+00 -0.00000000000E+00 -0.45796292636E+03  0.45796292636E+03  0.00000000000E+00 0.  1.
          6    2    1    2  501    0 -0.53149661589E+01 -0.23411039988E+02 -0.34728049708E+03  0.38809716350E+03  0.17157895851E+03 0.  0.
         24    2    3    3    0    0 -0.11552551386E+01 -0.64937453385E+02 -0.12457761009E+03  0.16146880675E+03  0.79588863246E+02 0.  0.
         -6    2    1    2    0  502  0.53149661589E+01  0.23411039988E+02 -0.72203843309E+01  0.17332780780E+03  0.17150530414E+03 0.  0.
        -24    2    5    5    0    0 -0.40136608050E+01 -0.51735179161E+02  0.69271590506E+01  0.96151253605E+02  0.80650107263E+02 0.  0.
          5    1    3    3  501    0 -0.41597110203E+01  0.41526413397E+02 -0.22270288700E+03  0.22662835675E+03  0.47000000000E+01 0. -1.
        -13    1    4    4    0    0 -0.30749074521E+02 -0.65150752986E+02 -0.98430005342E+02  0.12197783467E+03  0.00000000000E+00 0.  1.
         14    1    4    4    0    0  0.29593819383E+02  0.21329960018E+00 -0.26147604743E+02  0.39490972084E+02  0.00000000000E+00 0. -1.
         -5    1    5    5    0  502  0.93286269639E+01  0.75146219149E+02 -0.14147543381E+02  0.77176554193E+02  0.47000000000E+01 0.  1.
         11    1    6    6    0    0  0.21697370495E+02 -0.50642985749E+02 -0.20272903172E+02  0.58706715928E+02  0.00000000000E+00 0. -1.
        -12    1    6    6    0    0 -0.25711031300E+02 -0.10921934121E+01  0.27200062223E+02  0.37444537678E+02  0.00000000000E+00 0.  1.
</event>
<event>
12    1  0.8133506E-002  0.2567759E+03  0.7818608E-02  0.1109304E+00
         21   -1    0    0  503  502  0.00000000000E+00  0.00000000000E+00  0.38480954998E+03  0.38480954998E+03  0.00000000000E+00 0.  1.
         21   -1    0    0  501  503 -0.00000000000E+00 -0.00000000000E+00 -0.17994147637E+03  0.17994147637E+03  0.00000000000E+00 0.  1.
          6    2    1    2  501    0 -0.15718377709E+03  0.10324419498E+03  0.37791558141E+02  0.25954198781E+03  0.17483631772E+03 0.  0.
         24    2    3    3    0    0 -0.41312655841E+02  0.88132867196E+02 -0.23349069041E+02  0.12757708619E+03  0.79098647798E+02 0.  0.
         -6    2    1    2    0  502  0.15718377709E+03 -0.10324419498E+03  0.16707651546E+03  0.30520903854E+03  0.17283486803E+03 0.  0.
        -24    2    5    5    0    0  0.11000351787E+03 -0.14048647211E+03  0.13919474539E+03  0.23878278493E+03  0.76189359141E+02 0.  0.
          5    1    3    3  501    0 -0.11587112125E+03  0.15111327785E+02  0.61140627182E+02  0.13196490162E+03  0.47000000000E+01 0. -1.
        -13    1    4    4    0    0 -0.44866797592E+02  0.73477621487E+02 -0.48081801352E+02  0.98609583747E+02  0.00000000000E+00 0.  1.
         14    1    4    4    0    0  0.35541417507E+01  0.14655245709E+02  0.24732732311E+02  0.28967502445E+02  0.00000000000E+00 0. -1.
         -5    1    5    5    0  502  0.47180259217E+02  0.37242277128E+02  0.27881770078E+02  0.66426253606E+02  0.47000000000E+01 0.  1.
         13    1    6    6    0    0  0.33869069654E+02 -0.14136805653E+02  0.62606017811E+02  0.72570494138E+02  0.00000000000E+00 0. -1.
        -14    1    6    6    0    0  0.76134448217E+02 -0.12634966646E+03  0.76588727577E+02  0.16621229079E+03  0.00000000000E+00 0.  1.
</event>
<event>
12    1  0.8133506E-002  0.1770267E+03  0.7818608E-02  0.1171254E+00
         21   -1    0    0  503  502  0.00000000000E+00  0.00000000000E+00  0.14481015773E+04  0.14481015773E+04  0.00000000000E+00 0. -1.
         21   -1    0    0  501  503 -0.00000000000E+00 -0.00000000000E+00 -0.26423376099E+02  0.26423376099E+02  0.00000000000E+00 0. -1.
          6    2    1    2  501    0 -0.65023400321E+01  0.33402546904E+02  0.38504040738E+03  0.42288034469E+03  0.17150411087E+03 0.  0.
         24    2    3    3    0    0  0.55731444842E+01 -0.47040064987E+02  0.20820670144E+03  0.22817780056E+03  0.80444083007E+02 0.  0.
         -6    2    1    2    0  502  0.65023400321E+01 -0.33402546904E+02  0.10366377938E+04  0.10516446087E+04  0.17372523386E+03 0.  0.
        -24    2    5    5    0    0  0.44090256242E+02 -0.45789321234E+02  0.37164594902E+03  0.38545955388E+03  0.80110820864E+02 0.  0.
          5    1    3    3  501    0 -0.12075484516E+02  0.80442611891E+02  0.17683370593E+03  0.19470254412E+03  0.47000000000E+01 0. -1.
        -11    1    4    4    0    0 -0.13417658777E+02 -0.46332636445E+02  0.20274560850E+03  0.20840472291E+03  0.00000000000E+00 0.  1.
         12    1    4    4    0    0  0.18990803261E+02 -0.70742854176E+00  0.54610929442E+01  0.19773077651E+02  0.00000000000E+00 0. -1.
         -5    1    5    5    0  502 -0.37587916210E+02  0.12386774330E+02  0.66499184480E+03  0.66618505483E+03  0.47000000000E+01 0.  1.
         13    1    6    6    0    0  0.22142748649E+02 -0.10284604214E+02  0.31030470761E+03  0.31126369201E+03  0.00000000000E+00 0. -1.
        -14    1    6    6    0    0  0.21947507593E+02 -0.35504717020E+02  0.61341241410E+02  0.74195861866E+02  0.00000000000E+00 0.  1.
</event>
<event>
12    1  0.8133506E-002  0.3155894E+03  0.7818608E-02  0.1077719E+00
         21   -1    0    0  501  502  0.00000000000E+00  0.00000000000E+00  0.28493167821E+03  0.28493167821E+03  0.00000000000E+00 0.  1.
         21   -1    0    0  502  503 -0.00000000000E+00 -0.00000000000E+00 -0.46001649482E+03  0.46001649482E+03  0.00000000000E+00 0.  1.
         -6    2    1    2    0  503  0.23402524688E+03  0.12402693518E+03 -0.27022425647E+03  0.41532997163E+03  0.17125226924E+03 0.  0.
        -24    2    3    3    0    0  0.24280391834E+03  0.12895985411E+03 -0.21191038447E+03  0.35596671338E+03  0.78879041920E+02 0.  0.
          6    2    1    2  501    0 -0.23402524688E+03 -0.12402693518E+03  0.95139439856E+02  0.32961820140E+03  0.17159880202E+03 0.  0.
         24    2    5    5    0    0 -0.13032511214E+03 -0.13973273780E+03  0.67523298450E+02  0.22105885612E+03  0.88304864919E+02 0.  0.
          5    1    5    5  501    0 -0.10370013474E+03  0.15705802627E+02  0.27616141406E+02  0.10855934528E+03  0.47000000000E+01 0. -1.
        -11    1    6    6    0    0 -0.13742491232E+03 -0.99565702117E+02  0.54098831942E+02  0.17811686945E+03  0.00000000000E+00 0.  1.
         12    1    6    6    0    0  0.70998001836E+01 -0.40167035685E+02  0.13424466507E+02  0.42941986672E+02  0.00000000000E+00 0. -1.
         -5    1    3    3    0  503 -0.87786714585E+01 -0.49329189362E+01 -0.58313872003E+02  0.59363258247E+02  0.47000000000E+01 0.  1.
         13    1    4    4    0    0  0.53897155844E+02 -0.23416499727E+00 -0.63078165601E+02  0.82968748435E+02  0.00000000000E+00 0. -1.
        -14    1    4    4    0    0  0.18890676249E+03  0.12919401911E+03 -0.14883221887E+03  0.27299796494E+03  0.00000000000E+00 0.  1.
</event>
<event>
12    1  0.8133506E-002  0.1736633E+03  0.7818608E-02  0.1175797E+00
         21   -1    0    0  503  502  0.00000000000E+00  0.00000000000E+00  0.17438881608E+03  0.17438881608E+03  0.00000000000E+00 0. -1.
         21   -1    0    0  501  503 -0.00000000000E+00 -0.00000000000E+00 -0.24676002104E+03  0.24676002104E+03  0.00000000000E+00 0. -1.
          6    2    1    2  501    0 -0.21909303587E+02  0.22576264582E+02 -0.15586081063E+03  0.22845882887E+03  0.16404614867E+03 0.  0.
         24    2    3    3    0    0 -0.43251326802E+02 -0.32586758770E+02 -0.14386819388E+03  0.16792492137E+03  0.67588075065E+02 0.  0.
         -6    2    1    2    0  502  0.21909303587E+02 -0.22576264582E+02  0.83489605667E+02  0.19269000825E+03  0.17078998717E+03 0.  0.
        -24    2    5    5    0    0 -0.20393785356E+02 -0.59197820815E+02  0.98449630370E+01  0.10008162254E+03  0.77453982487E+02 0.  0.
          5    1    3    3  501    0  0.21342023215E+02  0.55163023352E+02 -0.11992616748E+02  0.60533907496E+02  0.47000000000E+01 0. -1.
        -13    1    4    4    0    0 -0.36027073438E+02  0.73909419175E+01 -0.10670746628E+03  0.11286744173E+03  0.00000000000E+00 0.  1.
         14    1    4    4    0    0 -0.72242533635E+01 -0.39977700688E+02 -0.37160727600E+02  0.55057479643E+02  0.00000000000E+00 0. -1.
         -5    1    5    5    0  502  0.42303088943E+02  0.36621556233E+02  0.73644642630E+02  0.92608385706E+02  0.47000000000E+01 0.  1.
         11    1    6    6    0    0 -0.33115857213E+02  0.53888157302E+01  0.64547077041E+01  0.34166688243E+02  0.00000000000E+00 0. -1.
        -12    1    6    6    0    0  0.12722071857E+02 -0.64586636545E+02  0.33902553330E+01  0.65914934300E+02  0.00000000000E+00 0.  1.
</event>
<event>
12    1  0.8133506E-002  0.2924370E+03  0.7818608E-02  0.1090455E+00
         21   -1    0    0  503  502  0.00000000000E+00  0.00000000000E+00  0.25464373808E+03  0.25464373808E+03  0.00000000000E+00 0. -1.
         21   -1    0    0  501  503 -0.00000000000E+00 -0.00000000000E+00 -0.68987528050E+03  0.68987528050E+03  0.00000000000E+00 0.  1.
          6    2    1    2  501    0  0.14031797029E+03 -0.17222782641E+03 -0.55966798566E+03  0.62670805697E+03  0.17373306399E+03 0.  0.
         24    2    3    3    0    0  0.72930981812E+02 -0.14606775695E+03 -0.50430998877E+03  0.53553814269E+03  0.76274633895E+02 0.  0.
         -6    2    1    2    0  502 -0.14031797029E+03  0.17222782641E+03  0.12443644324E+03  0.31781096161E+03  0.19017839503E+03 0.  0.
        -24    2    5    5    0    0 -0.15247422179E+03  0.19727133987E+03  0.10288443497E+03  0.28229292285E+03  0.83304966778E+02 0.  0.
          5    1    3    3  501    0  0.67386988479E+02 -0.26160069456E+02 -0.55357996896E+02  0.91169914284E+02  0.47000000000E+01 0. -1.
        -13    1    4    4    0    0 -0.70898615632E+01 -0.55972968331E+02 -0.21165619013E+03  0.21904698615E+03  0.00000000000E+00 0.  1.
         14    1    4    4    0    0  0.80020843375E+02 -0.90094788623E+02 -0.29265379863E+03  0.31649115653E+03  0.00000000000E+00 0. -1.
         -5    1    5    5    0  502  0.12156251501E+02 -0.25043513457E+02  0.21552008270E+02  0.35518038759E+02  0.47000000000E+01 0.  1.
         11    1    6    6    0    0 -0.15175459467E+03  0.14518467420E+03  0.90863312243E+02  0.22883222705E+03  0.00000000000E+00 0. -1.
        -12    1    6    6    0    0 -0.71962711831E+00  0.52086665669E+02  0.12021122724E+02  0.53460695799E+02  0.00000000000E+00 0.  1.
</event>
<event>
12    1  0.8133506E-002  0.2305652E+03  0.7818608E-02  0.1126329E+00
         21   -1    0    0  501  502  0.00000000000E+00  0.00000000000E+00  0.15694796093E+03  0.15694796093E+03  0.00000000000E+00 0.  1.
         21   -1    0    0  502  503 -0.00000000000E+00 -0.00000000000E+00 -0.34655496790E+03  0.34655496790E+03  0.00000000000E+00 0. -1.
         -6    2    1    2    0  503 -0.64761424709E+01 -0.15319531743E+03 -0.13448502496E+03  0.26692048116E+03  0.17219052127E+03 0.  0.
        -24    2    3    3    0    0  0.31037541153E+02 -0.28011330810E+02 -0.17051385589E+02  0.91161963231E+02  0.79194634762E+02 0.  0.
          6    2    1    2  501    0  0.64761424709E+01  0.15319531743E+03 -0.55121982002E+02  0.23658244768E+03  0.17152864468E+03 0.  0.
         24    2    5    5    0    0  0.24628176042E+02  0.10108501956E+03  0.29688642138E+02  0.13529122676E+03  0.81225441411E+02 0.  0.
          5    1    5    5  501    0 -0.18152033571E+02  0.52110297874E+02 -0.84810624141E+02  0.10129122091E+03  0.47000000000E+01 0. -1.
        -11    1    6    6    0    0  0.40070971526E+02  0.39425717860E+02 -0.14282843577E+02  0.58000600070E+02  0.00000000000E+00 0.  1.
         12    1    6    6    0    0 -0.15442795484E+02  0.61659301699E+02  0.43971485716E+02  0.77290626692E+02  0.00000000000E+00 0. -1.
         -5    1    3    3    0  503 -0.37513683624E+02 -0.12518398662E+03 -0.11743363937E+03  0.17575851792E+03  0.47000000000E+01 0.  1.
         11    1    4    4    0    0  0.11841835057E+02 -0.25714870436E+02 -0.47381143406E+02  0.55194713239E+02  0.00000000000E+00 0. -1.
        -12    1    4    4    0    0  0.19195706096E+02 -0.22964603735E+01  0.30329757817E+02  0.35967249992E+02  0.00000000000E+00 0.  1.
</event>
<event>
12    1  0.8133506E-002  0.1789083E+03  0.7818608E-02  0.1169519E+00
         21   -1    0    0  503  502  0.00000000000E+00  0.00000000000E+00  0.39824194817E+03  0.39824194817E+03  0.00000000000E+00 0.  1.
         21   -1    0    0  501  503 -0.00000000000E+00 -0.00000000000E+00 -0.91112148256E+02  0.91112148256E+02  0.00000000000E+00 0.  1.
          6    2    1    2  501    0 -0.40181078926E+02 -0.11911245402E+01  0.64024633065E+02  0.18751260516E+03  0.17159803488E+03 0.  0.
         24    2    3    3    0    0  0.26209368131E+02 -0.23135937163E+02 -0.72879221157E+01  0.87528422470E+02  0.79911878749E+02 0.  0.
         -6    2    1    2    0  502  0.40181078926E+02  0.11911245402E+01  0.24310516685E+03  0.30184149127E+03  0.17433366233E+03 0.  0.
        -24    2    5    5    0    0 -0.62452483662E+01 -0.43304206924E+02  0.21191332590E+03  0.23021566262E+03  0.78598576052E+02 0.  0.
          5    1    3    3  501    0 -0.66390447057E+02  0.21944812623E+02  0.71312555181E+02  0.99984182689E+02  0.47000000000E+01 0. -1.
        -11    1    4    4    0    0 -0.14615021346E+02 -0.18005258836E+02 -0.32009580684E+02  0.39527224166E+02  0.00000000000E+00 0.  1.
         12    1    4    4    0    0  0.40824389477E+02 -0.51306783275E+01  0.24721658568E+02  0.48001198304E+02  0.00000000000E+00 0. -1.
         -5    1    5    5    0  502  0.46426327293E+02  0.44495331465E+02  0.31191840957E+02  0.71625828654E+02  0.47000000000E+01 0.  1.
         13    1    6    6    0    0 -0.22133280434E+02  0.13670903183E+02  0.34546762630E+02  0.43246439215E+02  0.00000000000E+00 0. -1.
        -14    1    6    6    0    0  0.15888032067E+02 -0.56975110107E+02  0.17736656327E+03  0.18696922340E+03  0.00000000000E+00 0.  1.
</event>
<event>
12    1  0.8133506E-002  0.2252217E+03  0.7818608E-02  0.1131210E+00
         21   -1    0    0  503  502  0.00000000000E+00  0.00000000000E+00  0.32185002488E+03  0.32185002488E+03  0.00000000000E+00 0. -1.
         21   -1    0    0  501  503 -0.00000000000E+00 -0.00000000000E+00 -0.17866174585E+03  0.17866174585E+03  0.00000000000E+00 0. -1.
          6    2    1    2  501    0 -0.11318158110E+03  0.71918268544E+02  0.16691819149E+03  0.28033282526E+03  0.18094889505E+03 0.  0.
         24    2    3    3    0    0 -0.14114331369E+03  0.72109896252E+02  0.90073939208E+02  0.19842419129E+03  0.78342664148E+02 0.  0.
         -6    2    1    2    0  502  0.11318158110E+03 -0.71918268544E+02 -0.23729912464E+02  0.22017894546E+03  0.17301257651E+03 0.  0.
        -24    2    5    5    0    0  0.69825275850E+02 -0.37537859806E+02 -0.82491128779E+02  0.13932876147E+03  0.79517654504E+02 0.  0.
          5    1    3    3  501    0  0.27961732596E+02 -0.19162770742E+00  0.76844252284E+02  0.81908633977E+02  0.47000000000E+01 0. -1.
        -11    1    4    4    0    0 -0.10785232939E+03  0.16405965302E+02  0.39043490825E+02  0.11586921432E+03  0.00000000000E+00 0.  1.
         12    1    4    4    0    0 -0.33290984303E+02  0.55703930950E+02  0.51030448383E+02  0.82554976963E+02  0.00000000000E+00 0. -1.
         -5    1    5    5    0  502  0.43356305246E+02 -0.34380408738E+02  0.58761216316E+02  0.80850183998E+02  0.47000000000E+01 0.  1.
         13    1    6    6    0    0  0.56508826957E+02  0.69878012745E+00 -0.81058831309E+02  0.98814320576E+02  0.00000000000E+00 0. -1.
        -14    1    6    6    0    0  0.13316448893E+02 -0.38236639933E+02 -0.14322974702E+01  0.40514440889E+02  0.00000000000E+00 0.  1.
</event>
<event>
12    1  0.8133506E-002  0.2076292E+03  0.7818608E-02  0.1143484E+00
         21   -1    0    0  503  502  0.00000000000E+00  0.00000000000E+00  0.29248774251E+03  0.29248774251E+03  0.00000000000E+00 0. -1.
         21   -1    0    0  501  503 -0.00000000000E+00 -0.00000000000E+00 -0.18916473292E+03  0.18916473292E+03  0.00000000000E+00 0. -1.
          6    2    1    2  501    0  0.46447441057E+02  0.10656894662E+03 -0.61648915292E+02  0.21646269719E+03  0.17187555193E+03 0.  0.
         24    2    3    3    0    0  0.86302528967E+02  0.11631698097E+03 -0.43099678803E+02  0.17119000807E+03  0.80440474764E+02 0.  0.
         -6    2    1    2    0  502 -0.46447441057E+02 -0.10656894662E+03  0.16497192488E+03  0.26518977824E+03  0.17203365171E+03 0.  0.
        -24    2    5    5    0    0 -0.44432493417E+02 -0.13721935721E+03  0.16726966331E+03  0.23403087446E+03  0.77381596473E+02 0.  0.
          5    1    3    3  501    0 -0.39855087910E+02 -0.97480343489E+01 -0.18549236489E+02  0.45272689122E+02  0.47000000000E+01 0. -1.
        -13    1    4    4    0    0  0.65808129613E+01  0.67637463957E+02  0.84077524939E+00  0.67962052152E+02  0.00000000000E+00 0.  1.
         14    1    4    4    0    0  0.79721716006E+02  0.48679517014E+02 -0.43940454053E+02  0.10322795591E+03  0.00000000000E+00 0. -1.
         -5    1    5    5    0  502 -0.20149476400E+01  0.30650410586E+02 -0.22977384281E+01  0.31158903783E+02  0.47000000000E+01 0.  1.
         11    1    6    6    0    0  0.13855502570E+02 -0.35104867210E+02  0.77154823451E+02  0.85890589910E+02  0.00000000000E+00 0. -1.
        -12    1    6    6    0    0 -0.58287995987E+02 -0.10211449000E+03  0.90114839861E+02  0.14814028455E+03  0.00000000000E+00 0.  1.
</event>
<event>
12    1  0.8133506E-002  0.1783628E+03  0.7818608E-02  0.1169447E+00
         21   -1    0    0  503  502  0.00000000000E+00  0.00000000000E+00  0.97797475706E+02  0.97797475706E+02  0.00000000000E+00 0.  1.
         21   -1    0    0  501  503 -0.00000000000E+00 -0.00000000000E+00 -0.10120605649E+04  0.10120605649E+04  0.00000000000E+00 0.  1.
          6    2    1    2  501    0 -0.40313606115E+02 -0.21470361621E+02 -0.91446617399E+03  0.93169827547E+03  0.17241557318E+03 0.  0.
         24    2    3    3    0    0 -0.29270144034E+02 -0.66658018329E+02 -0.35524028060E+03  0.37052132280E+03  0.76094421260E+02 0.  0.
         -6    2    1    2    0  502  0.40313606115E+02  0.21470361621E+02  0.20308479320E+00  0.17815976514E+03  0.17220539308E+03 0.  0.
        -24    2    5    5    0    0  0.75215269499E+02  0.55233713396E+02 -0.20435325571E+02  0.12518690405E+03  0.80907716271E+02 0.  0.
          5    1    3    3  501    0 -0.11043462081E+02  0.45187656708E+02 -0.55922589339E+03  0.56117695268E+03  0.47000000000E+01 0. -1.
        -11    1    4    4    0    0 -0.38308454140E+02 -0.68814181556E+02 -0.35196470516E+03  0.36066893812E+03  0.00000000000E+00 0.  1.
         12    1    4    4    0    0  0.90383101059E+01  0.21561632274E+01 -0.32755754367E+01  0.98523846796E+01  0.00000000000E+00 0. -1.
         -5    1    5    5    0  502 -0.34901663384E+02 -0.33763351775E+02  0.20638410364E+02  0.52972861093E+02  0.47000000000E+01 0.  1.
         13    1    6    6    0    0  0.91073322480E+02  0.45546534659E+02 -0.66410012292E+01  0.10204381306E+03  0.00000000000E+00 0. -1.
        -14    1    6    6    0    0 -0.15858052981E+02  0.96871787375E+01 -0.13794324341E+02  0.23143090984E+02  0.00000000000E+00 0.  1.
</event>
<event>
12    1  0.8133506E-002  0.2579969E+03  0.7818608E-02  0.1108371E+00
         21   -1    0    0  503  502  0.00000000000E+00  0.00000000000E+00  0.35323049334E+03  0.35323049334E+03  0.00000000000E+00 0. -1.
         21   -1    0    0  501  503 -0.00000000000E+00 -0.00000000000E+00 -0.28903510885E+03  0.28903510885E+03  0.00000000000E+00 0. -1.
          6    2    1    2  501    0  0.17746961829E+03  0.73382232104E+02 -0.15744112497E+03  0.30214040703E+03  0.17210665392E+03 0.  0.
         24    2    3    3    0    0  0.23940708599E+02  0.36564344392E+02 -0.19307193427E+02  0.92307721275E+02  0.78979990377E+02 0.  0.
         -6    2    1    2    0  502 -0.17746961829E+03 -0.73382232104E+02  0.22163650945E+03  0.34012519516E+03  0.17228461527E+03 0.  0.
        -24    2    5    5    0    0 -0.33360937220E+02  0.14192386201E+02  0.10064540527E+03  0.13252566958E+03  0.78225184802E+02 0.  0.
          5    1    3    3  501    0  0.15352890969E+03  0.36817887712E+02 -0.13813393154E+03  0.20983268575E+03  0.47000000000E+01 0. -1.
        -11    1    4    4    0    0  0.15497856452E+02  0.61766283627E+02 -0.13115284947E+02  0.65017444174E+02  0.00000000000E+00 0.  1.
         12    1    4    4    0    0  0.84428521472E+01 -0.25201939235E+02 -0.61919084796E+01  0.27290277100E+02  0.00000000000E+00 0. -1.
         -5    1    5    5    0  502 -0.14410868107E+03 -0.87574618305E+02  0.12099110418E+03  0.20759952558E+03  0.47000000000E+01 0.  1.
         13    1    6    6    0    0 -0.47385087192E+02 -0.82048493201E+01  0.93513826470E+02  0.10515465649E+03  0.00000000000E+00 0. -1.
        -14    1    6    6    0    0  0.14024149972E+02  0.22397235522E+02  0.71315788033E+01  0.27371013092E+02  0.00000000000E+00 0.  1.
</event>
<event>
12    1  0.8133506E-002  0.2134561E+03  0.7818608E-02  0.1139221E+00
         21   -1    0    0  503  502  0.00000000000E+00  0.00000000000E+00  0.10664738581E+03  0.10664738581E+03  0.00000000000E+00 0. -1.
         21   -1    0    0  501  503 -0.00000000000E+00 -0.00000000000E+00 -0.72426955632E+03  0.72426955632E+03  0.00000000000E+00 0. -1.
          6    2    1    2  501    0 -0.27900583760E+02  0.11910419129E+03 -0.57574158335E+03  0.61339109745E+03  0.17264419098E+03 0.  0.
         24    2    3    3    0    0 -0.45751139684E+02  0.16514859420E+02 -0.37698262231E+03  0.38895752610E+03  0.82499407365E+02 0.  0.
         -6    2    1    2    0  502  0.27900583760E+02 -0.11910419129E+03 -0.41880587157E+02  0.21752584468E+03  0.17492643758E+03 0.  0.
        -24    2    5    5    0    0 -0.51761909364E+02 -0.67560712745E+02 -0.15397183190E+02  0.11890382038E+03  0.81592279551E+02 0.  0.
          5    1    3    3  501    0  0.17850555924E+02  0.10258933187E+03 -0.19875896104E+03  0.22443357136E+03  0.47000000000E+01 0. -1.
        -11    1    4    4    0    0  0.22725359455E+02  0.13701308712E+02 -0.12753727934E+03  0.13026866640E+03  0.00000000000E+00 0.  1.
         12    1    4    4    0    0 -0.68476499139E+02  0.28135507073E+01 -0.24944534297E+03  0.25868885970E+03  0.00000000000E+00 0. -1.
         -5    1    5    5    0  502  0.79662493124E+02 -0.51543478547E+02 -0.26483403967E+02  0.98622024301E+02  0.47000000000E+01 0.  1.
         11    1    6    6    0    0  0.10292761559E+02 -0.44369070495E+02 -0.25011898772E+02  0.51962971791E+02  0.00000000000E+00 0. -1.
        -12    1    6    6    0    0 -0.62054670923E+02 -0.23191642250E+02  0.96147155823E+01  0.66940848586E+02  0.00000000000E+00 0.  1.
</event>
<event>
12    1  0.8133506E-002  0.1820163E+03  0.7818608E-02  0.1166299E+00
         21   -1    0    0  503  502  0.00000000000E+00  0.00000000000E+00  0.17763410040E+03  0.17763410040E+03  0.00000000000E+00 0. -1.
         21   -1    0    0  501  503 -0.00000000000E+00 -0.00000000000E+00 -0.24350929253E+03  0.24350929253E+03  0.00000000000E+00 0. -1.
          6    2    1    2  501    0 -0.33448581797E+01  0.58014002040E+02 -0.13633040650E+03  0.22596685286E+03  0.17058202234E+03 0.  0.
         24    2    3    3    0    0 -0.68072689488E+02  0.43227203919E+02 -0.89364978539E+02  0.14450408242E+03  0.79955288970E+02 0.  0.
         -6    2    1    2    0  502  0.33448581797E+01 -0.58014002040E+02  0.70455214376E+02  0.19517654007E+03  0.17249096223E+03 0.  0.
        -24    2    5    5    0    0 -0.90663780560E+00  0.23227063537E+02  0.77621788255E+02  0.11337412118E+03  0.79298366118E+02 0.  0.
          5    1    3    3  501    0  0.64727831308E+02  0.14786798121E+02 -0.46965427961E+02  0.81462770442E+02  0.47000000000E+01 0. -1.
        -11    1    4    4    0    0 -0.58352476666E+02  0.70908729518E+01 -0.89506859015E+02  0.10708300436E+03  0.00000000000E+00 0.  1.
         12    1    4    4    0    0 -0.97202128217E+01  0.36136330967E+02  0.14188047608E+00  0.37421078060E+02  0.00000000000E+00 0. -1.
         -5    1    5    5    0  502  0.42514959853E+01 -0.81241065577E+02 -0.71665738793E+01  0.81802418884E+02  0.47000000000E+01 0.  1.
         11    1    6    6    0    0 -0.33086843096E+02 -0.11353556110E+02  0.38707372285E+02  0.52171861109E+02  0.00000000000E+00 0. -1.
        -12    1    6    6    0    0  0.32180205290E+02  0.34580619647E+02  0.38914415970E+02  0.61202260072E+02  0.00000000000E+00 0.  1.
</event>
<event>
12    1  0.8133506E-002  0.1929170E+03  0.7818608E-02  0.1155877E+00
         21   -1    0    0  503  502  0.00000000000E+00  0.00000000000E+00  0.13082605696E+04  0.13082605696E+04  0.00000000000E+00 0.  1.
         21   -1    0    0  501  503 -0.00000000000E+00 -0.00000000000E+00 -0.74484934785E+02  0.74484934785E+02  0.00000000000E+00 0.  1.
          6    2    1    2  501    0 -0.15593643245E+02  0.84899969136E+02  0.73209422436E+02  0.20625457595E+03  0.17242437211E+03 0.  0.
         24    2    3    3    0    0  0.22463597047E+02  0.10048931220E+03  0.93077718560E+01  0.13011725197E+03  0.79000946726E+02 0.  0.
         -6    2    1    2    0  502  0.15593643245E+02 -0.84899969136E+02  0.11605662124E+04  0.11764909284E+04  0.17252769315E+03 0.  0.
        -24    2    5    5    0    0 -0.10174183700E+01 -0.86200585006E+02  0.11499372079E+04  0.11561762858E+04  0.83405309934E+02 0.  0.
          5    1    3    3  501    0 -0.38057240292E+02 -0.15589343068E+02  0.63901650580E+02  0.76137323980E+02  0.47000000000E+01 0. -1.
        -13    1    4    4    0    0  0.20420237067E+02  0.47527740010E+02 -0.33805524558E+02  0.61795514748E+02  0.00000000000E+00 0.  1.
         14    1    4    4    0    0  0.20433599796E+01  0.52961572195E+02  0.43113296414E+02  0.68321737222E+02  0.00000000000E+00 0. -1.
         -5    1    5    5    0  502  0.16611061615E+02  0.13006158700E+01  0.10629004492E+02  0.20314642653E+02  0.47000000000E+01 0.  1.
         11    1    6    6    0    0 -0.27837820489E+02 -0.33564731685E+02  0.21516918373E+03  0.21954341960E+03  0.00000000000E+00 0. -1.
        -12    1    6    6    0    0  0.26820402119E+02 -0.52635853321E+02  0.93476802417E+03  0.93663286619E+03  0.00000000000E+00 0.  1.
</event>
<event>
12    1  0.8133506E-002  0.2397176E+03  0.7818608E-02  0.1120011E+00
         21   -1    0    0  503  502  0.00000000000E+00  0.00000000000E+00  0.36263147049E+02  0.36263147049E+02  0.00000000000E+00 0.  1.
         21   -1    0    0  501  503 -0.00000000000E+00 -0.00000000000E+00 -0.18540872522E+04  0.18540872522E+04  0.00000000000E+00 0.  1.
          6    2    1    2  501    0 -0.10216522909E+03  0.13241860880E+03 -0.54754026210E+03  0.59764564236E+03  0.17148630622E+03 0.  0.
         24    2    3    3    0    0 -0.95389988020E+02  0.62115784989E+02 -0.20421415586E+03  0.24709850408E+03  0.79978926648E+02 0.  0.
         -6    2    1    2    0  502  0.10216522909E+03 -0.13241860880E+03 -0.12702838431E+04  0.12927047569E+04  0.17173271260E+03 0.  0.
        -24    2    5    5    0    0 -0.11814799982E+02 -0.71341530974E+02 -0.48772914880E+03  0.49952394777E+03  0.80095244961E+02 0.  0.
          5    1    3    3  501    0 -0.67752410670E+01  0.70302823809E+02 -0.34332610625E+03  0.35054713828E+03  0.47000000000E+01 0. -1.
        -13    1    4    4    0    0 -0.21359058894E+02 -0.18312198179E+02 -0.58753967223E+02  0.65142725330E+02  0.00000000000E+00 0.  1.
         14    1    4    4    0    0 -0.74030929125E+02  0.80427983168E+02 -0.14546018863E+03  0.18195577875E+03  0.00000000000E+00 0. -1.
         -5    1    5    5    0  502  0.11398002907E+03 -0.61077077824E+02 -0.78255469425E+03  0.79318080912E+03  0.47000000000E+01 0.  1.
         11    1    6    6    0    0 -0.19273936726E+02  0.94802982183E+01 -0.51360062033E+02  0.55670608613E+02  0.00000000000E+00 0. -1.
        -12    1    6    6    0    0  0.74591367439E+01 -0.80821829192E+02 -0.43636908676E+03  0.44385333916E+03  0.00000000000E+00 0.  1.
</event>
<event>
12    1  0.8133506E-002  0.1781354E+03  0.7818608E-02  0.1170250E+00
         21   -1    0    0  501  502  0.00000000000E+00  0.00000000000E+00  0.33495271494E+03  0.33495271494E+03  0.00000000000E+00 0.  1.
         21   -1    0    0  502  503 -0.00000000000E+00 -0.00000000000E+00 -0.37798955651E+03  0.37798955651E+03  0.00000000000E+00 0.  1.
         -6    2    1    2    0  503  0.27825345723E+02 -0.34741964626E+02 -0.33079606770E+03  0.37450823662E+03  0.16985030737E+03 0.  0.
        -24    2    3    3    0    0  0.21354933902E+02 -0.62264386811E+02 -0.90262094633E+02  0.13227274757E+03  0.70823350354E+02 0.  0.
          6    2    1    2  501    0 -0.27825345723E+02  0.34741964626E+02  0.28775922613E+03  0.33843403483E+03  0.17248469420E+03 0.  0.
         24    2    5    5    0    0  0.29182261037E+02 -0.35091037104E+02  0.16359185442E+03  0.18492135927E+03  0.73147994075E+02 0.  0.
          5    1    5    5  501    0 -0.57007606760E+02  0.69833001730E+02  0.12416737171E+03  0.15351267556E+03  0.47000000000E+01 0. -1.
        -11    1    6    6    0    0 -0.45172186520E+01  0.50671465940E+01  0.10908169009E+03  0.10929270951E+03  0.00000000000E+00 0.  1.
         12    1    6    6    0    0  0.33699479689E+02 -0.40158183698E+02  0.54510164331E+02  0.75628649761E+02  0.00000000000E+00 0. -1.
         -5    1    3    3    0  503  0.64704118216E+01  0.27522422185E+02 -0.24053397307E+03  0.24223548905E+03  0.47000000000E+01 0.  1.
         11    1    4    4    0    0  0.69811236725E+01 -0.43584203389E+02 -0.57228585085E+01  0.44509212331E+02  0.00000000000E+00 0. -1.
        -12    1    4    4    0    0  0.14373810229E+02 -0.18680183422E+02 -0.84539236125E+02  0.87763535239E+02  0.00000000000E+00 0.  1.
</event>
<event>
12    1  0.8133506E-002  0.2285833E+03  0.7818608E-02  0.1127710E+00
         21   -1    0    0  501  502  0.00000000000E+00  0.00000000000E+00  0.17027952263E+03  0.17027952263E+03  0.00000000000E+00 0. -1.
         21   -1    0    0  502  503 -0.00000000000E+00 -0.00000000000E+00 -0.39966748171E+03  0.39966748171E+03  0.00000000000E+00 0. -1.
         -6    2    1    2    0  503  0.12285950695E+03  0.87694349182E+02 -0.25233716180E+03  0.34021458813E+03  0.17113493339E+03 0.  0.
        -24    2    3    3    0    0  0.19580550834E+02  0.50109962115E+01 -0.38799360056E+02  0.88970558537E+02  0.77471684451E+02 0.  0.
          6    2    1    2  501    0 -0.12285950695E+03 -0.87694349182E+02  0.22949202723E+02  0.22973241620E+03  0.17165535186E+03 0.  0.
         24    2    5    5    0    0 -0.71217305231E+02 -0.93846911085E+02  0.70634987464E+02  0.15901611622E+03  0.80110401818E+02 0.  0.
          5    1    5    5  501    0 -0.51642201718E+02  0.61525619036E+01 -0.47685784741E+02  0.70716299978E+02  0.47000000000E+01 0. -1.
        -11    1    6    6    0    0 -0.46635802805E+02 -0.16994188123E+01  0.17477622661E+02  0.49832252823E+02  0.00000000000E+00 0.  1.
         12    1    6    6    0    0 -0.24581502426E+02 -0.92147492273E+02  0.53157364804E+02  0.10918386340E+03  0.00000000000E+00 0. -1.
         -5    1    3    3    0  503  0.10327895612E+03  0.82683352970E+02 -0.21353780174E+03  0.25124402960E+03  0.47000000000E+01 0.  1.
         13    1    4    4    0    0  0.17901947829E+02 -0.50618538953E+01  0.21144178127E+02  0.28163422548E+02  0.00000000000E+00 0. -1.
        -14    1    4    4    0    0  0.16786030050E+01  0.10072850107E+02 -0.59943538183E+02  0.60807135990E+02  0.00000000000E+00 0.  1.
</event>
<event>
12    1  0.8133506E-002  0.1879522E+03  0.7818608E-02  0.1160376E+00
         21   -1    0    0  501  502  0.00000000000E+00  0.00000000000E+00  0.25480585275E+03  0.25480585275E+03  0.00000000000E+00 0.  1.
         21   -1    0    0  502  503 -0.00000000000E+00 -0.00000000000E+00 -0.22821992514E+03  0.22821992514E+03  0.00000000000E+00 0.  1.
         -6    2    1    2    0  503 -0.76578467651E+02 -0.61708424748E+01 -0.13816154136E+03  0.23326947740E+03  0.17153336869E+03 0.  0.
        -24    2    3    3    0    0 -0.99277859440E+02  0.40771428273E+02 -0.73211299928E+02  0.14984608121E+03  0.74669611479E+02 0.  0.
          6    2    1    2  501    0  0.76578467651E+02  0.61708424748E+01  0.16474746897E+03  0.24975630049E+03  0.17127212295E+03 0.  0.
         24    2    5    5    0    0  0.36404553840E+02 -0.60729568089E+01  0.96498897147E+01  0.89004308087E+02  0.80414390142E+02 0.  0.
          5    1    5    5  501    0  0.40173913811E+02  0.12243799284E+02  0.15509757925E+03  0.16075199240E+03  0.47000000000E+01 0. -1.
        -11    1    6    6    0    0 -0.68152770626E+00  0.90547021969E+00  0.40344458529E+02  0.40360372772E+02  0.00000000000E+00 0.  1.
         12    1    6    6    0    0  0.37086081546E+02 -0.69784270286E+01 -0.30694568814E+02  0.48643935315E+02  0.00000000000E+00 0. -1.
         -5    1    3    3    0  503  0.22699391789E+02 -0.46942270748E+02 -0.64950241429E+02  0.83423396192E+02  0.47000000000E+01 0.  1.
         13    1    4    4    0    0  0.91664791910E+01 -0.64780051417E+01 -0.10295539098E+01  0.11271595833E+02  0.00000000000E+00 0. -1.
        -14    1    4    4    0    0 -0.10844433863E+03  0.47249433415E+02 -0.72181746018E+02  0.13857448538E+03  0.00000000000E+00 0.  1.
</event>
<event>
12    1  0.8133506E-002  0.3106428E+03  0.7818608E-02  0.1080049E+00
         21   -1    0    0  501  502  0.00000000000E+00  0.00000000000E+00  0.36607991668E+03  0.36607991668E+03  0.00000000000E+00 0.  1.
         21   -1    0    0  502  503 -0.00000000000E+00 -0.00000000000E+00 -0.42450107823E+03  0.42450107823E+03  0.00000000000E+00 0.  1.
         -6    2    1    2    0  503 -0.21957278121E+03 -0.13505111101E+03 -0.27263198745E+03  0.41331238473E+03  0.17334335279E+03 0.  0.
        -24    2    3    3    0    0 -0.88416852737E+02  0.10076709900E+01 -0.88642969878E+02  0.14951716430E+03  0.81726685135E+02 0.  0.
          6    2    1    2  501    0  0.21957278121E+03  0.13505111101E+03  0.21421082590E+03  0.37726861019E+03  0.17318867593E+03 0.  0.
         24    2    5    5    0    0  0.18498617588E+03  0.14444577514E+03  0.22969159991E+03  0.33794638560E+03  0.79781333958E+02 0.  0.
          5    1    5    5  501    0  0.34586605327E+02 -0.93946641382E+01 -0.15480774013E+02  0.39322224586E+02  0.47000000000E+01 0. -1.
        -13    1    6    6    0    0  0.91312373817E+02  0.64068453736E+02  0.55865516689E+02  0.12475444814E+03  0.00000000000E+00 0.  1.
         14    1    6    6    0    0  0.93673802064E+02  0.80377321408E+02  0.17382608322E+03  0.21319193746E+03  0.00000000000E+00 0. -1.
         -5    1    3    3    0  503 -0.13115592847E+03 -0.13605878200E+03 -0.18398901757E+03  0.26379522042E+03  0.47000000000E+01 0.  1.
         11    1    4    4    0    0  0.11811347635E+02 -0.78087534066E+01  0.17420451886E+01  0.14266018511E+02  0.00000000000E+00 0. -1.
        -12    1    4    4    0    0 -0.10022820037E+03  0.88164243966E+01 -0.90385015067E+02  0.13525114579E+03  0.00000000000E+00 0.  1.
</event>
<event>
12    1  0.8133506E-002  0.2555142E+03  0.7818608E-02  0.1109965E+00
         21   -1    0    0  501  502  0.00000000000E+00  0.00000000000E+00  0.15984482903E+04  0.15984482903E+04  0.00000000000E+00 0. -1.
         21   -1    0    0  502  503 -0.00000000000E+00 -0.00000000000E+00 -0.49345071539E+02  0.49345071539E+02  0.00000000000E+00 0.  1.
         -6    2    1    2    0  503 -0.62653788648E+01 -0.18854191672E+03  0.43136175136E+03  0.50135859662E+03  0.17233737998E+03 0.  0.
        -24    2    3    3    0    0  0.45894173989E+02 -0.47184726753E+02  0.14844746367E+03  0.18078870052E+03  0.79468428448E+02 0.  0.
          6    2    1    2  501    0  0.62653788648E+01  0.18854191672E+03  0.11177414674E+04  0.11464347653E+04  0.17140412370E+03 0.  0.
         24    2    5    5    0    0 -0.44318944144E+02  0.13127633966E+03  0.51994519813E+03  0.54375691628E+03  0.78300247613E+02 0.  0.
          5    1    5    5  501    0  0.50584323009E+02  0.57265577058E+02  0.59779626930E+03  0.60267784897E+03  0.47000000000E+01 0. -1.
        -11    1    6    6    0    0  0.71558794464E+00 -0.11999986000E+01  0.12060526205E+03  0.12061335455E+03  0.00000000000E+00 0.  1.
         12    1    6    6    0    0 -0.45034532088E+02  0.13247633826E+03  0.39933993609E+03  0.42314356173E+03  0.00000000000E+00 0. -1.
         -5    1    3    3    0  503 -0.52159552854E+02 -0.14135718997E+03  0.28291428769E+03  0.32056989610E+03  0.47000000000E+01 0.  1.
         11    1    4    4    0    0 -0.16780891465E+02 -0.26894827404E+02  0.78718237234E+02  0.84861598693E+02  0.00000000000E+00 0. -1.
        -12    1    4    4    0    0  0.62675065454E+02 -0.20289899349E+02  0.69729226438E+02  0.95927101827E+02  0.00000000000E+00 0.  1.
</event>
<event>
12    1  0.8133506E-002  0.1855887E+03  0.7818608E-02  0.1162586E+00
         21   -1    0    0  503  502  0.00000000000E+00  0.00000000000E+00  0.73604350095E+02  0.73604350095E+02  0.00000000000E+00 0.  1.
         21   -1    0    0  501  503 -0.00000000000E+00 -0.00000000000E+00 -0.10561168980E+04  0.10561168980E+04  0.00000000000E+00 0.  1.
          6    2    1    2  501    0  0.36246134363E+01  0.70647834214E+02 -0.91290868215E+03  0.93150957729E+03  0.17118287396E+03 0.  0.
         24    2    3    3    0    0  0.65443622058E+02  0.32826056189E+02 -0.61731056423E+03  0.62712098678E+03  0.82752532928E+02 0.  0.
         -6    2    1    2    0  502 -0.36246134363E+01 -0.70647834214E+02 -0.69603865755E+02  0.19821167081E+03  0.17157772004E+03 0.  0.
        -24    2    5    5    0    0  0.60112320536E+02 -0.26297125922E+02 -0.60397404347E+02  0.11987757216E+03  0.80110897787E+02 0.  0.
          5    1    3    3  501    0 -0.61819008621E+02  0.37821778025E+02 -0.29559811792E+03  0.30438859052E+03  0.47000000000E+01 0. -1.
        -11    1    4    4    0    0  0.55943461368E+02  0.59419432122E+02 -0.42734238774E+03  0.43506534698E+03  0.00000000000E+00 0.  1.
         12    1    4    4    0    0  0.95001606898E+01 -0.26593375933E+02 -0.18996817649E+03  0.19205563979E+03  0.00000000000E+00 0. -1.
         -5    1    5    5    0  502 -0.63736933973E+02 -0.44350708292E+02 -0.92064614089E+01  0.78334098641E+02  0.47000000000E+01 0.  1.
         13    1    6    6    0    0  0.95561209072E+01  0.89145573676E+01 -0.56667340912E+02  0.58154761679E+02  0.00000000000E+00 0. -1.
        -14    1    6    6    0    0  0.50556199629E+02 -0.35211683289E+02 -0.37300634342E+01  0.61722810485E+02  0.00000000000E+00 0.  1.
</event>
<event>
12    1  0.8133506E-002  0.1728260E+03  0.7818608E-02  0.1175009E+00
         21   -1    0    0  501  502  0.00000000000E+00  0.00000000000E+00  0.32582203323E+03  0.32582203323E+03  0.00000000000E+00 0. -1.
         21   -1    0    0  502  503 -0.00000000000E+00 -0.00000000000E+00 -0.12029609949E+03  0.12029609949E+03  0.00000000000E+00 0. -1.
         -6    2    1    2    0  503  0.13913363122E+02 -0.42521569197E+01 -0.62787012204E+01  0.17294000952E+03  0.17221254976E+03 0.  0.
        -24    2    3    3    0    0  0.38596688704E+01 -0.68618755565E+02 -0.14805629899E+02  0.10706942199E+03  0.80754094569E+02 0.  0.
          6    2    1    2  501    0 -0.13913363122E+02  0.42521569197E+01  0.21180463496E+03  0.27317812320E+03  0.17191108484E+03 0.  0.
         24    2    5    5    0    0  0.57280791403E+02 -0.10374345462E+02  0.10648172376E+03  0.14512521291E+03  0.79588025601E+02 0.  0.
          5    1    5    5  501    0 -0.71194154525E+02  0.14626502382E+02  0.10532291120E+03  0.12805291029E+03  0.47000000000E+01 0. -1.
        -13    1    6    6    0    0  0.41006365500E+02  0.32751943160E+02  0.54910577298E+02  0.75956456549E+02  0.00000000000E+00 0.  1.
         14    1    6    6    0    0  0.16274425903E+02 -0.43126288622E+02  0.51571146466E+02  0.69168756362E+02  0.00000000000E+00 0. -1.
         -5    1    3    3    0  503  0.10053694252E+02  0.64366598646E+02  0.85269286789E+01  0.65870587533E+02  0.47000000000E+01 0.  1.
         13    1    4    4    0    0  0.28847693417E+02  0.18156692261E+01 -0.14489544406E+02  0.32333155851E+02  0.00000000000E+00 0. -1.
        -14    1    4    4    0    0 -0.24988024546E+02 -0.70434424791E+02 -0.31608549300E+00  0.74736266139E+02  0.00000000000E+00 0.  1.
</event>
<event>
12    1  0.8133506E-002  0.2474428E+03  0.7818608E-02  0.1115192E+00
         21   -1    0    0  503  502  0.00000000000E+00  0.00000000000E+00  0.10085180883E+04  0.10085180883E+04  0.00000000000E+00 0.  1.
         21   -1    0    0  501  503 -0.00000000000E+00 -0.00000000000E+00 -0.77000447888E+02  0.77000447888E+02  0.00000000000E+00 0. -1.
          6    2    1    2  501    0  0.11424098205E+03  0.13290077400E+03  0.21190113590E+03  0.32454818793E+03  0.17238276359E+03 0.  0.
         24    2    3    3    0    0  0.10512520788E+03  0.63098717429E+02  0.62401786627E+02  0.15923766233E+03  0.80186611465E+02 0.  0.
         -6    2    1    2    0  502 -0.11424098205E+03 -0.13290077400E+03  0.71961650451E+03  0.76097034825E+03  0.17468354145E+03 0.  0.
        -24    2    5    5    0    0 -0.32343754099E+01 -0.10344653998E+03  0.42246513731E+03  0.44236237025E+03  0.80597931445E+02 0.  0.
          5    1    3    3  501    0  0.91157741729E+01  0.69802056572E+02  0.14949934928E+03  0.16531052560E+03  0.47000000000E+01 0. -1.
        -11    1    4    4    0    0 -0.58618855797E+01  0.31448568036E+01 -0.11319941401E+02  0.13129847683E+02  0.00000000000E+00 0.  1.
         12    1    4    4    0    0  0.11098709346E+03  0.59953860625E+02  0.73721728028E+02  0.14610781465E+03  0.00000000000E+00 0. -1.
         -5    1    5    5    0  502 -0.11100660664E+03 -0.29454234017E+02  0.29715136720E+03  0.31860797800E+03  0.47000000000E+01 0.  1.
         13    1    6    6    0    0 -0.14476295929E+02 -0.11407618323E+03  0.35558354812E+03  0.37371459487E+03  0.00000000000E+00 0. -1.
        -14    1    6    6    0    0  0.11241920519E+02  0.10629643245E+02  0.66881589194E+02  0.68647775387E+02  0.00000000000E+00 0.  1.
</event>
<event>
12    1  0.8133506E-002  0.2171121E+03  0.7818608E-02  0.1136117E+00
         21   -1    0    0  501  502  0.00000000000E+00  0.00000000000E+00  0.30642136374E+03  0.30642136374E+03  0.00000000000E+00 0. -1.
         21   -1    0    0  502  503 -0.00000000000E+00 -0.00000000000E+00 -0.15373997873E+03  0.15373997873E+03  0.00000000000E+00 0. -1.
         -6    2    1    2    0  503 -0.10865818639E+03 -0.74817714496E+02  0.69310470170E+02  0.22759226866E+03  0.17201746309E+03 0.  0.
        -24    2    3    3    0    0 -0.98019088762E+02  0.61422467180E+01  0.75947909216E+01  0.12512949111E+03  0.77163720360E+02 0.  0.
          6    2    1    2  501    0  0.10865818639E+03  0.74817714496E+02  0.83370914837E+02  0.23256907381E+03  0.17243367647E+03 0.  0.
         24    2    5    5    0    0  0.12673052271E+02  0.65683284150E+01 -0.11465902928E+02  0.81283791394E+02  0.79194940630E+02 0.  0.
          5    1    5    5  501    0  0.95985134114E+02  0.68249386081E+02  0.94836817765E+02  0.15128528241E+03  0.47000000000E+01 0. -1.
        -13    1    6    6    0    0 -0.41507137137E+01  0.41395781249E+02 -0.31541257079E+01  0.41722747255E+02  0.00000000000E+00 0.  1.
         14    1    6    6    0    0  0.16823765985E+02 -0.34827452834E+02 -0.83117772199E+01  0.39561044139E+02  0.00000000000E+00 0. -1.
         -5    1    3    3    0  503 -0.10639097623E+02 -0.80959961214E+02  0.61715679248E+02  0.10246277755E+03  0.47000000000E+01 0.  1.
         13    1    4    4    0    0 -0.67163250870E+02 -0.59519471279E+01 -0.31039609258E+02  0.74227927931E+02  0.00000000000E+00 0. -1.
        -14    1    4    4    0    0 -0.30855837892E+02  0.12094193846E+02  0.38634400179E+02  0.50901563178E+02  0.00000000000E+00 0.  1.
</event>
<event>
12    1  0.8133506E-002  0.2028176E+03  0.7818608E-02  0.1147551E+00
         21   -1    0    0  503  502  0.00000000000E+00  0.00000000000E+00  0.89173814128E+03  0.89173814128E+03  0.00000000000E+00 0. -1.
         21   -1    0    0  501  503 -0.00000000000E+00 -0.00000000000E+00 -0.78554021539E+02  0.78554021539E+02  0.00000000000E+00 0. -1.
          6    2    1    2  501    0  0.98778788007E+02  0.41368759105E+02  0.93541363310E+02  0.22261531485E+03  0.17128621826E+03 0.  0.
         24    2    3    3    0    0  0.10690973523E+03 -0.39506258412E+01  0.21678148792E+02  0.13713800467E+03  0.83015608524E+02 0.  0.
         -6    2    1    2    0  502 -0.98778788007E+02 -0.41368759105E+02  0.71964275643E+03  0.74767684796E+03  0.17223922002E+03 0.  0.
        -24    2    5    5    0    0 -0.65591562576E+02 -0.40493146616E+02  0.70068885045E+03  0.70916062825E+03  0.77472469401E+02 0.  0.
          5    1    3    3  501    0 -0.81309472232E+01  0.45319384946E+02  0.71863214518E+02  0.85477310179E+02  0.47000000000E+01 0. -1.
        -13    1    4    4    0    0  0.11325300838E+02  0.30942637200E+02 -0.67686541091E+00  0.32957053611E+02  0.00000000000E+00 0.  1.
         14    1    4    4    0    0  0.95584434392E+02 -0.34893263041E+02  0.22355014203E+02  0.10418095106E+03  0.00000000000E+00 0. -1.
         -5    1    5    5    0  502 -0.33187225431E+02 -0.87561248865E+00  0.18953905976E+02  0.38516219711E+02  0.47000000000E+01 0.  1.
         13    1    6    6    0    0 -0.66825413609E+02  0.29889361214E+00  0.37283693095E+03  0.37877843434E+03  0.00000000000E+00 0. -1.
        -14    1    6    6    0    0  0.12338510336E+01 -0.40792040228E+02  0.32785191950E+03  0.33038219392E+03  0.00000000000E+00 0.  1.
</event>
<event>
12    1  0.8133506E-002  0.2613945E+03  0.7818608E-02  0.1106336E+00
         21   -1    0    0  501  502  0.00000000000E+00  0.00000000000E+00  0.46257869693E+02  0.46257869693E+02  0.00000000000E+00 0. -1.
         21   -1    0    0  502  503 -0.00000000000E+00 -0.00000000000E+00 -0.14843147660E+04  0.14843147660E+04  0.00000000000E+00 0.  1.
         -6    2    1    2    0  503 -0.14718171572E+03  0.13048897876E+03 -0.66157179972E+03  0.71127037133E+03  0.17186757672E+03 0.  0.
        -24    2    3    3    0    0 -0.10013919961E+02  0.17193942321E+02 -0.18151873991E+03  0.19929009856E+03  0.79822178615E+02 0.  0.
          6    2    1    2  501    0  0.14718171572E+03 -0.13048897876E+03 -0.77648509655E+03  0.81930226433E+03  0.17215476801E+03 0.  0.
         24    2    5    5    0    0  0.15511505236E+03 -0.15362855934E+03 -0.68006532030E+03  0.71971691765E+03  0.88550482594E+02 0.  0.
          5    1    5    5  501    0 -0.79333366415E+01  0.23139580584E+02 -0.96419776251E+02  0.99585346674E+02  0.47000000000E+01 0. -1.
        -11    1    6    6    0    0  0.46391387022E+02 -0.10092481983E+03 -0.38958137144E+03  0.40510693035E+03  0.00000000000E+00 0.  1.
         12    1    6    6    0    0  0.10872366534E+03 -0.52703739510E+02 -0.29048394886E+03  0.31460998730E+03  0.00000000000E+00 0. -1.
         -5    1    3    3    0  503 -0.13716779576E+03  0.11329503644E+03 -0.48005305981E+03  0.51198027277E+03  0.47000000000E+01 0.  1.
         13    1    4    4    0    0  0.47797261537E+01  0.28664689392E+02 -0.16913961963E+02  0.33624281544E+02  0.00000000000E+00 0. -1.
        -14    1    4    4    0    0 -0.14793646115E+02 -0.11470747071E+02 -0.16460477795E+03  0.16566581701E+03  0.00000000000E+00 0.  1.
</event>
<event>
12    1  0.8133506E-002  0.1748790E+03  0.7818608E-02  0.1172994E+00
         21   -1    0    0  501  502  0.00000000000E+00  0.00000000000E+00  0.16311331700E+03  0.16311331700E+03  0.00000000000E+00 0. -1.
         21   -1    0    0  502  503 -0.00000000000E+00 -0.00000000000E+00 -0.32220756875E+03  0.32220756875E+03  0.00000000000E+00 0. -1.
         -6    2    1    2    0  503  0.20273709076E+02 -0.20423056340E+02 -0.23687551384E+03  0.29443622441E+03  0.17249509175E+03 0.  0.
        -24    2    3    3    0    0  0.45862480311E+02 -0.55143804451E+02 -0.22507042438E+03  0.24947217544E+03  0.80221344518E+02 0.  0.
          6    2    1    2  501    0 -0.20273709076E+02  0.20423056340E+02  0.77781262096E+02  0.19088466134E+03  0.17192703304E+03 0.  0.
         24    2    5    5    0    0 -0.72773440295E+02  0.43372165467E+02  0.57981612140E+02  0.13008170478E+03  0.79889074482E+02 0.  0.
          5    1    5    5  501    0  0.52499731220E+02 -0.22949109128E+02  0.19799649956E+02  0.60802956559E+02  0.47000000000E+01 0. -1.
        -11    1    6    6    0    0  0.15008355747E+02 -0.23226954272E+01 -0.37962396394E+00  0.15191766540E+02  0.00000000000E+00 0.  1.
         12    1    6    6    0    0 -0.87781796042E+02  0.45694860894E+02  0.58361236104E+02  0.11488993824E+03  0.00000000000E+00 0. -1.
         -5    1    3    3    0  503 -0.25588771235E+02  0.34720748111E+02 -0.11805089459E+02  0.44964048971E+02  0.47000000000E+01 0.  1.
         13    1    4    4    0    0  0.59391084717E+02 -0.11058658362E+02 -0.14483082103E+03  0.15692533763E+03  0.00000000000E+00 0. -1.
        -14    1    4    4    0    0 -0.13528604406E+02 -0.44085146089E+02 -0.80239603354E+02  0.92546837813E+02  0.00000000000E+00 0.  1.
</event>
<event>
12    1  0.8133506E-002  0.3390960E+03  0.7818608E-02  0.1067706E+00
         21   -1    0    0  503  502  0.00000000000E+00  0.00000000000E+00  0.31346633780E+04  0.31346633780E+04  0.00000000000E+00 0.  1.
         21   -1    0    0  501  503 -0.00000000000E+00 -0.00000000000E+00 -0.47624786550E+02  0.47624786550E+02  0.00000000000E+00 0.  1.
          6    2    1    2  501    0 -0.23226057330E+03 -0.16854984667E+03  0.75429545393E+03  0.82502775837E+03  0.17133343383E+03 0.  0.
         24    2    3    3    0    0 -0.48610618552E+02 -0.92054906211E+02  0.21417197876E+03  0.24941135814E+03  0.74157205230E+02 0.  0.
         -6    2    1    2    0  502  0.23226057330E+03  0.16854984667E+03  0.23327431375E+04  0.23572604062E+04  0.18064343927E+03 0.  0.
        -24    2    5    5    0    0  0.25627957180E+03  0.14797650006E+03  0.20638264441E+04  0.20864496736E+04  0.79475691845E+02 0.  0.
          5    1    3    3  501    0 -0.18364995475E+03 -0.76494940460E+02  0.54012347516E+03  0.57561640023E+03  0.47000000000E+01 0. -1.
        -13    1    4    4    0    0 -0.35863695245E+02 -0.16998683259E+02  0.28864332340E+02  0.49074530569E+02  0.00000000000E+00 0.  1.
         14    1    4    4    0    0 -0.12746923307E+02 -0.75056222952E+02  0.18530764642E+03  0.20033682757E+03  0.00000000000E+00 0. -1.
         -5    1    5    5    0  502 -0.24018998498E+02  0.20573346608E+02  0.26891669342E+03  0.27081073258E+03  0.47000000000E+01 0.  1.
         11    1    6    6    0    0  0.47956113374E+02  0.38162978897E+02  0.25015501454E+03  0.25755335965E+03  0.00000000000E+00 0. -1.
        -12    1    6    6    0    0  0.20832345842E+03  0.10981352117E+03  0.18136714296E+04  0.18288963140E+04  0.00000000000E+00 0.  1.
</event>
<event>
12    1  0.8133506E-002  0.2802417E+03  0.7818608E-02  0.1095571E+00
         21   -1    0    0  501  502  0.00000000000E+00  0.00000000000E+00  0.43250510841E+03  0.43250510841E+03  0.00000000000E+00 0. -1.
         21   -1    0    0  502  503 -0.00000000000E+00 -0.00000000000E+00 -0.18189022619E+03  0.18189022619E+03  0.00000000000E+00 0.  1.
         -6    2    1    2    0  503 -0.17009502705E+03 -0.14150881085E+03  0.13925891606E+03  0.31293518585E+03  0.17198349648E+03 0.  0.
        -24    2    3    3    0    0 -0.18173450304E+03 -0.98020534515E+02  0.14882787387E+03  0.26667113356E+03  0.79550629499E+02 0.  0.
          6    2    1    2  501    0  0.17009502705E+03  0.14150881085E+03  0.11135596616E+03  0.30146014875E+03  0.17181678704E+03 0.  0.
         24    2    5    5    0    0  0.14389409541E+03  0.46401163493E+02  0.30574867881E+02  0.17386849838E+03  0.80230003826E+02 0.  0.
          5    1    5    5  501    0  0.26200931637E+02  0.95107647361E+02  0.80781098281E+02  0.12759165037E+03  0.47000000000E+01 0. -1.
        -11    1    6    6    0    0  0.55370898924E+02  0.52186121084E+02 -0.92113290609E+01  0.76643174937E+02  0.00000000000E+00 0.  1.
         12    1    6    6    0    0  0.88523196491E+02 -0.57849575910E+01  0.39786196942E+02  0.97225323442E+02  0.00000000000E+00 0. -1.
         -5    1    3    3    0  503  0.11639475987E+02 -0.43488276338E+02 -0.95689578106E+01  0.46264052284E+02  0.47000000000E+01 0.  1.
         11    1    4    4    0    0 -0.14298972923E+03 -0.70800042920E+02  0.15043495240E+03  0.21929291745E+03  0.00000000000E+00 0. -1.
        -12    1    4    4    0    0 -0.38744773811E+02 -0.27220491595E+02 -0.16070785282E+01  0.47378216110E+02  0.00000000000E+00 0.  1.
</event>
<event>
12    1  0.8133506E-002  0.1959211E+03  0.7818608E-02  0.1154266E+00
         21   -1    0    0  501  502  0.00000000000E+00  0.00000000000E+00  0.11194198232E+03  0.11194198232E+03  0.00000000000E+00 0. -1.
         21   -1    0    0  502  503 -0.00000000000E+00 -0.00000000000E+00 -0.34605482288E+03  0.34605482288E+03  0.00000000000E+00 0.  1.
         -6    2    1    2    0  503 -0.49311350650E+02 -0.64932214937E+02 -0.15721114524E+03  0.24752365402E+03  0.17293008203E+03 0.  0.
        -24    2    3    3    0    0 -0.15296461177E+02 -0.79241818305E+02 -0.30324365162E+02  0.11529611372E+03  0.76553113738E+02 0.  0.
          6    2    1    2  501    0  0.49311350650E+02  0.64932214937E+02 -0.76901695319E+02  0.21047315119E+03  0.17814958543E+03 0.  0.
         24    2    5    5    0    0  0.47425040558E+02 -0.30573212848E+02 -0.22121313495E+02  0.10025597859E+03  0.79862712930E+02 0.  0.
          5    1    5    5  501    0  0.18863100921E+01  0.95505427785E+02 -0.54780381824E+02  0.11021717260E+03  0.47000000000E+01 0. -1.
        -11    1    6    6    0    0  0.48271461391E+02 -0.97366813984E+01 -0.46807716785E+02  0.67940409920E+02  0.00000000000E+00 0.  1.
         12    1    6    6    0    0 -0.84642083299E+00 -0.20836531450E+02  0.24686403290E+02  0.32315568670E+02  0.00000000000E+00 0. -1.
         -5    1    3    3    0  503 -0.34014889473E+02  0.14309603367E+02 -0.12688678008E+03  0.13222754030E+03  0.47000000000E+01 0.  1.
         13    1    4    4    0    0 -0.17579145627E+02 -0.63811840994E+02 -0.55030964953E+02  0.86077781778E+02  0.00000000000E+00 0. -1.
        -14    1    4    4    0    0  0.22826844498E+01 -0.15429977310E+02  0.24706599791E+02  0.29218331940E+02  0.00000000000E+00 0.  1.
</event>
<event>
12    1  0.8133506E-002  0.2743850E+03  0.7818608E-02  0.1098922E+00
         21   -1    0    0  501  502  0.00000000000E+00  0.00000000000E+00  0.14491915483E+03  0.14491915483E+03  0.00000000000E+00 0.  1.
         21   -1    0    0  502  503 -0.00000000000E+00 -0.00000000000E+00 -0.10058110296E+04  0.10058110296E+04  0.00000000000E+00 0. -1.
         -6    2    1    2    0  503  0.21098769294E+03  0.18808340679E+02 -0.83157889280E+03  0.87567720430E+03  0.17440628118E+03 0.  0.
        -24    2    3    3    0    0  0.10258428863E+03 -0.50495690598E+02 -0.52597245724E+03  0.54405734621E+03  0.79233952007E+02 0.  0.
          6    2    1    2  501    0 -0.21098769294E+03 -0.18808340679E+02 -0.29312981953E+02  0.27505298011E+03  0.17298939478E+03 0.  0.
         24    2    5    5    0    0 -0.21555537692E+02  0.69471900357E+01 -0.15463585092E+02  0.83319350831E+02  0.78677106609E+02 0.  0.
          5    1    5    5  501    0 -0.18943215525E+03 -0.25755530715E+02 -0.13849396861E+02  0.19173362928E+03  0.47000000000E+01 0. -1.
        -13    1    6    6    0    0  0.18977994800E+02 -0.12255921891E+02  0.16727975774E+02  0.28110444349E+02  0.00000000000E+00 0.  1.
         14    1    6    6    0    0 -0.40533532492E+02  0.19203111927E+02 -0.32191560866E+02  0.55208906482E+02  0.00000000000E+00 0. -1.
         -5    1    3    3    0  503  0.10840340431E+03  0.69304031277E+02 -0.30560643556E+03  0.33161985808E+03  0.47000000000E+01 0.  1.
         11    1    4    4    0    0  0.13231146637E+02 -0.15835073157E+02 -0.26906729360E+03  0.26985740914E+03  0.00000000000E+00 0. -1.
        -12    1    4    4    0    0  0.89353141991E+02 -0.34660617441E+02 -0.25690516364E+03  0.27419993707E+03  0.00000000000E+00 0.  1.
</event>
<event>
12    1  0.8133506E-002  0.3356500E+03  0.7818608E-02  0.1068869E+00
         21   -1    0    0  501  502  0.00000000000E+00  0.00000000000E+00  0.95197101075E+02  0.95197101075E+02  0.00000000000E+00 0. -1.
         21   -1    0    0  502  503 -0.00000000000E+00 -0.00000000000E+00 -0.17843122183E+04  0.17843122183E+04  0.00000000000E+00 0. -1.
         -6    2    1    2    0  503 -0.27966947676E+03 -0.63940557779E+02 -0.13913355287E+04  0.14308071668E+04  0.17056137887E+03 0.  0.
        -24    2    3    3    0    0 -0.18284896559E+03 -0.87287874738E+02 -0.72583532059E+03  0.75787929132E+03  0.80567923552E+02 0.  0.
          6    2    1    2  501    0  0.27966947676E+03  0.63940557779E+02 -0.29777958861E+03  0.44870215266E+03  0.17423411622E+03 0.  0.
         24    2    5    5    0    0  0.12197118796E+03 -0.29518407777E+02 -0.98381457387E+02  0.17780543200E+03  0.78661003048E+02 0.  0.
          5    1    5    5  501    0  0.15769828880E+03  0.93458965556E+02 -0.19939813122E+03  0.27089672067E+03  0.47000000000E+01 0. -1.
        -11    1    6    6    0    0  0.11691057036E+03 -0.16382034856E+01 -0.64137474814E+02  0.13335809255E+03  0.00000000000E+00 0.  1.
         12    1    6    6    0    0  0.50606176011E+01 -0.27880204292E+02 -0.34243982573E+02  0.44447339452E+02  0.00000000000E+00 0. -1.
         -5    1    3    3    0  503 -0.96820511173E+02  0.23347316959E+02 -0.66550020808E+03  0.67292787544E+03  0.47000000000E+01 0.  1.
         13    1    4    4    0    0 -0.33641572130E+02 -0.27272888408E+02 -0.29199668042E+03  0.29519083182E+03  0.00000000000E+00 0. -1.
        -14    1    4    4    0    0 -0.14920739346E+03 -0.60014986330E+02 -0.43383864017E+03  0.46268845949E+03  0.00000000000E+00 0.  1.
</event>
<event>
12    1  0.8133506E-002  0.2014993E+03  0.7818608E-02  0.1148718E+00
         21   -1    0    0  503  502  0.00000000000E+00  0.00000000000E+00  0.69540753603E+02  0.69540753603E+02  0.00000000000E+00 0. -1.
         21   -1    0    0  501  503 -0.00000000000E+00 -0.00000000000E+00 -0.58199155534E+03  0.58199155534E+03  0.00000000000E+00 0. -1.
          6    2    1    2  501    0 -0.98810897950E+02  0.33488514089E+02 -0.23940204293E+03  0.31218354349E+03  0.17105599240E+03 0.  0.
         24    2    3    3    0    0 -0.94750062483E+02 -0.35558419171E+02 -0.17561094327E+03  0.21797439440E+03  0.80197616549E+02 0.  0.
         -6    2    1    2    0  502  0.98810897950E+02 -0.33488514089E+02 -0.27304875880E+03  0.33934876545E+03  0.17238586311E+03 0.  0.
        -24    2    5    5    0    0  0.10038384417E+03 -0.80282804506E+02 -0.22607329857E+03  0.27285843804E+03  0.82585386190E+02 0.  0.
          5    1    3    3  501    0 -0.40608354670E+01  0.69046933259E+02 -0.63791099660E+02  0.94209149094E+02  0.47000000000E+01 0. -1.
        -13    1    4    4    0    0 -0.21083258975E+02 -0.79554010969E+01 -0.11884773589E+03  0.12096518732E+03  0.00000000000E+00 0.  1.
         14    1    4    4    0    0 -0.73666803509E+02 -0.27603018074E+02 -0.56763207380E+02  0.97009207078E+02  0.00000000000E+00 0. -1.
         -5    1    5    5    0  502 -0.15729462244E+01  0.46794290418E+02 -0.46975460235E+02  0.66490327416E+02  0.47000000000E+01 0.  1.
         11    1    6    6    0    0  0.82501731464E+02 -0.16163340970E+02 -0.10316706001E+03  0.13308355104E+03  0.00000000000E+00 0. -1.
        -12    1    6    6    0    0  0.17882112711E+02 -0.64119463536E+02 -0.12290623856E+03  0.13977488700E+03  0.00000000000E+00 0.  1.
</event>
<event>
12    1  0.8133506E-002  0.1733946E+03  0.7818608E-02  0.1175221E+00
         21   -1    0    0  503  502  0.00000000000E+00  0.00000000000E+00  0.13532133394E+03  0.13532133394E+03  0.00000000000E+00 0.  1.
         21   -1    0    0  501  503 -0.00000000000E+00 -0.00000000000E+00 -0.36887830740E+03  0.36887830740E+03  0.00000000000E+00 0.  1.
          6    2    1    2  501    0 -0.23850827858E+02  0.89763164497E+01 -0.27874974776E+03  0.32827901972E+03  0.17151168085E+03 0.  0.
         24    2    3    3    0    0  0.46753795849E+02 -0.24633190829E+02 -0.14914420296E+03  0.17683827516E+03  0.78962464315E+02 0.  0.
         -6    2    1    2    0  502  0.23850827858E+02 -0.89763164497E+01  0.45192774300E+02  0.17592062161E+03  0.16809593098E+03 0.  0.
        -24    2    5    5    0    0 -0.45448650423E+02  0.21798728748E+02  0.26891640224E+02  0.97776251341E+02  0.79349042918E+02 0.  0.
          5    1    3    3  501    0 -0.70604623707E+02  0.33609507279E+02 -0.12960554480E+03  0.15144074456E+03  0.47000000000E+01 0. -1.
        -13    1    4    4    0    0 -0.19639768269E+02 -0.20173125722E+02 -0.51144114697E+02  0.58381469382E+02  0.00000000000E+00 0.  1.
         14    1    4    4    0    0  0.66393564118E+02 -0.44600651067E+01 -0.98000088260E+02  0.11845680578E+03  0.00000000000E+00 0. -1.
         -5    1    5    5    0  502  0.69299478281E+02 -0.30775045198E+02  0.18301134076E+02  0.78144370273E+02  0.47000000000E+01 0.  1.
         13    1    6    6    0    0 -0.16901364828E+02  0.39330115603E+02 -0.13884481579E+02  0.45003254939E+02  0.00000000000E+00 0. -1.
        -14    1    6    6    0    0 -0.28547285596E+02 -0.17531386855E+02  0.40776121803E+02  0.52772996402E+02  0.00000000000E+00 0.  1.
</event>
<event>
12    1  0.8133506E-002  0.2167079E+03  0.7818608E-02  0.1136410E+00
         21   -1    0    0  503  502  0.00000000000E+00  0.00000000000E+00  0.14084380730E+03  0.14084380730E+03  0.00000000000E+00 0.  1.
         21   -1    0    0  501  503 -0.00000000000E+00 -0.00000000000E+00 -0.10134455467E+04  0.10134455467E+04  0.00000000000E+00 0.  1.
          6    2    1    2  501    0 -0.46323640695E+02 -0.12325411315E+03 -0.90911446662E+03  0.93452700470E+03  0.17179683642E+03 0.  0.
         24    2    3    3    0    0 -0.28895715623E+02 -0.15694143305E+03 -0.73490363546E+03  0.75617322205E+03  0.79050696002E+02 0.  0.
         -6    2    1    2    0  502  0.46323640695E+02  0.12325411315E+03  0.36512727239E+02  0.21976234928E+03  0.17211872302E+03 0.  0.
        -24    2    5    5    0    0  0.75349977513E+02  0.28978959056E+02  0.13163559609E+02  0.11828522606E+03  0.85444228725E+02 0.  0.
          5    1    3    3  501    0 -0.17427925072E+02  0.33687319899E+02 -0.17421083115E+03  0.17835378265E+03  0.47000000000E+01 0. -1.
        -11    1    4    4    0    0  0.23712011322E+02 -0.18853826661E+02 -0.12056173859E+03  0.12430952929E+03  0.00000000000E+00 0.  1.
         12    1    4    4    0    0 -0.52607726945E+02 -0.13808760639E+03 -0.61434189688E+03  0.63186369276E+03  0.00000000000E+00 0. -1.
         -5    1    5    5    0  502 -0.29026336818E+02  0.94275154095E+02  0.23349167630E+02  0.10147712322E+03  0.47000000000E+01 0.  1.
         11    1    6    6    0    0  0.24093555321E+02  0.21499459091E+02 -0.34952986176E+02  0.47586105030E+02  0.00000000000E+00 0. -1.
        -12    1    6    6    0    0  0.51256422192E+02  0.74794999645E+01  0.48116545785E+02  0.70699121026E+02  0.00000000000E+00 0.  1.
</event>
<event>
12    1  0.8133506E-002  0.1892423E+03  0.7818608E-02  0.1159348E+00
         21   -1    0    0  501  502  0.00000000000E+00  0.00000000000E+00  0.53606436008E+02  0.53606436008E+02  0.00000000000E+00 0. -1.
         21   -1    0    0  502  503 -0.00000000000E+00 -0.00000000000E+00 -0.87226396447E+03  0.87226396447E+03  0.00000000000E+00 0. -1.
         -6    2    1    2    0  503 -0.57925471714E+02  0.48437568134E+02 -0.63576110001E+03  0.66332860549E+03  0.17352551483E+03 0.  0.
        -24    2    3    3    0    0 -0.38209778607E+01  0.56503586080E+02 -0.56637734755E+03  0.57484950058E+03  0.80382792861E+02 0.  0.
          6    2    1    2  501    0  0.57925471714E+02 -0.48437568134E+02 -0.18289642845E+03  0.26254179499E+03  0.17255588166E+03 0.  0.
         24    2    5    5    0    0  0.94394879929E+02 -0.39970158576E+02 -0.78251944767E+02  0.15130208658E+03  0.79126149981E+02 0.  0.
          5    1    5    5  501    0 -0.36469408215E+02 -0.84674095578E+01 -0.10464448369E+03  0.11123970841E+03  0.47000000000E+01 0. -1.
        -11    1    6    6    0    0  0.10593847787E+03 -0.35327748127E+02 -0.81725979542E+02  0.13838405477E+03  0.00000000000E+00 0.  1.
         12    1    6    6    0    0 -0.11543597946E+02 -0.46424104483E+01  0.34740347754E+01  0.12918031813E+02  0.00000000000E+00 0. -1.
         -5    1    3    3    0  503 -0.54104493853E+02 -0.80660179460E+01 -0.69383752461E+02  0.88479104912E+02  0.47000000000E+01 0.  1.
         11    1    4    4    0    0 -0.29290193069E+02  0.47617092657E+02 -0.20559430886E+03  0.21305943481E+03  0.00000000000E+00 0. -1.
        -12    1    4    4    0    0  0.25469215208E+02  0.88864934228E+01 -0.36078303868E+03  0.36179006577E+03  0.00000000000E+00 0.  1.
</event>
<event>
12    1  0.8133506E-002  0.2111657E+03  0.7818608E-02  0.1140703E+00
         21   -1    0    0  501  502  0.00000000000E+00  0.00000000000E+00  0.44732874707E+03  0.44732874707E+03  0.00000000000E+00 0.  1.
         21   -1    0    0  502  503 -0.00000000000E+00 -0.00000000000E+00 -0.13649587404E+03  0.13649587404E+03  0.00000000000E+00 0.  1.
         -6    2    1    2    0  503 -0.11603598830E+03 -0.39898674494E+02  0.36147419121E+01  0.21119667887E+03  0.17185667285E+03 0.  0.
        -24    2    3    3    0    0 -0.20734709803E+02 -0.69148975951E+02  0.19249513824E+01  0.11138255558E+03  0.84798933857E+02 0.  0.
          6    2    1    2  501    0  0.11603598830E+03  0.39898674494E+02  0.30721813111E+03  0.37262794224E+03  0.17150028702E+03 0.  0.
         24    2    5    5    0    0  0.13615923329E+03 -0.37948237035E+01  0.19668153385E+03  0.25198592589E+03  0.79117277464E+02 0.  0.
          5    1    5    5  501    0 -0.20123244993E+02  0.43693498198E+02  0.11053659726E+03  0.12064201635E+03  0.47000000000E+01 0. -1.
        -11    1    6    6    0    0  0.10003987515E+03  0.22988117402E+02  0.91158776348E+02  0.13728201873E+03  0.00000000000E+00 0.  1.
         12    1    6    6    0    0  0.36119358134E+02 -0.26782941105E+02  0.10552275750E+03  0.11470390716E+03  0.00000000000E+00 0. -1.
         -5    1    3    3    0  503 -0.95301278492E+02  0.29250301457E+02  0.16897905298E+01  0.99814123297E+02  0.47000000000E+01 0.  1.
         11    1    4    4    0    0  0.11543342596E+02 -0.13732445310E+02  0.34921707285E+02  0.39260087267E+02  0.00000000000E+00 0. -1.
        -12    1    4    4    0    0 -0.32278052399E+02 -0.55416530641E+02 -0.32996755903E+02  0.72122468310E+02  0.00000000000E+00 0.  1.
</event>
<event>
12    1  0.8133506E-002  0.1776526E+03  0.7818608E-02  0.1170107E+00
         21   -1    0    0  503  502  0.00000000000E+00  0.00000000000E+00  0.11794468019E+03  0.11794468019E+03  0.00000000000E+00 0.  1.
         21   -1    0    0  501  503 -0.00000000000E+00 -0.00000000000E+00 -0.78359499824E+03  0.78359499824E+03  0.00000000000E+00 0.  1.
          6    2    1    2  501    0 -0.36367654576E+02 -0.25331425923E+02 -0.69863079419E+03  0.72085167039E+03  0.17198214059E+03 0.  0.
         24    2    3    3    0    0  0.40589331218E+02 -0.53509300965E+01 -0.33407088960E+03  0.34769270707E+03  0.87239515178E+02 0.  0.
         -6    2    1    2    0  502  0.36367654576E+02  0.25331425923E+02  0.32980476145E+02  0.18068800803E+03  0.17203533649E+03 0.  0.
        -24    2    5    5    0    0 -0.13150470196E+02 -0.15566572203E+02  0.70672044245E+02  0.10607276001E+03  0.76430619137E+02 0.  0.
          5    1    3    3  501    0 -0.76956985794E+02 -0.19980495827E+02 -0.36455990459E+03  0.37315896332E+03  0.47000000000E+01 0. -1.
        -11    1    4    4    0    0  0.34724381086E+02 -0.42782628679E+02 -0.24072106038E+03  0.24694688674E+03  0.00000000000E+00 0.  1.
         12    1    4    4    0    0  0.58649501320E+01  0.37431698582E+02 -0.93349829217E+02  0.10074582033E+03  0.00000000000E+00 0. -1.
         -5    1    5    5    0  502  0.49518124772E+02  0.40897998126E+02 -0.37691568100E+02  0.74615248023E+02  0.47000000000E+01 0.  1.
         11    1    6    6    0    0 -0.29192041052E+02 -0.46883435628E+01 -0.31642032252E+01  0.29734962724E+02  0.00000000000E+00 0. -1.
        -12    1    6    6    0    0  0.16041570856E+02 -0.10878228640E+02  0.73836247470E+02  0.76337797285E+02  0.00000000000E+00 0.  1.
</event>
<event>
12    1  0.8133506E-002  0.2067038E+03  0.7818608E-02  0.1144214E+00
         21   -1    0    0  503  502  0.00000000000E+00  0.00000000000E+00  0.61718371755E+03  0.61718371755E+03  0.00000000000E+00 0.  1.
         21   -1    0    0  501  503 -0.00000000000E+00 -0.00000000000E+00 -0.70886001884E+02  0.70886001884E+02  0.00000000000E+00 0.  1.
          6    2    1    2  501    0  0.99209401691E+02 -0.57154201910E+02  0.32608056429E+03  0.38607642673E+03  0.17209696304E+03 0.  0.
         24    2    3    3    0    0  0.12012585429E+03 -0.50274597868E+02  0.17548381045E+03  0.23380594631E+03  0.83143831628E+02 0.  0.
         -6    2    1    2    0  502 -0.99209401691E+02  0.57154201910E+02  0.22021715137E+03  0.30199329270E+03  0.17203269137E+03 0.  0.
        -24    2    5    5    0    0 -0.11850105781E+03  0.33758994314E+02  0.98683188224E+02  0.17664538513E+03  0.79265692781E+02 0.  0.
          5    1    3    3  501    0 -0.20916452596E+02 -0.68796040415E+01  0.15059675384E+03  0.15227048042E+03  0.47000000000E+01 0. -1.
        -11    1    4    4    0    0  0.10345821926E+03 -0.96737821162E+01  0.88964312999E+02  0.13679120651E+03  0.00000000000E+00 0.  1.
         12    1    4    4    0    0  0.16667635031E+02 -0.40600815752E+02  0.86519497453E+02  0.97014739791E+02  0.00000000000E+00 0. -1.
         -5    1    5    5    0  502  0.19291656116E+02  0.23395207596E+02  0.12153396315E+03  0.12534790757E+03  0.47000000000E+01 0.  1.
         11    1    6    6    0    0 -0.75063353822E+02  0.50123395123E+02  0.32763155899E+02  0.96022321416E+02  0.00000000000E+00 0. -1.
        -12    1    6    6    0    0 -0.43437703985E+02 -0.16364400808E+02  0.65920032325E+02  0.80623063716E+02  0.00000000000E+00 0.  1.
</event>
<event>
12    1  0.8133506E-002  0.1739651E+03  0.7818608E-02  0.1173928E+00
         21   -1    0    0  503  502  0.00000000000E+00  0.00000000000E+00  0.61612669376E+03  0.61612669376E+03  0.00000000000E+00 0.  1.
         21   -1    0    0  501  503 -0.00000000000E+00 -0.00000000000E+00 -0.68117067326E+02  0.68117067326E+02  0.00000000000E+00 0.  1.
          6    2    1    2  501    0  0.21897694101E+02  0.12835743150E+02  0.92862133534E+02  0.19719843787E+03  0.17210340713E+03 0.  0.
         24    2    3    3    0    0  0.22032940265E+01 -0.35895443902E+02 -0.34036469242E+01  0.87417799903E+02  0.79604959205E+02 0.  0.
         -6    2    1    2    0  502 -0.21897694101E+02 -0.12835743150E+02  0.45514749290E+03  0.48704532322E+03  0.17149239418E+03 0.  0.
        -24    2    5    5    0    0  0.16638546490E+02 -0.67815706847E+02  0.26453931136E+03  0.28490327634E+03  0.79454504501E+02 0.  0.
          5    1    3    3  501    0  0.19694400074E+02  0.48731187052E+02  0.96265780458E+02  0.10978063797E+03  0.47000000000E+01 0. -1.
        -11    1    4    4    0    0 -0.33078277144E+02  0.13071989346E+01 -0.12423235637E+02  0.35358421509E+02  0.00000000000E+00 0.  1.
         12    1    4    4    0    0  0.35281571171E+02 -0.37202642837E+02  0.90195887129E+01  0.52059378395E+02  0.00000000000E+00 0. -1.
         -5    1    5    5    0  502 -0.38536240591E+02  0.54979963697E+02  0.19060818154E+03  0.20214204688E+03  0.47000000000E+01 0.  1.
         13    1    6    6    0    0 -0.23129721600E+02  0.19568964081E+01  0.87020207568E+02  0.90062922394E+02  0.00000000000E+00 0. -1.
        -14    1    6    6    0    0  0.39768268090E+02 -0.69772603255E+02  0.17751910380E+03  0.19484035394E+03  0.00000000000E+00 0.  1.
</event>
<event>
12    1  0.8133506E-002  0.2547309E+03  0.7818608E-02  0.1110502E+00
         21   -1    0    0  503  502  0.00000000000E+00  0.00000000000E+00  0.42516503767E+03  0.42516503767E+03  0.00000000000E+00 0.  1.
         21   -1    0    0  501  503 -0.00000000000E+00 -0.00000000000E+00 -0.15738470265E+03  0.15738470265E+03  0.00000000000E+00 0. -1.
          6    2    1    2  501    0 -0.84995114091E+02  0.16716867435E+03  0.79937875783E+02  0.26604917235E+03  0.17094608220E+03 0.  0.
         24    2    3    3    0    0 -0.10406567971E+03  0.72593463495E+02  0.78264242038E+02  0.16944147063E+03  0.80533494604E+02 0.  0.
         -6    2    1    2    0  502  0.84995114091E+02 -0.16716867435E+03  0.18784245923E+03  0.31650056798E+03  0.17238992122E+03 0.  0.
        -24    2    5    5    0    0  0.59359016096E+02 -0.98307269416E+02  0.30794202197E+02  0.14304928477E+03  0.79542460178E+02 0.  0.
          5    1    3    3  501    0  0.19070565617E+02  0.94575210852E+02  0.16736337447E+01  0.96607701714E+02  0.47000000000E+01 0. -1.
        -11    1    4    4    0    0 -0.13990538335E+02  0.45280689240E+02  0.54770972557E+02  0.72428830004E+02  0.00000000000E+00 0.  1.
         12    1    4    4    0    0 -0.90075141372E+02  0.27312774255E+02  0.23493269482E+02  0.97012640629E+02  0.00000000000E+00 0. -1.
         -5    1    5    5    0  502  0.25636097995E+02 -0.68861404931E+02  0.15704825704E+03  0.17345128321E+03  0.47000000000E+01 0.  1.
         13    1    6    6    0    0 -0.33795273833E+01 -0.53254452876E+02  0.37948769700E+02  0.65479516478E+02  0.00000000000E+00 0. -1.
        -14    1    6    6    0    0  0.62738543479E+02 -0.45052816540E+02 -0.71545675029E+01  0.77569768288E+02  0.00000000000E+00 0.  1.
</event>
<event>
12    1  0.8133506E-002  0.2713882E+03  0.7818608E-02  0.1100491E+00
         21   -1    0    0  501  502  0.00000000000E+00  0.00000000000E+00  0.39460104307E+03  0.39460104307E+03  0.00000000000E+00 0. -1.
         21   -1    0    0  502  503 -0.00000000000E+00 -0.00000000000E+00 -0.18831761220E+03  0.18831761220E+03  0.00000000000E+00 0. -1.
         -6    2    1    2    0  503  0.18247992836E+03 -0.10488478167E+03  0.13069390894E+03  0.30120010892E+03  0.17129175724E+03 0.  0.
        -24    2    3    3    0    0  0.12250209854E+03 -0.21620394223E+01  0.10321147770E+03  0.17902533300E+03  0.79912590785E+02 0.  0.
          6    2    1    2  501    0 -0.18247992836E+03  0.10488478167E+03  0.75589521927E+02  0.28171854635E+03  0.17132373406E+03 0.  0.
         24    2    5    5    0    0 -0.16670247972E+03  0.27249330091E+02  0.77315136539E+02  0.20233807663E+03  0.80192419734E+02 0.  0.
          5    1    5    5  501    0 -0.15777448645E+02  0.77635451574E+02 -0.17256146113E+01  0.79380469718E+02  0.47000000000E+01 0. -1.
        -13    1    6    6    0    0 -0.28345170263E+02 -0.64958496636E+00  0.51594448200E+02  0.58871535762E+02  0.00000000000E+00 0.  1.
         14    1    6    6    0    0 -0.13835730945E+03  0.27898915057E+02  0.25720688339E+02  0.14346654087E+03  0.00000000000E+00 0. -1.
         -5    1    3    3    0  503  0.59977829818E+02 -0.10272274224E+03  0.27482431245E+02  0.12217477592E+03  0.47000000000E+01 0.  1.
         11    1    4    4    0    0  0.18299084307E+01 -0.38635380676E+00 -0.12018697067E+02  0.12163343016E+02  0.00000000000E+00 0. -1.
        -12    1    4    4    0    0  0.12067219011E+03 -0.17756856156E+01  0.11523017476E+03  0.16686198998E+03  0.00000000000E+00 0.  1.
</event>
<event>
12    1  0.8133506E-002  0.1900450E+03  0.7818608E-02  0.1159750E+00
         21   -1    0    0  503  502  0.00000000000E+00  0.00000000000E+00  0.42550583485E+03  0.42550583485E+03  0.00000000000E+00 0.  1.
         21   -1    0    0  501  503 -0.00000000000E+00 -0.00000000000E+00 -0.82776885070E+02  0.82776885070E+02  0.00000000000E+00 0.  1.
          6    2    1    2  501    0 -0.61844398703E+02  0.22756225300E+02  0.14964590635E+03  0.23736173682E+03  0.17205848244E+03 0.  0.
         24    2    3    3    0    0 -0.16477227964E+02  0.39346351080E+02  0.11391680202E+02  0.90836198087E+02  0.79383941200E+02 0.  0.
         -6    2    1    2    0  502  0.61844398703E+02 -0.22756225300E+02  0.19308304343E+03  0.27092098310E+03  0.17825414997E+03 0.  0.
        -24    2    5    5    0    0 -0.23743397765E+02  0.26801901997E+02  0.23360104043E+02  0.74428629455E+02  0.60924835113E+02 0.  0.
          5    1    3    3  501    0 -0.45367170739E+02 -0.16590125779E+02  0.13825422615E+03  0.14652553874E+03  0.47000000000E+01 0. -1.
        -13    1    4    4    0    0 -0.21230243832E+02 -0.20787929863E+02  0.19163609519E+01  0.29774716127E+02  0.00000000000E+00 0.  1.
         14    1    4    4    0    0  0.47530158672E+01  0.60134280942E+02  0.94753192502E+01  0.61061481960E+02  0.00000000000E+00 0. -1.
         -5    1    5    5    0  502  0.85587796468E+02 -0.49558127298E+02  0.16972293939E+03  0.19649235364E+03  0.47000000000E+01 0.  1.
         13    1    6    6    0    0 -0.30916539519E+02 -0.10173972447E+02  0.66347248014E+01  0.33216888843E+02  0.00000000000E+00 0. -1.
        -14    1    6    6    0    0  0.71731417538E+01  0.36975874444E+02  0.16725379242E+02  0.41211740613E+02  0.00000000000E+00 0.  1.
</event>
<event>
12    1  0.8133506E-002  0.2066845E+03  0.7818608E-02  0.1144713E+00
         21   -1    0    0  501  502  0.00000000000E+00  0.00000000000E+00  0.23615947360E+02  0.23615947360E+02  0.00000000000E+00 0. -1.
         21   -1    0    0  502  503 -0.00000000000E+00 -0.00000000000E+00 -0.22103686841E+04  0.22103686841E+04  0.00000000000E+00 0.  1.
         -6    2    1    2    0  503  0.11226775231E+03  0.21459720981E+02 -0.59969920127E+03  0.63352925961E+03  0.16927971806E+03 0.  0.
        -24    2    3    3    0    0  0.13692037629E+03  0.43216413037E+02 -0.52960332184E+03  0.55596233475E+03  0.89440434705E+02 0.  0.
          6    2    1    2  501    0 -0.11226775231E+03 -0.21459720981E+02 -0.15870535355E+04  0.16004553719E+04  0.17220309232E+03 0.  0.
         24    2    5    5    0    0 -0.12966111448E+03 -0.60613093160E+02 -0.12704042578E+04  0.12808863330E+04  0.79100366180E+02 0.  0.
          5    1    5    5  501    0  0.17393362169E+02  0.39153372180E+02 -0.31664927767E+03  0.31956903894E+03  0.47000000000E+01 0. -1.
        -13    1    6    6    0    0 -0.59619139849E+02 -0.68802299445E+02 -0.81236455478E+03  0.81744991780E+03  0.00000000000E+00 0.  1.
         14    1    6    6    0    0 -0.70041974628E+02  0.81892062850E+01 -0.45803970306E+03  0.46343641515E+03  0.00000000000E+00 0. -1.
         -5    1    3    3    0  503 -0.24652623987E+02 -0.21756692057E+02 -0.70095879436E+02  0.77566924862E+02  0.47000000000E+01 0.  1.
         11    1    4    4    0    0  0.20802415497E+02 -0.25389948292E+02 -0.13553541480E+03  0.13945335647E+03  0.00000000000E+00 0. -1.
        -12    1    4    4    0    0  0.11611796080E+03  0.68606361330E+02 -0.39406790704E+03  0.41650897828E+03  0.00000000000E+00 0.  1.
</event>
<event>
12    1  0.8133506E-002  0.1950801E+03  0.7818608E-02  0.1154064E+00
         21   -1    0    0  503  502  0.00000000000E+00  0.00000000000E+00  0.13479846780E+04  0.13479846780E+04  0.00000000000E+00 0. -1.
         21   -1    0    0  501  503 -0.00000000000E+00 -0.00000000000E+00 -0.44646776683E+02  0.44646776683E+02  0.00000000000E+00 0. -1.
          6    2    1    2  501    0 -0.53062545967E+02  0.75789784154E+02  0.22803691779E+03  0.29977810778E+03  0.17119098358E+03 0.  0.
         24    2    3    3    0    0 -0.35612558588E+02  0.15944908151E+02  0.22015271148E+03  0.23676888660E+03  0.77908888242E+02 0.  0.
         -6    2    1    2    0  502  0.53062545967E+02 -0.75789784154E+02  0.10753009835E+04  0.10928533469E+04  0.17174547305E+03 0.  0.
        -24    2    5    5    0    0  0.37625305310E+01 -0.28679717635E+02  0.23307732491E+03  0.24786066587E+03  0.79203456084E+02 0.  0.
          5    1    3    3  501    0 -0.17449987379E+02  0.59844876004E+02  0.78842063152E+01  0.63009221172E+02  0.47000000000E+01 0. -1.
        -13    1    4    4    0    0  0.18733445794E+01  0.21519366539E+02  0.18097858899E+03  0.18226311264E+03  0.00000000000E+00 0.  1.
         14    1    4    4    0    0 -0.37485903167E+02 -0.55744583883E+01  0.39174122484E+02  0.54505773960E+02  0.00000000000E+00 0. -1.
         -5    1    5    5    0  502  0.49300015436E+02 -0.47110066519E+02  0.84222365861E+03  0.84499268104E+03  0.47000000000E+01 0.  1.
         11    1    6    6    0    0  0.21604528871E+02 -0.49608294275E+02  0.18170373767E+03  0.18958899443E+03  0.00000000000E+00 0. -1.
        -12    1    6    6    0    0 -0.17841998340E+02  0.20928576640E+02  0.51373587247E+02  0.58271671433E+02  0.00000000000E+00 0.  1.
</event>
<event>
12    1  0.8133506E-002  0.1796096E+03  0.7818608E-02  0.1169917E+00
         21   -1    0    0  501  502  0.00000000000E+00  0.00000000000E+00  0.50726318163E+02  0.50726318163E+02  0.00000000000E+00 0.  1.
         21   -1    0    0  502  503 -0.00000000000E+00 -0.00000000000E+00 -0.97693609374E+03  0.97693609374E+03  0.00000000000E+00 0. -1.
         -6    2    1    2    0  503 -0.26163940412E+02 -0.42364666779E+02 -0.77160792190E+03  0.79067853708E+03  0.16527082953E+03 0.  0.
        -24    2    3    3    0    0 -0.40653514812E+02 -0.70512356584E+02 -0.72502629771E+03  0.73416147842E+03  0.81885550178E+02 0.  0.
          6    2    1    2  501    0  0.26163940412E+02  0.42364666779E+02 -0.15460185368E+03  0.23698387483E+03  0.17256971634E+03 0.  0.
         24    2    5    5    0    0  0.34494844616E+02  0.83913849624E+01 -0.17393522220E+03  0.19674139751E+03  0.84813951257E+02 0.  0.
          5    1    5    5  501    0 -0.83309042039E+01  0.33973281816E+02  0.19333368515E+02  0.40242477314E+02  0.47000000000E+01 0. -1.
        -11    1    6    6    0    0 -0.14404545572E+02 -0.40992535637E+01  0.66696700899E+00  0.14991319419E+02  0.00000000000E+00 0.  1.
         12    1    6    6    0    0  0.48899390188E+02  0.12490638526E+02 -0.17460218921E+03  0.18175007809E+03  0.00000000000E+00 0. -1.
         -5    1    3    3    0  503  0.14489574399E+02  0.28147689805E+02 -0.46581624193E+02  0.56517058665E+02  0.47000000000E+01 0.  1.
         13    1    4    4    0    0 -0.51903887671E+02 -0.39179446158E+02 -0.26237920022E+03  0.27031812234E+03  0.00000000000E+00 0. -1.
        -14    1    4    4    0    0  0.11250372860E+02 -0.31332910426E+02 -0.46264709749E+03  0.46384335608E+03  0.00000000000E+00 0.  1.
</event>
<event>
12    1  0.8133506E-002  0.1837202E+03  0.7818608E-02  0.1166806E+00
         21   -1    0    0  503  502  0.00000000000E+00  0.00000000000E+00  0.23270704169E+03  0.23270704169E+03  0.00000000000E+00 0. -1.
         21   -1    0    0  501  503 -0.00000000000E+00 -0.00000000000E+00 -0.14978619181E+03  0.14978619181E+03  0.00000000000E+00 0. -1.
          6    2    1    2  501    0 -0.42660144849E+01  0.70603310794E+01  0.98725879117E+02  0.20856627922E+03  0.18353486444E+03 0.  0.
         24    2    3    3    0    0  0.60820568310E+02 -0.29278435031E+02  0.81111075420E+02  0.13182554367E+03  0.79010120374E+02 0.  0.
         -6    2    1    2    0  502  0.42660144849E+01 -0.70603310794E+01 -0.15805029234E+02  0.17392695429E+03  0.17301080696E+03 0.  0.
        -24    2    5    5    0    0  0.27221347173E+02  0.58020070562E+02 -0.49158661714E+00  0.10308207091E+03  0.80736245610E+02 0.  0.
          5    1    3    3  501    0 -0.65086582795E+02  0.36338766110E+02  0.17614803697E+02  0.76740735543E+02  0.47000000000E+01 0. -1.
        -13    1    4    4    0    0  0.18295976511E+02 -0.30866654647E+02 -0.45576433180E+01  0.36169949381E+02  0.00000000000E+00 0.  1.
         14    1    4    4    0    0  0.42524591799E+02  0.15882196160E+01  0.85668718738E+02  0.95655594292E+02  0.00000000000E+00 0. -1.
         -5    1    5    5    0  502 -0.22955332688E+02 -0.65080401642E+02 -0.15313442617E+02  0.70844883382E+02  0.47000000000E+01 0.  1.
         13    1    6    6    0    0 -0.28528961804E+02  0.12674555779E+02 -0.11479973523E+00  0.31217930821E+02  0.00000000000E+00 0. -1.
        -14    1    6    6    0    0  0.55750308976E+02  0.45345514783E+02 -0.37678688191E+00  0.71864140086E+02  0.00000000000E+00 0.  1.
</event>
<event>
12    1  0.8133506E-002  0.1944152E+03  0.7818608E-02  0.1156398E+00
         21   -1    0    0  501  502  0.00000000000E+00  0.00000000000E+00  0.97302634522E+02  0.97302634522E+02  0.00000000000E+00 0. -1.
         21   -1    0    0  502  503 -0.00000000000E+00 -0.00000000000E+00 -0.39318535899E+03  0.39318535899E+03  0.00000000000E+00 0. -1.
         -6    2    1    2    0  503 -0.66702614335E+02  0.17591009314E+01 -0.88028479121E+02  0.20588184471E+03  0.17374115128E+03 0.  0.
        -24    2    3    3    0    0 -0.66565399938E+02  0.63648954897E+02 -0.42797054284E+02  0.12908116343E+03  0.79675698735E+02 0.  0.
          6    2    1    2  501    0  0.66702614335E+02 -0.17591009314E+01 -0.20785424534E+03  0.28460614880E+03  0.18260596768E+03 0.  0.
         24    2    5    5    0    0 -0.72387839539E+01  0.47413580609E+02 -0.52391486207E+02  0.10550829156E+03  0.78017204134E+02 0.  0.
          5    1    5    5  501    0  0.73941398289E+02 -0.49172681541E+02 -0.15546275914E+03  0.17909785724E+03  0.47000000000E+01 0. -1.
        -11    1    6    6    0    0  0.68447870735E+01  0.62129570082E+02 -0.17169858255E+02  0.64820819349E+02  0.00000000000E+00 0.  1.
         12    1    6    6    0    0 -0.14083571027E+02 -0.14715989473E+02 -0.35221627952E+02  0.40687472207E+02  0.00000000000E+00 0. -1.
         -5    1    3    3    0  503 -0.13721439653E+00 -0.61889853966E+02 -0.45231424837E+02  0.76800681276E+02  0.47000000000E+01 0.  1.
         11    1    4    4    0    0 -0.68231960507E+02  0.11264605128E+02 -0.28119825835E+02  0.74653977579E+02  0.00000000000E+00 0. -1.
        -12    1    4    4    0    0  0.16665605687E+01  0.52384349770E+02 -0.14677228448E+02  0.54427185853E+02  0.00000000000E+00 0.  1.
</event>
<event>
12    1  0.8133506E-002  0.2120192E+03  0.7818608E-02  0.1140055E+00
         21   -1    0    0  501  502  0.00000000000E+00  0.00000000000E+00  0.91414139948E+03  0.91414139948E+03  0.00000000000E+00 0. -1.
         21   -1    0    0  502  503 -0.00000000000E+00 -0.00000000000E+00 -0.65663893862E+02  0.65663893862E+02  0.00000000000E+00 0.  1.
         -6    2    1    2    0  503 -0.10934143584E+03  0.58440261167E+02  0.17775327612E+03  0.27636864778E+03  0.17150098713E+03 0.  0.
        -24    2    3    3    0    0 -0.91811621568E+02  0.53902314223E+02  0.20451465963E+03  0.24371671065E+03  0.78973132861E+02 0.  0.
          6    2    1    2  501    0  0.10934143584E+03 -0.58440261167E+02  0.67072422950E+03  0.70343664556E+03  0.17199217590E+03 0.  0.
         24    2    5    5    0    0  0.26596503859E+02 -0.78232316977E+02  0.49174531887E+03  0.50520952913E+03  0.81212931570E+02 0.  0.
          5    1    5    5  501    0  0.82744931980E+02  0.19792055810E+02  0.17897891063E+03  0.19822711644E+03  0.47000000000E+01 0. -1.
        -13    1    6    6    0    0  0.43926675491E+02 -0.26014335895E+02  0.13660802029E+03  0.14583569419E+03  0.00000000000E+00 0.  1.
         14    1    6    6    0    0 -0.17330171632E+02 -0.52217981083E+02  0.35513729858E+03  0.35937383494E+03  0.00000000000E+00 0. -1.
         -5    1    3    3    0  503 -0.17529814272E+02  0.45379469439E+01 -0.26761383508E+02  0.32651937127E+02  0.47000000000E+01 0.  1.
         13    1    4    4    0    0 -0.35936717275E+02  0.61701898821E+02  0.81327868540E+02  0.10822566317E+03  0.00000000000E+00 0. -1.
        -14    1    4    4    0    0 -0.55874904293E+02 -0.77995845978E+01  0.12318679109E+03  0.13549104748E+03  0.00000000000E+00 0.  1.
</event>
<event>
12    1  0.8133506E-002  0.1829584E+03  0.7818608E-02  0.1165006E+00
         21   -1    0    0  501  502  0.00000000000E+00  0.00000000000E+00  0.19158792920E+03  0.19158792920E+03  0.00000000000E+00 0. -1.
         21   -1    0    0  502  503 -0.00000000000E+00 -0.00000000000E+00 -0.27823526148E+03  0.27823526148E+03  0.00000000000E+00 0. -1.
         -6    2    1    2    0  503  0.10298220092E+02 -0.62148189582E+02 -0.18672107657E+03  0.26141638985E+03  0.17177111993E+03 0.  0.
        -24    2    3    3    0    0 -0.18387877459E+01 -0.10056052363E+03 -0.17830961678E+03  0.21999589949E+03  0.80548595885E+02 0.  0.
          6    2    1    2  501    0 -0.10298220092E+02  0.62148189582E+02  0.10007374429E+03  0.20840680082E+03  0.17161057522E+03 0.  0.
         24    2    5    5    0    0 -0.14324322301E+02 -0.21316360339E+02  0.92507404806E+02  0.12437180760E+03  0.79064234357E+02 0.  0.
          5    1    5    5  501    0  0.40261022095E+01  0.83464549921E+02  0.75663394838E+01  0.84034993221E+02  0.47000000000E+01 0. -1.
        -11    1    6    6    0    0 -0.42136680689E+02 -0.31400035110E+02  0.68108070309E+02  0.86024248358E+02  0.00000000000E+00 0.  1.
         12    1    6    6    0    0  0.27812358388E+02  0.10083674771E+02  0.24399334497E+02  0.38347559242E+02  0.00000000000E+00 0. -1.
         -5    1    3    3    0  503  0.12137007837E+02  0.38412334053E+02 -0.84114597914E+01  0.41420490369E+02  0.47000000000E+01 0.  1.
         13    1    4    4    0    0 -0.12603458257E+02 -0.89101874415E+02 -0.79908834449E+02  0.12034705234E+03  0.00000000000E+00 0. -1.
        -14    1    4    4    0    0  0.10764670511E+02 -0.11458649220E+02 -0.98400782334E+02  0.99648847144E+02  0.00000000000E+00 0.  1.
</event>
<event>
12    1  0.8133506E-002  0.2125518E+03  0.7818608E-02  0.1139576E+00
         21   -1    0    0  503  502  0.00000000000E+00  0.00000000000E+00  0.10856740327E+04  0.10856740327E+04  0.00000000000E+00 0. -1.
         21   -1    0    0  501  503 -0.00000000000E+00 -0.00000000000E+00 -0.44477236717E+02  0.44477236717E+02  0.00000000000E+00 0.  1.
          6    2    1    2  501    0 -0.35446874778E+02  0.12106796713E+03  0.66427215698E+03  0.69742681834E+03  0.17097583105E+03 0.  0.
         24    2    3    3    0    0 -0.15234225567E+02  0.92757140209E+02  0.23196437093E+03  0.26369629602E+03  0.83019867906E+02 0.  0.
         -6    2    1    2    0  502  0.35446874778E+02 -0.12106796713E+03  0.37692463900E+03  0.43272445108E+03  0.17106821294E+03 0.  0.
        -24    2    5    5    0    0  0.22731624413E+02 -0.13706114000E+02  0.26134483573E+03  0.27439243908E+03  0.79281165185E+02 0.  0.
          5    1    3    3  501    0 -0.20212649212E+02  0.28310826916E+02  0.43230778605E+03  0.43373052232E+03  0.47000000000E+01 0. -1.
        -11    1    4    4    0    0 -0.34018898454E+02  0.39986019527E+02  0.17924223987E+03  0.18677244915E+03  0.00000000000E+00 0.  1.
         12    1    4    4    0    0  0.18784672888E+02  0.52771120682E+02  0.52722131059E+02  0.76923846868E+02  0.00000000000E+00 0. -1.
         -5    1    5    5    0  502  0.12715250365E+02 -0.10736185312E+03  0.11557980328E+03  0.15833201200E+03  0.47000000000E+01 0.  1.
         11    1    6    6    0    0  0.44489755265E+01 -0.44449416262E+02  0.18124719927E+03  0.18667107765E+03  0.00000000000E+00 0. -1.
        -12    1    6    6    0    0  0.18282648886E+02  0.30743302262E+02  0.80097636456E+02  0.87721361424E+02  0.00000000000E+00 0.  1.
</event>
<event>
12    1  0.8133506E-002  0.2080616E+03  0.7818608E-02  0.1143526E+00
         21   -1    0    0  503  502  0.00000000000E+00  0.00000000000E+00  0.76243787129E+02  0.76243787129E+02  0.00000000000E+00 0. -1.
         21   -1    0    0  501  503 -0.00000000000E+00 -0.00000000000E+00 -0.57084800389E+03  0.57084800389E+03  0.00000000000E+00 0. -1.
          6    2    1    2  501    0  0.60909973133E+02  0.10087838902E+03 -0.20616550942E+03  0.29144237540E+03  0.16896143556E+03 0.  0.
         24    2    3    3    0    0 -0.69297398192E+01  0.12656793032E+02 -0.35997156257E+02  0.88059399047E+02  0.79059767253E+02 0.  0.
         -6    2    1    2    0  502 -0.60909973133E+02 -0.10087838902E+03 -0.28843870733E+03  0.35564941561E+03  0.17147345199E+03 0.  0.
        -24    2    5    5    0    0 -0.68499619738E+02 -0.12564186504E+03 -0.17696063963E+03  0.24110561587E+03  0.79616417097E+02 0.  0.
          5    1    3    3  501    0  0.67839712953E+02  0.88221595988E+02 -0.17016835317E+03  0.20338297636E+03  0.47000000000E+01 0. -1.
        -13    1    4    4    0    0 -0.16627428320E+02  0.42156284604E+02 -0.75405459939E+01  0.45939999326E+02  0.00000000000E+00 0.  1.
         14    1    4    4    0    0  0.96976885010E+01 -0.29499491572E+02 -0.28456610263E+02  0.42119399722E+02  0.00000000000E+00 0. -1.
         -5    1    5    5    0  502  0.75896466050E+01  0.24763476016E+02 -0.11147806771E+03  0.11454379974E+03  0.47000000000E+01 0.  1.
         13    1    6    6    0    0 -0.68192449042E+02 -0.59136600978E+02 -0.66292000602E+02  0.11199096850E+03  0.00000000000E+00 0. -1.
        -14    1    6    6    0    0 -0.30717069631E+00 -0.66505264059E+02 -0.11066863902E+03  0.12911464737E+03  0.00000000000E+00 0.  1.
</event>
<event>
12    1  0.8133506E-002  0.2068134E+03  0.7818608E-02  0.1144163E+00
         21   -1    0    0  503  502  0.00000000000E+00  0.00000000000E+00  0.11603730687E+03  0.11603730687E+03  0.00000000000E+00 0.  1.
         21   -1    0    0  501  503 -0.00000000000E+00 -0.00000000000E+00 -0.82599015108E+03  0.82599015108E+03  0.00000000000E+00 0.  1.
          6    2    1    2  501    0 -0.96216035588E+02  0.61226944191E+02 -0.70554876275E+03  0.73516718494E+03  0.17223666563E+03 0.  0.
         24    2    3    3    0    0 -0.24489083974E+02  0.79738276799E+02 -0.56056409708E+03  0.57228665110E+03  0.79510980830E+02 0.  0.
         -6    2    1    2    0  502  0.96216035588E+02 -0.61226944191E+02 -0.44040814494E+01  0.20686027301E+03  0.17252684550E+03 0.  0.
        -24    2    5    5    0    0  0.47609636390E+02  0.28666982147E+02  0.31180484730E+02  0.98546601735E+02  0.75171382473E+02 0.  0.
          5    1    3    3  501    0 -0.71726951614E+02 -0.18511332608E+02 -0.14498466568E+03  0.16288053384E+03  0.47000000000E+01 0. -1.
        -11    1    4    4    0    0 -0.51770088553E+02  0.65390231841E+02 -0.37337599329E+03  0.38257764814E+03  0.00000000000E+00 0.  1.
         12    1    4    4    0    0  0.27281004579E+02  0.14348044958E+02 -0.18718810379E+03  0.18970900296E+03  0.00000000000E+00 0. -1.
         -5    1    5    5    0  502  0.48606399197E+02 -0.89893926338E+02 -0.35584566179E+02  0.10831367128E+03  0.47000000000E+01 0.  1.
         13    1    6    6    0    0 -0.15125705330E+02  0.35310826922E+01  0.26606478269E+02  0.30808443528E+02  0.00000000000E+00 0. -1.
        -14    1    6    6    0    0  0.62735341721E+02  0.25135899455E+02  0.45740064607E+01  0.67738158207E+02  0.00000000000E+00 0.  1.
</event>
<event>
12    1  0.8133506E-002  0.1979854E+03  0.7818608E-02  0.1151541E+00
         21   -1    0    0  501  502  0.00000000000E+00  0.00000000000E+00  0.23293078623E+02  0.23293078623E+02  0.00000000000E+00 0. -1.
         21   -1    0    0  502  503 -0.00000000000E+00 -0.00000000000E+00 -0.18910481385E+04  0.18910481385E+04  0.00000000000E+00 0. -1.
         -6    2    1    2    0  503  0.35948687202E+02  0.90332371551E+02 -0.61441434998E+03  0.64552552469E+03  0.17247018321E+03 0.  0.
        -24    2    3    3    0    0  0.80441555910E+02  0.20589911949E+02 -0.33854699314E+03  0.35748296775E+03  0.79279362223E+02 0.  0.
          6    2    1    2  501    0 -0.35948687202E+02 -0.90332371551E+02 -0.12533407099E+04  0.12688156924E+04  0.17198279224E+03 0.  0.
         24    2    5    5    0    0  0.27234873436E+02 -0.44935462140E+02 -0.93929349835E+03  0.94524068907E+03  0.91906203020E+02 0.  0.
          5    1    5    5  501    0 -0.63183560638E+02 -0.45396909411E+02 -0.31404721152E+03  0.32357500334E+03  0.47000000000E+01 0. -1.
        -11    1    6    6    0    0  0.99343657815E+01 -0.15245219435E+02 -0.28592264706E+02  0.33891384453E+02  0.00000000000E+00 0.  1.
         12    1    6    6    0    0  0.17300507654E+02 -0.29690242705E+02 -0.91070123364E+03  0.91134930462E+03  0.00000000000E+00 0. -1.
         -5    1    3    3    0  503 -0.44492868709E+02  0.69742459602E+02 -0.27586735684E+03  0.28804255694E+03  0.47000000000E+01 0.  1.
         13    1    4    4    0    0  0.22535429896E+02  0.16344572089E+02 -0.25033139561E+03  0.25187456852E+03  0.00000000000E+00 0. -1.
        -14    1    4    4    0    0  0.57906126015E+02  0.42453398606E+01 -0.88215597527E+02  0.10560839923E+03  0.00000000000E+00 0.  1.
</event>
<event>
12    1  0.8133506E-002  0.2159282E+03  0.7818608E-02  0.1137017E+00
         21   -1    0    0  501  502  0.00000000000E+00  0.00000000000E+00  0.17443455504E+03  0.17443455504E+03  0.00000000000E+00 0.  1.
         21   -1    0    0  502  503 -0.00000000000E+00 -0.00000000000E+00 -0.27462580342E+03  0.27462580342E+03  0.00000000000E+00 0.  1.
         -6    2    1    2    0  503 -0.57519715402E+02  0.11663052303E+03 -0.87724946282E+02  0.23277259904E+03  0.17197738253E+03 0.  0.
        -24    2    3    3    0    0  0.15442153927E+02  0.10365004162E+02 -0.57165584399E+02  0.10021408564E+03  0.80181453538E+02 0.  0.
          6    2    1    2  501    0  0.57519715402E+02 -0.11663052303E+03 -0.12466302093E+02  0.21628775942E+03  0.17237688251E+03 0.  0.
         24    2    5    5    0    0  0.61383211188E+02 -0.13825001599E+03  0.26224965166E+02  0.17155037866E+03  0.76555980069E+02 0.  0.
          5    1    5    5  501    0 -0.38634957859E+01  0.21619492954E+02 -0.38691267259E+02  0.44737380761E+02  0.47000000000E+01 0. -1.
        -11    1    6    6    0    0  0.28153528790E+02 -0.56624676151E+02 -0.26817983215E+02  0.68689004624E+02  0.00000000000E+00 0.  1.
         12    1    6    6    0    0  0.33229682398E+02 -0.81625339837E+02  0.53042948381E+02  0.10286137404E+03  0.00000000000E+00 0. -1.
         -5    1    3    3    0  503 -0.72961869329E+02  0.10626551887E+03 -0.30559361884E+02  0.13255851340E+03  0.47000000000E+01 0.  1.
         11    1    4    4    0    0 -0.28188081344E+01 -0.29673091783E+02 -0.23203399204E+01  0.29896856567E+02  0.00000000000E+00 0. -1.
        -12    1    4    4    0    0  0.18260962061E+02  0.40038095945E+02 -0.54845244478E+02  0.70317229071E+02  0.00000000000E+00 0.  1.
</event>
<event>
12    1  0.8133506E-002  0.3154479E+03  0.7818608E-02  0.1077808E+00
         21   -1    0    0  503  502  0.00000000000E+00  0.00000000000E+00  0.86726604585E+03  0.86726604585E+03  0.00000000000E+00 0. -1.
         21   -1    0    0  501  503 -0.00000000000E+00 -0.00000000000E+00 -0.12398938488E+03  0.12398938488E+03  0.00000000000E+00 0.  1.
          6    2    1    2  501    0 -0.22402362649E+02  0.26271949855E+03  0.23544519996E+03  0.39362647544E+03  0.17315876881E+03 0.  0.
         24    2    3    3    0    0  0.25764753896E+02  0.10080483763E+03  0.16551022899E+03  0.21073465305E+03  0.78676681807E+02 0.  0.
         -6    2    1    2    0  502  0.22402362649E+02 -0.26271949855E+03  0.50783146101E+03  0.59762895529E+03  0.17246499542E+03 0.  0.
        -24    2    5    5    0    0  0.21408167828E+01 -0.27148908299E+03  0.41611271175E+03  0.50317338469E+03  0.79515790268E+02 0.  0.
          5    1    3    3  501    0 -0.48167116545E+02  0.16191466091E+03  0.69934970966E+02  0.18289182240E+03  0.47000000000E+01 0. -1.
        -13    1    4    4    0    0  0.34228288178E+02  0.10227169014E+03  0.10814495478E+03  0.15272984502E+03  0.00000000000E+00 0.  1.
         14    1    4    4    0    0 -0.84635342824E+01 -0.14668525057E+01  0.57365274211E+02  0.58004808026E+02  0.00000000000E+00 0. -1.
         -5    1    5    5    0  502  0.20261545866E+02  0.87695844428E+01  0.91718749261E+02  0.94455570604E+02  0.47000000000E+01 0.  1.
         11    1    6    6    0    0  0.31112054233E+02 -0.11681104626E+03  0.13661218138E+03  0.18241619596E+03  0.00000000000E+00 0. -1.
        -12    1    6    6    0    0 -0.28971237451E+02 -0.15467803673E+03  0.27950053037E+03  0.32075718873E+03  0.00000000000E+00 0.  1.
</event>
<event>
12    1  0.8133506E-002  0.1963852E+03  0.7818608E-02  0.1153176E+00
         21   -1    0    0  501  502  0.00000000000E+00  0.00000000000E+00  0.74490697295E+02  0.74490697295E+02  0.00000000000E+00 0. -1.
         21   -1    0    0  502  503 -0.00000000000E+00 -0.00000000000E+00 -0.89890930064E+03  0.89890930064E+03  0.00000000000E+00 0. -1.
         -6    2    1    2    0  503  0.55184791997E+02 -0.78858128971E+02 -0.92543074545E+02  0.21563423886E+03  0.16932199665E+03 0.  0.
        -24    2    3    3    0    0  0.84969083674E+02 -0.10198121363E+03 -0.61771843803E+02  0.16673904773E+03  0.79788697428E+02 0.  0.
          6    2    1    2  501    0 -0.55184791997E+02  0.78858128971E+02 -0.73187552880E+03  0.75776575907E+03  0.17118174610E+03 0.  0.
         24    2    5    5    0    0  0.33233630565E+02  0.53980418035E+02 -0.32519676187E+03  0.34081680846E+03  0.79904963950E+02 0.  0.
          5    1    5    5  501    0 -0.88418422562E+02  0.24877710936E+02 -0.40667876692E+03  0.41694895061E+03  0.47000000000E+01 0. -1.
        -13    1    6    6    0    0 -0.88432131514E+01 -0.15140911562E+02 -0.99927432119E+02  0.10145413403E+03  0.00000000000E+00 0.  1.
         14    1    6    6    0    0  0.42076843717E+02  0.69121329596E+02 -0.22526932975E+03  0.23936267443E+03  0.00000000000E+00 0. -1.
         -5    1    3    3    0  503 -0.29784291677E+02  0.23123084654E+02 -0.30771230742E+02  0.48895191134E+02  0.47000000000E+01 0.  1.
         11    1    4    4    0    0 -0.83406224057E+01 -0.30168602444E+02  0.45050612730E+01  0.31622873566E+02  0.00000000000E+00 0. -1.
        -12    1    4    4    0    0  0.93309706079E+02 -0.71812611181E+02 -0.66276905076E+02  0.13511617416E+03  0.00000000000E+00 0.  1.
</event>
<event>
12    1  0.8133506E-002  0.1919860E+03  0.7818608E-02  0.1157051E+00
         21   -1    0    0  501  502  0.00000000000E+00  0.00000000000E+00  0.18756699427E+04  0.18756699427E+04  0.00000000000E+00 0. -1.
         21   -1    0    0  502  503 -0.00000000000E+00 -0.00000000000E+00 -0.27373234605E+02  0.27373234605E+02  0.00000000000E+00 0. -1.
         -6    2    1    2    0  503  0.28738647135E+02 -0.72552303902E+02  0.41610985864E+03  0.45826414848E+03  0.17541057175E+03 0.  0.
        -24    2    3    3    0    0  0.46222051911E+02 -0.10353237124E+03  0.22739625208E+03  0.26616951213E+03  0.79257326135E+02 0.  0.
          6    2    1    2  501    0 -0.28738647135E+02  0.72552303902E+02  0.14321868494E+04  0.14447790288E+04  0.17360162370E+03 0.  0.
         24    2    5    5    0    0  0.38270138004E+02  0.31820633156E+02  0.10781900687E+04  0.10821703457E+04  0.78241144765E+02 0.  0.
          5    1    5    5  501    0 -0.67008785140E+02  0.40731670746E+02  0.35399678072E+03  0.36260868309E+03  0.47000000000E+01 0. -1.
        -11    1    6    6    0    0  0.78451909867E+01  0.39387621521E+01  0.10513513646E+02  0.13696526498E+02  0.00000000000E+00 0.  1.
         12    1    6    6    0    0  0.30424947017E+02  0.27881871004E+02  0.10676765551E+04  0.10684738192E+04  0.00000000000E+00 0. -1.
         -5    1    3    3    0  503 -0.17483404775E+02  0.30980067339E+02  0.18871360656E+03  0.19209463635E+03  0.47000000000E+01 0.  1.
         13    1    4    4    0    0  0.55309544472E+01 -0.78482713880E+02  0.18949686775E+03  0.20518087319E+03  0.00000000000E+00 0. -1.
        -14    1    4    4    0    0  0.40691097464E+02 -0.25049657361E+02  0.37899384335E+02  0.60988638939E+02  0.00000000000E+00 0.  1.
</event>
<event>
12    1  0.8133506E-002  0.2055020E+03  0.7818608E-02  0.1145318E+00
         21   -1    0    0  501  502  0.00000000000E+00  0.00000000000E+00  0.47394803155E+02  0.47394803155E+02  0.00000000000E+00 0.  1.
         21   -1    0    0  502  503 -0.00000000000E+00 -0.00000000000E+00 -0.88852942960E+03  0.88852942960E+03  0.00000000000E+00 0.  1.
         -6    2    1    2    0  503 -0.19264388662E+01  0.11065664219E+03 -0.43178682630E+03  0.47819549020E+03  0.17315443931E+03 0.  0.
        -24    2    3    3    0    0 -0.29120312611E+02 -0.82175880322E+00 -0.12899707059E+03  0.15435808220E+03  0.79608450713E+02 0.  0.
          6    2    1    2  501    0  0.19264388662E+01 -0.11065664219E+03 -0.40934780014E+03  0.45772874255E+03  0.17234087342E+03 0.  0.
         24    2    5    5    0    0 -0.20235890444E+02 -0.14249849029E+03 -0.35102808188E+03  0.38752652273E+03  0.78998611058E+02 0.  0.
          5    1    5    5  501    0  0.22162329311E+02  0.31841848097E+02 -0.58319718260E+02  0.70202219827E+02  0.47000000000E+01 0. -1.
        -13    1    6    6    0    0 -0.38036376800E+02 -0.75574313684E+02 -0.25823104346E+03  0.27173795218E+03  0.00000000000E+00 0.  1.
         14    1    6    6    0    0  0.17800486356E+02 -0.66924176608E+02 -0.92797038423E+02  0.11578857055E+03  0.00000000000E+00 0. -1.
         -5    1    3    3    0  503  0.27193873745E+02  0.11147840100E+03 -0.30278975571E+03  0.32383740800E+03  0.47000000000E+01 0.  1.
         13    1    4    4    0    0 -0.10019065063E+02  0.37387779850E+02 -0.40120461810E+02  0.55748356054E+02  0.00000000000E+00 0. -1.
        -14    1    4    4    0    0 -0.19101247548E+02 -0.38209538653E+02 -0.88876608782E+02  0.98609726146E+02  0.00000000000E+00 0.  1.
</event>
<event>
12    1  0.8133506E-002  0.2137454E+03  0.7818608E-02  0.1138774E+00
         21   -1    0    0  501  502  0.00000000000E+00  0.00000000000E+00  0.96981535953E+02  0.96981535953E+02  0.00000000000E+00 0. -1.
         21   -1    0    0  502  503 -0.00000000000E+00 -0.00000000000E+00 -0.48402525933E+03  0.48402525933E+03  0.00000000000E+00 0.  1.
         -6    2    1    2    0  503 -0.11179786915E+03  0.66093274052E+02 -0.24417552253E+03  0.32451312274E+03  0.16976453284E+03 0.  0.
        -24    2    3    3    0    0 -0.10414948696E+02  0.50435709458E+02 -0.61356758281E+02  0.11482657942E+03  0.82269433025E+02 0.  0.
          6    2    1    2  501    0  0.11179786915E+03 -0.66093274052E+02 -0.14286820085E+03  0.25649367254E+03  0.16885081231E+03 0.  0.
         24    2    5    5    0    0  0.13306495617E+03 -0.78565472837E+02 -0.15530140710E+03  0.22848439997E+03  0.64867387031E+02 0.  0.
          5    1    5    5  501    0 -0.21267087014E+02  0.12472198785E+02  0.12433206246E+02  0.28009272575E+02  0.47000000000E+01 0. -1.
        -11    1    6    6    0    0  0.10795283768E+03 -0.86869014502E+02 -0.11396501440E+03  0.17941032676E+03  0.00000000000E+00 0.  1.
         12    1    6    6    0    0  0.25112118489E+02  0.83035416652E+01 -0.41336392703E+02  0.49074073204E+02  0.00000000000E+00 0. -1.
         -5    1    3    3    0  503 -0.10138292046E+03  0.15657564595E+02 -0.18281876425E+03  0.20968654332E+03  0.47000000000E+01 0.  1.
         13    1    4    4    0    0  0.23362178069E+02 -0.11517791005E+02 -0.11770344658E+02  0.28583069939E+02  0.00000000000E+00 0. -1.
        -14    1    4    4    0    0 -0.33777126765E+02  0.61953500463E+02 -0.49586413622E+02  0.86243509483E+02  0.00000000000E+00 0.  1.
</event>
<event>
12    1  0.8133506E-002  0.2106252E+03  0.7818608E-02  0.1141965E+00
         21   -1    0    0  501  502  0.00000000000E+00  0.00000000000E+00  0.13996208767E+03  0.13996208767E+03  0.00000000000E+00 0.  1.
         21   -1    0    0  502  503 -0.00000000000E+00 -0.00000000000E+00 -0.31110819541E+03  0.31110819541E+03  0.00000000000E+00 0. -1.
         -6    2    1    2    0  503  0.10116314737E+03  0.48091931585E+02 -0.96388021871E+02  0.22757142369E+03  0.17306439799E+03 0.  0.
        -24    2    3    3    0    0  0.13427113514E+03  0.49723900448E+02 -0.10365191170E+03  0.19331275658E+03  0.78261734259E+02 0.  0.
          6    2    1    2  501    0 -0.10116314737E+03 -0.48091931585E+02 -0.74758085865E+02  0.22349885939E+03  0.17837082855E+03 0.  0.
         24    2    5    5    0    0 -0.19579828674E+02  0.38379042160E+02 -0.49799259805E+02  0.10193364978E+03  0.77808624918E+02 0.  0.
          5    1    5    5  501    0 -0.81583318696E+02 -0.86470973745E+02 -0.24958826059E+02  0.12156520961E+03  0.47000000000E+01 0. -1.
        -13    1    6    6    0    0 -0.19767815784E+02  0.30527968900E+02  0.13016863901E+02  0.38628515009E+02  0.00000000000E+00 0.  1.
         14    1    6    6    0    0  0.18798711065E+00  0.78510732601E+01 -0.62816123706E+02  0.63305134767E+02  0.00000000000E+00 0. -1.
         -5    1    3    3    0  503 -0.33107987775E+02 -0.16319688624E+01  0.72638898260E+01  0.34258667112E+02  0.47000000000E+01 0.  1.
         13    1    4    4    0    0  0.60587157460E+02  0.42002873911E+02 -0.10775137224E+02  0.74506030951E+02  0.00000000000E+00 0. -1.
        -14    1    4    4    0    0  0.73683977685E+02  0.77210265366E+01 -0.92876774472E+02  0.11880672563E+03  0.00000000000E+00 0.  1.
</event>
<event>
12    1  0.8133506E-002  0.1771152E+03  0.7818608E-02  0.1170698E+00
         21   -1    0    0  501  502  0.00000000000E+00  0.00000000000E+00  0.14646678574E+03  0.14646678574E+03  0.00000000000E+00 0. -1.
         21   -1    0    0  502  503 -0.00000000000E+00 -0.00000000000E+00 -0.24160792651E+03  0.24160792651E+03  0.00000000000E+00 0. -1.
         -6    2    1    2    0  503 -0.18216323014E+02  0.43643121093E+02  0.18202903765E+02  0.17804818320E+03  0.17068466068E+03 0.  0.
        -24    2    3    3    0    0 -0.19594643504E+02  0.90811039455E+02 -0.11964936836E+02  0.12184408285E+03  0.77924488256E+02 0.  0.
          6    2    1    2  501    0  0.18216323014E+02 -0.43643121093E+02 -0.11334404453E+03  0.21002652905E+03  0.17037521543E+03 0.  0.
         24    2    5    5    0    0 -0.15041235383E+02  0.10692325631E+02 -0.23154367357E+01  0.81933407808E+02  0.79794470225E+02 0.  0.
          5    1    5    5  501    0  0.33257558397E+02 -0.54335446724E+02 -0.11102860780E+03  0.12809312125E+03  0.47000000000E+01 0. -1.
        -11    1    6    6    0    0 -0.17124364519E+02 -0.55003875243E+01 -0.38358075085E+02  0.42365552603E+02  0.00000000000E+00 0.  1.
         12    1    6    6    0    0  0.20831291364E+01  0.16192713155E+02  0.36042638349E+02  0.39567855205E+02  0.00000000000E+00 0. -1.
         -5    1    3    3    0  503  0.13783204903E+01 -0.47167918362E+02  0.30167840601E+02  0.56204100353E+02  0.47000000000E+01 0.  1.
         11    1    4    4    0    0  0.99579810326E+01  0.55273179402E+02  0.26133907486E+02  0.61945676750E+02  0.00000000000E+00 0. -1.
        -12    1    4    4    0    0 -0.29552624537E+02  0.35537860053E+02 -0.38098844322E+02  0.59898406096E+02  0.00000000000E+00 0.  1.
</event>
<event>
12    1  0.8133506E-002  0.1994264E+03  0.7818608E-02  0.1150422E+00
         21   -1    0    0  501  502  0.00000000000E+00  0.00000000000E+00  0.14999018187E+04  0.14999018187E+04  0.00000000000E+00 0.  1.
         21   -1    0    0  502  503 -0.00000000000E+00 -0.00000000000E+00 -0.26692849939E+02  0.26692849939E+02  0.00000000000E+00 0. -1.
         -6    2    1    2    0  503 -0.96893117488E+02  0.12152907228E+02  0.65720769498E+03  0.68679898237E+03  0.17388190954E+03 0.  0.
        -24    2    3    3    0    0 -0.49843636788E+02  0.50046670999E+02  0.19555724973E+03  0.22118882937E+03  0.75450665415E+02 0.  0.
          6    2    1    2  501    0  0.96893117488E+02 -0.12152907228E+02  0.81600127382E+03  0.83979568632E+03  0.17280840982E+03 0.  0.
         24    2    5    5    0    0  0.87144378818E+02  0.24384236582E+02  0.77204186702E+03  0.78161905673E+03  0.81798359773E+02 0.  0.
          5    1    5    5  501    0  0.97487386697E+01 -0.36537143810E+02  0.43959406806E+02  0.58176629587E+02  0.47000000000E+01 0. -1.
        -13    1    6    6    0    0  0.36484615796E+02  0.52414362834E+02  0.42844365069E+03  0.43317704745E+03  0.00000000000E+00 0.  1.
         14    1    6    6    0    0  0.50659763022E+02 -0.28030126252E+02  0.34359821633E+03  0.34844200928E+03  0.00000000000E+00 0. -1.
         -5    1    3    3    0  503 -0.47049480700E+02 -0.37893763771E+02  0.46165044526E+03  0.46561015300E+03  0.47000000000E+01 0.  1.
         11    1    4    4    0    0 -0.51281991558E+02  0.50515250871E+02  0.20206694590E+03  0.21450567324E+03  0.00000000000E+00 0. -1.
        -12    1    4    4    0    0  0.14383547703E+01 -0.46857987219E+00 -0.65096961733E+01  0.66831561264E+01  0.00000000000E+00 0.  1.
</event>
<event>
12    1  0.8133506E-002  0.2027691E+03  0.7818608E-02  0.1147478E+00
         21   -1    0    0  501  502  0.00000000000E+00  0.00000000000E+00  0.47755951073E+03  0.47755951073E+03  0.00000000000E+00 0. -1.
         21   -1    0    0  502  503 -0.00000000000E+00 -0.00000000000E+00 -0.12447951463E+03  0.12447951463E+03  0.00000000000E+00 0.  1.
         -6    2    1    2    0  503 -0.12858745420E+02 -0.10486366796E+03  0.34402026976E+03  0.39933098835E+03  0.17307095671E+03 0.  0.
        -24    2    3    3    0    0  0.10844873106E+02 -0.10825742672E+03  0.14082358672E+03  0.19467429745E+03  0.78927294383E+02 0.  0.
          6    2    1    2  501    0  0.12858745420E+02  0.10486366796E+03  0.90597263429E+01  0.20270803701E+03  0.17276207174E+03 0.  0.
         24    2    5    5    0    0 -0.26173158807E+01  0.14033493273E+03 -0.39097909001E+01  0.16162254717E+03  0.80036351743E+02 0.  0.
          5    1    5    5  501    0  0.15476061301E+02 -0.35471264770E+02  0.12969517243E+02  0.41085489839E+02  0.47000000000E+01 0. -1.
        -11    1    6    6    0    0 -0.22798841506E+02  0.61601940160E+01 -0.10352079187E+02  0.25785668652E+02  0.00000000000E+00 0.  1.
         12    1    6    6    0    0  0.20181525625E+02  0.13417473872E+03  0.64422882871E+01  0.13583687852E+03  0.00000000000E+00 0. -1.
         -5    1    3    3    0  503 -0.23703618526E+02  0.33937587593E+01  0.20319668304E+03  0.20465669089E+03  0.47000000000E+01 0.  1.
         13    1    4    4    0    0  0.61662715202E+01 -0.81059346719E+02  0.14551281836E+03  0.16668119541E+03  0.00000000000E+00 0. -1.
        -14    1    4    4    0    0  0.46786015860E+01 -0.27198080003E+02 -0.46892316426E+01  0.27993102044E+02  0.00000000000E+00 0.  1.
</event>
<event>
12    1  0.8133506E-002  0.2333383E+03  0.7818608E-02  0.1124314E+00
         21   -1    0    0  501  502  0.00000000000E+00  0.00000000000E+00  0.94285200913E+03  0.94285200913E+03  0.00000000000E+00 0. -1.
         21   -1    0    0  502  503 -0.00000000000E+00 -0.00000000000E+00 -0.58979135032E+02  0.58979135032E+02  0.00000000000E+00 0. -1.
         -6    2    1    2    0  503 -0.14239814453E+03 -0.67478194772E+02  0.36943881486E+03  0.43695135616E+03  0.17207821300E+03 0.  0.
        -24    2    3    3    0    0 -0.78095115489E+01 -0.26370536221E+02  0.78684371359E+02  0.11389690853E+03  0.77620112246E+02 0.  0.
          6    2    1    2  501    0  0.14239814453E+03  0.67478194772E+02  0.51443405924E+03  0.56487978800E+03  0.17209368161E+03 0.  0.
         24    2    5    5    0    0  0.15914056969E+03  0.21076655368E+02  0.44736323648E+03  0.48148915948E+03  0.76993499863E+02 0.  0.
          5    1    5    5  501    0 -0.16742425157E+02  0.46401539404E+02  0.67070822761E+02  0.83390628521E+02  0.47000000000E+01 0. -1.
        -11    1    6    6    0    0  0.52703913797E+02  0.27225866215E+02  0.84186621636E+02  0.10298707484E+03  0.00000000000E+00 0.  1.
         12    1    6    6    0    0  0.10643665589E+03 -0.61492108472E+01  0.36317661484E+03  0.37850208464E+03  0.00000000000E+00 0. -1.
         -5    1    3    3    0  503 -0.13458863299E+03 -0.41107658551E+02  0.29075444350E+03  0.32305444763E+03  0.47000000000E+01 0.  1.
         13    1    4    4    0    0 -0.24575805950E+02 -0.48052547839E+02  0.60123797870E+02  0.80795350499E+02  0.00000000000E+00 0. -1.
        -14    1    4    4    0    0  0.16766294401E+02  0.21682011618E+02  0.18560573489E+02  0.33101558030E+02  0.00000000000E+00 0.  1.
</event>
<event>
12    1  0.8133506E-002  0.1769306E+03  0.7818608E-02  0.1170978E+00
         21   -1    0    0  503  502  0.00000000000E+00  0.00000000000E+00  0.17993244512E+03  0.17993244512E+03  0.00000000000E+00 0.  1.
         21   -1    0    0  501  503 -0.00000000000E+00 -0.00000000000E+00 -0.24517056555E+03  0.24517056555E+03  0.00000000000E+00 0. -1.
          6    2    1    2  501    0 -0.28863879918E+01  0.38467099155E+02 -0.14765318810E+03  0.22991928399E+03  0.17196907931E+03 0.  0.
         24    2    3    3    0    0 -0.61201076029E+02  0.55129152677E+02 -0.78699224754E+02  0.13796839530E+03  0.77826184175E+02 0.  0.
         -6    2    1    2    0  502  0.28863879918E+01 -0.38467099155E+02  0.82415067663E+02  0.19518372668E+03  0.17267424484E+03 0.  0.
        -24    2    5    5    0    0  0.14036597653E+02 -0.11653059513E+02 -0.24512970831E+02  0.84282801017E+02  0.78548615129E+02 0.  0.
          5    1    3    3  501    0  0.58314688037E+02 -0.16662053522E+02 -0.68953963349E+02  0.91950888686E+02  0.47000000000E+01 0. -1.
        -11    1    4    4    0    0  0.89135528571E+01  0.39797671362E+02 -0.20958362898E+02  0.45853669927E+02  0.00000000000E+00 0.  1.
         12    1    4    4    0    0 -0.70114628886E+02  0.15331481315E+02 -0.57740861855E+02  0.92114725375E+02  0.00000000000E+00 0. -1.
         -5    1    5    5    0  502 -0.11150209661E+02 -0.26814039642E+02  0.10692803849E+03  0.11090092567E+03  0.47000000000E+01 0.  1.
         11    1    6    6    0    0  0.42075998104E+02  0.10187908938E+02 -0.45815324088E+01  0.43533590986E+02  0.00000000000E+00 0. -1.
        -12    1    6    6    0    0 -0.28039400451E+02 -0.21840968451E+02 -0.19931438422E+02  0.40749210030E+02  0.00000000000E+00 0.  1.
</event>
<event>
12    1  0.8133506E-002  0.2015589E+03  0.7818608E-02  0.1148765E+00
         21   -1    0    0  501  502  0.00000000000E+00  0.00000000000E+00  0.29961802541E+03  0.29961802541E+03  0.00000000000E+00 0. -1.
         21   -1    0    0  502  503 -0.00000000000E+00 -0.00000000000E+00 -0.13848542532E+03  0.13848542532E+03  0.00000000000E+00 0.  1.
         -6    2    1    2    0  503 -0.10330531709E+03  0.15005449868E+02  0.43200098818E+02  0.20457814147E+03  0.17055443520E+03 0.  0.
        -24    2    3    3    0    0 -0.51583016041E+02 -0.39583066953E+02  0.61000675135E+02  0.12715687106E+03  0.90665102210E+02 0.  0.
          6    2    1    2  501    0  0.10330531709E+03 -0.15005449868E+02  0.11793250127E+03  0.23352530926E+03  0.17242054154E+03 0.  0.
         24    2    5    5    0    0  0.94668178788E+02 -0.63560834810E+02  0.47989052395E+02  0.14781415710E+03  0.80895192019E+02 0.  0.
          5    1    5    5  501    0  0.86371382990E+01  0.48555384942E+02  0.69943448877E+02  0.85711152166E+02  0.47000000000E+01 0. -1.
        -11    1    6    6    0    0  0.53755964360E+02  0.10733699290E+02  0.15234421703E+02  0.56894671186E+02  0.00000000000E+00 0.  1.
         12    1    6    6    0    0  0.40912214428E+02 -0.74294534100E+02  0.32754630692E+02  0.90919485911E+02  0.00000000000E+00 0. -1.
         -5    1    3    3    0  503 -0.51722301046E+02  0.54588516821E+02 -0.17800576317E+02  0.77421270407E+02  0.47000000000E+01 0.  1.
         11    1    4    4    0    0  0.24898183750E+01  0.26028308710E+02  0.19035823730E+02  0.32342458703E+02  0.00000000000E+00 0. -1.
        -12    1    4    4    0    0 -0.54072834416E+02 -0.65611375663E+02  0.41964851404E+02  0.94814412362E+02  0.00000000000E+00 0.  1.
</event>
<event>
12    1  0.8133506E-002  0.2939730E+03  0.7818608E-02  0.1088344E+00
         21   -1    0    0  501  502  0.00000000000E+00  0.00000000000E+00  0.11157551415E+04  0.11157551415E+04  0.00000000000E+00 0. -1.
         21   -1    0    0  502  503 -0.00000000000E+00 -0.00000000000E+00 -0.79613605999E+02  0.79613605999E+02  0.00000000000E+00 0.  1.
         -6    2    1    2    0  503  0.44975802180E+02  0.23532138329E+03  0.41760208617E+03  0.51069716931E+03  0.17035586327E+03 0.  0.
        -24    2    3    3    0    0  0.65636774566E+02  0.74755801519E+02  0.14567871525E+03  0.19419662984E+03  0.81199919513E+02 0.  0.
          6    2    1    2  501    0 -0.44975802180E+02 -0.23532138329E+03  0.61853944936E+03  0.68467157822E+03  0.16966185013E+03 0.  0.
         24    2    5    5    0    0 -0.68904260849E+02 -0.84004155982E+02  0.22634600575E+03  0.26359289006E+03  0.80275787030E+02 0.  0.
          5    1    5    5  501    0  0.23928458668E+02 -0.15131722731E+03  0.39219344361E+03  0.42107868816E+03  0.47000000000E+01 0. -1.
        -13    1    6    6    0    0 -0.51234089750E+00  0.26670248668E+01  0.81117717493E+02  0.81163166560E+02  0.00000000000E+00 0.  1.
         14    1    6    6    0    0 -0.68391919951E+02 -0.86671180849E+02  0.14522828826E+03  0.18242972350E+03  0.00000000000E+00 0. -1.
         -5    1    3    3    0  503 -0.20660972385E+02  0.16056558178E+03  0.27192337092E+03  0.31650053947E+03  0.47000000000E+01 0.  1.
         11    1    4    4    0    0  0.34225562062E+02 -0.29905978282E+01  0.11991856299E+02  0.36388698676E+02  0.00000000000E+00 0. -1.
        -12    1    4    4    0    0  0.31411212503E+02  0.77746399348E+02  0.13368685895E+03  0.15780793117E+03  0.00000000000E+00 0.  1.
</event>
<event>
12    1  0.8133506E-002  0.2173473E+03  0.7818608E-02  0.1137888E+00
         21   -1    0    0  501  502  0.00000000000E+00  0.00000000000E+00  0.17253057100E+03  0.17253057100E+03  0.00000000000E+00 0.  1.
         21   -1    0    0  502  503 -0.00000000000E+00 -0.00000000000E+00 -0.26228324251E+03  0.26228324251E+03  0.00000000000E+00 0. -1.
         -6    2    1    2    0  503 -0.20038163475E+02  0.11487621468E+03 -0.30292387698E+02  0.21944814316E+03  0.18341697329E+03 0.  0.
        -24    2    3    3    0    0 -0.38264358999E+02  0.14988464320E+03 -0.38065077610E+02  0.17894766194E+03  0.81509190538E+02 0.  0.
          6    2    1    2  501    0  0.20038163475E+02 -0.11487621468E+03 -0.59460283814E+02  0.21536567035E+03  0.17102272925E+03 0.  0.
         24    2    5    5    0    0  0.43450503608E+02 -0.12378725613E+03 -0.25457504598E+01  0.15300463735E+03  0.78693755537E+02 0.  0.
          5    1    5    5  501    0 -0.23412340133E+02  0.89110414541E+01 -0.56914533355E+02  0.62361033004E+02  0.47000000000E+01 0. -1.
        -13    1    6    6    0    0 -0.54661502867E+01  0.32870617295E+01  0.14439027527E+02  0.15785090741E+02  0.00000000000E+00 0.  1.
         14    1    6    6    0    0  0.48916653895E+02 -0.12707431786E+03 -0.16984777987E+02  0.13721954661E+03  0.00000000000E+00 0. -1.
         -5    1    3    3    0  503  0.18226195525E+02 -0.35008428523E+02  0.77726899116E+01  0.40500481224E+02  0.47000000000E+01 0.  1.
         13    1    4    4    0    0 -0.60522111122E+02  0.81122669019E+02 -0.11149608196E+02  0.10182400074E+03  0.00000000000E+00 0. -1.
        -14    1    4    4    0    0  0.22257752123E+02  0.68761974180E+02 -0.26915469414E+02  0.77123661197E+02  0.00000000000E+00 0.  1.
</event>
<event>
12    1  0.8133506E-002  0.1968938E+03  0.7818608E-02  0.1156039E+00
         21   -1    0    0  501  502  0.00000000000E+00  0.00000000000E+00  0.15463901026E+04  0.15463901026E+04  0.00000000000E+00 0. -1.
         21   -1    0    0  502  503 -0.00000000000E+00 -0.00000000000E+00 -0.51908185529E+02  0.51908185529E+02  0.00000000000E+00 0.  1.
         -6    2    1    2    0  503 -0.43995452787E+02  0.31921351277E+02  0.16584883996E+03  0.25743544707E+03  0.18924217066E+03 0.  0.
        -24    2    3    3    0    0  0.25253876322E+02 -0.42320185790E+02  0.56113626758E+02  0.10786545534E+03  0.77829691981E+02 0.  0.
          6    2    1    2  501    0  0.43995452787E+02 -0.31921351277E+02  0.13286330772E+04  0.13408628411E+04  0.17231579269E+03 0.  0.
         24    2    5    5    0    0  0.37254996590E+02  0.21486723316E+02  0.38632230324E+03  0.39700398470E+03  0.80731826652E+02 0.  0.
          5    1    5    5  501    0  0.67404561978E+01 -0.53408074593E+02  0.94231077392E+03  0.94385885642E+03  0.47000000000E+01 0. -1.
        -11    1    6    6    0    0  0.51222566260E+02  0.21481007106E+02  0.37481063609E+03  0.37890394283E+03  0.00000000000E+00 0.  1.
         12    1    6    6    0    0 -0.13967569671E+02  0.57162100090E-02  0.11511667144E+02  0.18100041868E+02  0.00000000000E+00 0. -1.
         -5    1    3    3    0  503 -0.69249329109E+02  0.74241537067E+02  0.10973521320E+03  0.14956999172E+03  0.47000000000E+01 0.  1.
         13    1    4    4    0    0  0.66176545381E+01 -0.63523298821E+02  0.37760661286E+02  0.74194813737E+02  0.00000000000E+00 0. -1.
        -14    1    4    4    0    0  0.18636221784E+02  0.21203113031E+02  0.18352965472E+02  0.33670641606E+02  0.00000000000E+00 0.  1.
</event>
<event>
12    1  0.8133506E-002  0.1966942E+03  0.7818608E-02  0.1152762E+00
         21   -1    0    0  501  502  0.00000000000E+00  0.00000000000E+00  0.15269368710E+03  0.15269368710E+03  0.00000000000E+00 0. -1.
         21   -1    0    0  502  503 -0.00000000000E+00 -0.00000000000E+00 -0.30769342321E+03  0.30769342321E+03  0.00000000000E+00 0.  1.
         -6    2    1    2    0  503 -0.87271801842E+02  0.37925454762E+02  0.20445616342E+02  0.19681611585E+03  0.17106680775E+03 0.  0.
        -24    2    3    3    0    0 -0.90736977058E+01 -0.37684949618E+02  0.15534719448E+02  0.87829494426E+02  0.77267102735E+02 0.  0.
          6    2    1    2  501    0  0.87271801842E+02 -0.37925454762E+02 -0.17544535245E+03  0.26357099445E+03  0.17214496770E+03 0.  0.
         24    2    5    5    0    0  0.49326044454E+02 -0.87969384252E+02 -0.88657821391E+02  0.15634021095E+03  0.80064855208E+02 0.  0.
          5    1    5    5  501    0  0.37945757388E+02  0.50043929490E+02 -0.86787531062E+02  0.10723078350E+03  0.47000000000E+01 0. -1.
        -13    1    6    6    0    0 -0.34557622742E+01 -0.54970070035E+02 -0.74245931221E+02  0.92445168589E+02  0.00000000000E+00 0.  1.
         14    1    6    6    0    0  0.52781806728E+02 -0.32999314217E+02 -0.14411890169E+02  0.63895042362E+02  0.00000000000E+00 0. -1.
         -5    1    3    3    0  503 -0.78198104136E+02  0.75610404380E+02  0.49108968949E+01  0.10898662142E+03  0.47000000000E+01 0.  1.
         13    1    4    4    0    0  0.32127142523E+02 -0.60495994548E+01  0.14783129046E+02  0.35878849545E+02  0.00000000000E+00 0. -1.
        -14    1    4    4    0    0 -0.41200840229E+02 -0.31635350163E+02  0.75159040147E+00  0.51950644882E+02  0.00000000000E+00 0.  1.
</event>
<event>
12    1  0.8133506E-002  0.1730492E+03  0.7818608E-02  0.1174726E+00
         21   -1    0    0  503  502  0.00000000000E+00  0.00000000000E+00  0.16695207989E+03  0.16695207989E+03  0.00000000000E+00 0. -1.
         21   -1    0    0  501  503 -0.00000000000E+00 -0.00000000000E+00 -0.20422985391E+03  0.20422985391E+03  0.00000000000E+00 0. -1.
          6    2    1    2  501    0 -0.17966862274E+01  0.21190310414E+02 -0.83500247714E+02  0.19206588257E+03  0.17165300622E+03 0.  0.
         24    2    3    3    0    0 -0.35615337515E+02  0.24930244510E+02  0.11569508588E+02  0.90981576942E+02  0.79081125791E+02 0.  0.
         -6    2    1    2    0  502  0.17966862274E+01 -0.21190310414E+02  0.46222473691E+02  0.17911605122E+03  0.17173754801E+03 0.  0.
        -24    2    5    5    0    0 -0.26119368467E+02  0.31484008456E+02 -0.18160346874E+02  0.91246104360E+02  0.79514710367E+02 0.  0.
          5    1    3    3  501    0  0.33818651288E+02 -0.37399340969E+01 -0.95069756302E+02  0.10108430563E+03  0.47000000000E+01 0. -1.
        -13    1    4    4    0    0  0.63468639945E+01  0.74585516854E+01 -0.28656518972E+02  0.30283803516E+02  0.00000000000E+00 0.  1.
         14    1    4    4    0    0 -0.41962201509E+02  0.17471692825E+02  0.40226027560E+02  0.60697773426E+02  0.00000000000E+00 0. -1.
         -5    1    5    5    0  502  0.27916054695E+02 -0.52674318870E+02  0.64382820564E+02  0.87869946864E+02  0.47000000000E+01 0.  1.
         11    1    6    6    0    0  0.17162351303E+02 -0.63654744509E+00 -0.31360192516E+02  0.35754904133E+02  0.00000000000E+00 0. -1.
        -12    1    6    6    0    0 -0.43281719770E+02  0.32120555901E+02  0.13199845642E+02  0.55491200227E+02  0.00000000000E+00 0.  1.
</event>
<event>
12    1  0.8133506E-002  0.2847985E+03  0.7818608E-02  0.1093568E+00
         21   -1    0    0  503  502  0.00000000000E+00  0.00000000000E+00  0.10411591519E+04  0.10411591519E+04  0.00000000000E+00 0.  1.
         21   -1    0    0  501  503 -0.00000000000E+00 -0.00000000000E+00 -0.10550680454E+03  0.10550680454E+03  0.00000000000E+00 0.  1.
          6    2    1    2  501    0 -0.10399870599E+03 -0.19501501555E+03  0.17165543113E+03  0.33252939470E+03  0.17962077877E+03 0.  0.
         24    2    3    3    0    0 -0.79937667720E+02 -0.16303360272E+03  0.20113186845E+03  0.28260250129E+03  0.80250600561E+02 0.  0.
         -6    2    1    2    0  502  0.10399870599E+03  0.19501501555E+03  0.76399691621E+03  0.81413656171E+03  0.17401283287E+03 0.  0.
        -24    2    5    5    0    0  0.13047661406E+03  0.97909264513E+02  0.50253384371E+03  0.53393014711E+03  0.77011473383E+02 0.  0.
          5    1    3    3  501    0 -0.24061038275E+02 -0.31981412821E+02 -0.29476437319E+02  0.49926893414E+02  0.47000000000E+01 0. -1.
        -13    1    4    4    0    0  0.39928520760E+01 -0.72286906694E+02  0.53296625992E+02  0.89899221850E+02  0.00000000000E+00 0.  1.
         14    1    4    4    0    0 -0.83930519796E+02 -0.90746696030E+02  0.14783524246E+03  0.19270327944E+03  0.00000000000E+00 0. -1.
         -5    1    5    5    0  502 -0.26477908067E+02  0.97105751033E+02  0.26146307250E+03  0.28020641460E+03  0.47000000000E+01 0.  1.
         13    1    6    6    0    0  0.77357389758E+02  0.11119840579E+02  0.19910006610E+03  0.21388934738E+03  0.00000000000E+00 0. -1.
        -14    1    6    6    0    0  0.53119224304E+02  0.86789423934E+02  0.30343377761E+03  0.32004079973E+03  0.00000000000E+00 0.  1.
</event>
<event>
12    1  0.8133506E-002  0.2078167E+03  0.7818608E-02  0.1143344E+00
         21   -1    0    0  501  502  0.00000000000E+00  0.00000000000E+00  0.97961222288E+02  0.97961222288E+02  0.00000000000E+00 0.  1.
         21   -1    0    0  502  503 -0.00000000000E+00 -0.00000000000E+00 -0.45034369795E+03  0.45034369795E+03  0.00000000000E+00 0. -1.
         -6    2    1    2    0  503  0.66793244135E+01 -0.11571599122E+03 -0.13553037672E+03  0.24795079850E+03  0.17226813827E+03 0.  0.
        -24    2    3    3    0    0  0.69935591575E+02 -0.64290590110E+02 -0.98521899445E+02  0.15829788664E+03  0.79544888576E+02 0.  0.
          6    2    1    2  501    0 -0.66793244135E+01  0.11571599122E+03 -0.21685209895E+03  0.30035412174E+03  0.17249046823E+03 0.  0.
         24    2    5    5    0    0  0.34459099928E+02  0.41854538413E+01 -0.10313345991E+03  0.13577754506E+03  0.81203962957E+02 0.  0.
          5    1    5    5  501    0 -0.41138424341E+02  0.11153053738E+03 -0.11371863904E+03  0.16457657668E+03  0.47000000000E+01 0. -1.
        -13    1    6    6    0    0  0.94392299000E+01 -0.28163653012E+02 -0.58859587563E+01  0.30280933317E+02  0.00000000000E+00 0.  1.
         14    1    6    6    0    0  0.25019870028E+02  0.32349106853E+02 -0.97247501150E+02  0.10549661175E+03  0.00000000000E+00 0. -1.
         -5    1    3    3    0  503 -0.63256267162E+02 -0.51425401113E+02 -0.37008477272E+02  0.89652911859E+02  0.47000000000E+01 0.  1.
         13    1    4    4    0    0  0.19264321048E+02 -0.21441942922E+02 -0.86085388132E+02  0.90783065775E+02  0.00000000000E+00 0. -1.
        -14    1    4    4    0    0  0.50671270528E+02 -0.42848647188E+02 -0.12436511314E+02  0.67514820865E+02  0.00000000000E+00 0.  1.
</event>
<event>
12    1  0.8133506E-002  0.2201679E+03  0.7818608E-02  0.1133788E+00
         21   -1    0    0  503  502  0.00000000000E+00  0.00000000000E+00  0.56278128896E+02  0.56278128896E+02  0.00000000000E+00 0.  1.
         21   -1    0    0  501  503 -0.00000000000E+00 -0.00000000000E+00 -0.11174397906E+04  0.11174397906E+04  0.00000000000E+00 0.  1.
          6    2    1    2  501    0 -0.12548710192E+03  0.57322393929E+02 -0.81173081016E+03  0.84101734724E+03  0.17137794667E+03 0.  0.
         24    2    3    3    0    0 -0.11022004290E+03  0.99319704796E+00 -0.71563095637E+03  0.72848586982E+03  0.80090901572E+02 0.  0.
         -6    2    1    2    0  502  0.12548710192E+03 -0.57322393929E+02 -0.24943085156E+03  0.33270057227E+03  0.17158394879E+03 0.  0.
        -24    2    5    5    0    0  0.48039046303E+02 -0.91836408313E+02 -0.13020316345E+03  0.18632178241E+03  0.83793000700E+02 0.  0.
          5    1    3    3  501    0 -0.15267059023E+02  0.56329196881E+02 -0.96099853788E+02  0.11253147742E+03  0.47000000000E+01 0. -1.
        -11    1    4    4    0    0 -0.11348949870E+03  0.65828500839E+01 -0.50010938820E+03  0.51286703968E+03  0.00000000000E+00 0.  1.
         12    1    4    4    0    0  0.32694557950E+01 -0.55896530359E+01 -0.21552156817E+03  0.21561883014E+03  0.00000000000E+00 0. -1.
         -5    1    5    5    0  502  0.77448055620E+02  0.34514014384E+02 -0.11922768811E+03  0.14637878986E+03  0.47000000000E+01 0.  1.
         13    1    6    6    0    0  0.15590667712E+02 -0.56354863272E+02 -0.12494950309E+03  0.13795404255E+03  0.00000000000E+00 0. -1.
        -14    1    6    6    0    0  0.32448378592E+02 -0.35481545041E+02 -0.52536603588E+01  0.48367739857E+02  0.00000000000E+00 0.  1.
</event>
<event>
12    1  0.8133506E-002  0.4140094E+03  0.7818608E-02  0.1039040E+00
         21   -1    0    0  503  502  0.00000000000E+00  0.00000000000E+00  0.14664307664E+04  0.14664307664E+04  0.00000000000E+00 0. -1.
         21   -1    0    0  501  503 -0.00000000000E+00 -0.00000000000E+00 -0.43253507183E+03  0.43253507183E+03  0.00000000000E+00 0. -1.
          6    2    1    2  501    0  0.37097901515E+03  0.64758633615E+02 -0.29417528820E+03  0.50788080879E+03  0.17200205070E+03 0.  0.
         24    2    3    3    0    0  0.13645157911E+03  0.26653948681E+02 -0.18961233134E+03  0.24824531966E+03  0.79645691137E+02 0.  0.
         -6    2    1    2    0  502 -0.37097901515E+03 -0.64758633615E+02  0.13280709827E+04  0.13910850294E+04  0.17183106109E+03 0.  0.
        -24    2    5    5    0    0 -0.24569114135E+03 -0.65728472400E+02  0.10880382079E+04  0.11202791674E+04  0.80708748014E+02 0.  0.
          5    1    3    3  501    0  0.23452743604E+03  0.38104684934E+02 -0.10456295686E+03  0.25963548914E+03  0.47000000000E+01 0. -1.
        -11    1    4    4    0    0  0.31382467721E+02  0.43666355496E+02 -0.65329295433E+02  0.84613986577E+02  0.00000000000E+00 0.  1.
         12    1    4    4    0    0  0.10506911139E+03 -0.17012406815E+02 -0.12428303590E+03  0.16363133308E+03  0.00000000000E+00 0. -1.
         -5    1    5    5    0  502 -0.12528787380E+03  0.96983878516E+00  0.24003277478E+03  0.27080586197E+03  0.47000000000E+01 0.  1.
         13    1    6    6    0    0 -0.24508136664E+03 -0.62722132894E+02  0.10881886787E+04  0.11172079228E+04  0.00000000000E+00 0. -1.
        -14    1    6    6    0    0 -0.60977470364E+00 -0.30063395063E+01 -0.15047074548E+00  0.30712446763E+01  0.00000000000E+00 0.  1.
</event>
<event>
12    1  0.8133506E-002  0.2098182E+03  0.7818608E-02  0.1142196E+00
         21   -1    0    0  501  502  0.00000000000E+00  0.00000000000E+00  0.38056835305E+02  0.38056835305E+02  0.00000000000E+00 0. -1.
         21   -1    0    0  502  503 -0.00000000000E+00 -0.00000000000E+00 -0.12037331436E+04  0.12037331436E+04  0.00000000000E+00 0.  1.
         -6    2    1    2    0  503 -0.11284467446E+03  0.24028434959E+02 -0.71862498701E+03  0.74794936585E+03  0.17232264994E+03 0.  0.
        -24    2    3    3    0    0 -0.12480268804E+03 -0.23156891948E+02 -0.42284227252E+03  0.44815117814E+03  0.77019078499E+02 0.  0.
          6    2    1    2  501    0  0.11284467446E+03 -0.24028434959E+02 -0.44705132131E+03  0.49384061307E+03  0.17524948216E+03 0.  0.
         24    2    5    5    0    0  0.95518955021E+02 -0.78948589382E+02 -0.27774448641E+03  0.31494595620E+03  0.81805898692E+02 0.  0.
          5    1    5    5  501    0  0.17325719441E+02  0.54920154423E+02 -0.16930683489E+03  0.17889465687E+03  0.47000000000E+01 0. -1.
        -11    1    6    6    0    0  0.16284152529E+02 -0.58235907292E+02 -0.16394006275E+03  0.17473676973E+03  0.00000000000E+00 0.  1.
         12    1    6    6    0    0  0.79234802491E+02 -0.20712682090E+02 -0.11380442366E+03  0.14020918647E+03  0.00000000000E+00 0. -1.
         -5    1    3    3    0  503  0.11958013577E+02  0.47185326907E+02 -0.29578271449E+03  0.29979818771E+03  0.47000000000E+01 0.  1.
         13    1    4    4    0    0 -0.10882735489E+03 -0.16304110740E+02 -0.23480129804E+03  0.25930843943E+03  0.00000000000E+00 0. -1.
        -14    1    4    4    0    0 -0.15975333148E+02 -0.68527812088E+01 -0.18804097449E+03  0.18884273871E+03  0.00000000000E+00 0.  1.
</event>
<event>
12    1  0.8133506E-002  0.2342881E+03  0.7818608E-02  0.1123826E+00
         21   -1    0    0  503  502  0.00000000000E+00  0.00000000000E+00  0.29450539529E+02  0.29450539529E+02  0.00000000000E+00 0. -1.
         21   -1    0    0  501  503 -0.00000000000E+00 -0.00000000000E+00 -0.18822639921E+04  0.18822639921E+04  0.00000000000E+00 0. -1.
          6    2    1    2  501    0 -0.15755488575E+03 -0.19859720321E+02 -0.81167303865E+03  0.84453869462E+03  0.17092259805E+03 0.  0.
         24    2    3    3    0    0 -0.17647873441E+03  0.83444946237E+01 -0.74142034353E+03  0.76636503562E+03  0.79980420978E+02 0.  0.
         -6    2    1    2    0  502  0.15755488575E+03  0.19859720321E+02 -0.10411404139E+04  0.10671758370E+04  0.17225839626E+03 0.  0.
        -24    2    5    5    0    0  0.34897322754E+02  0.20540814856E+02 -0.20857259961E+03  0.22560789734E+03  0.75872563058E+02 0.  0.
          5    1    3    3  501    0  0.18923848663E+02 -0.28204214945E+02 -0.70252695122E+02  0.78173658995E+02  0.47000000000E+01 0. -1.
        -11    1    4    4    0    0 -0.10950327156E+02  0.92480898809E+01 -0.19240723406E+03  0.19294035490E+03  0.00000000000E+00 0.  1.
         12    1    4    4    0    0 -0.16552840726E+03 -0.90359525721E+00 -0.54901310947E+03  0.57342468072E+03  0.00000000000E+00 0. -1.
         -5    1    5    5    0  502  0.12265756299E+03 -0.68109453471E+00 -0.83256781429E+03  0.84156793965E+03  0.47000000000E+01 0.  1.
         11    1    6    6    0    0  0.42772426142E+02 -0.18103075727E+02 -0.10687308258E+03  0.11652921337E+03  0.00000000000E+00 0. -1.
        -12    1    6    6    0    0 -0.78751033883E+01  0.38643890582E+02 -0.10169951703E+03  0.10907868397E+03  0.00000000000E+00 0.  1.
</event>
<event>
12    1  0.8133506E-002  0.2127899E+03  0.7818608E-02  0.1139539E+00
         21   -1    0    0  503  502  0.00000000000E+00  0.00000000000E+00  0.11835720130E+04  0.11835720130E+04  0.00000000000E+00 0.  1.
         21   -1    0    0  501  503 -0.00000000000E+00 -0.00000000000E+00 -0.41661420336E+02  0.41661420336E+02  0.00000000000E+00 0.  1.
          6    2    1    2  501    0 -0.76970460244E+02  0.99203061448E+02  0.39096046526E+03  0.44471717560E+03  0.17075591271E+03 0.  0.
         24    2    3    3    0    0 -0.10832797408E+03  0.88101864962E+02  0.37326344868E+03  0.40674607300E+03  0.81362627796E+02 0.  0.
         -6    2    1    2    0  502  0.76970460244E+02 -0.99203061448E+02  0.75095012744E+03  0.78051625777E+03  0.17179591262E+03 0.  0.
        -24    2    5    5    0    0  0.77919015555E+02 -0.61688915621E+02  0.72079618255E+03  0.73214724613E+03  0.81336080246E+02 0.  0.
          5    1    3    3  501    0  0.31357513833E+02  0.11101196486E+02  0.17697016587E+02  0.37971102608E+02  0.47000000000E+01 0. -1.
        -11    1    4    4    0    0 -0.83240100475E+02  0.98760351290E+02  0.26086284056E+03  0.29108751760E+03  0.00000000000E+00 0.  1.
         12    1    4    4    0    0 -0.25087873602E+02 -0.10658486328E+02  0.11240060811E+03  0.11565855540E+03  0.00000000000E+00 0. -1.
         -5    1    5    5    0  502 -0.94855531064E+00 -0.37514145827E+02  0.30153944890E+02  0.48369011637E+02  0.47000000000E+01 0.  1.
         11    1    6    6    0    0  0.54635685879E+02 -0.29274473682E+02  0.19004944202E+03  0.19990208452E+03  0.00000000000E+00 0. -1.
        -12    1    6    6    0    0  0.23283329676E+02 -0.32414441940E+02  0.53074674052E+03  0.53224516162E+03  0.00000000000E+00 0.  1.
</event>
<event>
12    1  0.8133506E-002  0.2231371E+03  0.7818608E-02  0.1131868E+00
         21   -1    0    0  501  502  0.00000000000E+00  0.00000000000E+00  0.13744948988E+03  0.13744948988E+03  0.00000000000E+00 0.  1.
         21   -1    0    0  502  503 -0.00000000000E+00 -0.00000000000E+00 -0.36076339870E+03  0.36076339870E+03  0.00000000000E+00 0. -1.
         -6    2    1    2    0  503  0.46871354857E+02 -0.13131649987E+03 -0.12633501685E+03  0.25641900375E+03  0.17421028087E+03 0.  0.
        -24    2    3    3    0    0  0.74979908345E+02 -0.13306759794E+03 -0.14245235668E+03  0.22363157069E+03  0.79933930269E+02 0.  0.
          6    2    1    2  501    0 -0.46871354857E+02  0.13131649987E+03 -0.96978891978E+02  0.24179388483E+03  0.17210005871E+03 0.  0.
         24    2    5    5    0    0 -0.18243161689E+02  0.12805157662E+03 -0.12878905442E+02  0.15277068053E+03  0.80268271439E+02 0.  0.
          5    1    5    5  501    0 -0.28628193168E+02  0.32649232413E+01 -0.84099986536E+02  0.89023204296E+02  0.47000000000E+01 0. -1.
        -11    1    6    6    0    0  0.20238683414E+02  0.30375266676E+02  0.21426516539E+02  0.42324422536E+02  0.00000000000E+00 0.  1.
         12    1    6    6    0    0 -0.38481845103E+02  0.97676309948E+02 -0.34305421981E+02  0.11044625799E+03  0.00000000000E+00 0. -1.
         -5    1    3    3    0  503 -0.28108553488E+02  0.17510980772E+01  0.16117339834E+02  0.32787433065E+02  0.47000000000E+01 0.  1.
         11    1    4    4    0    0 -0.70782418459E+01 -0.65956577282E+02 -0.57413671050E+02  0.87730845305E+02  0.00000000000E+00 0. -1.
        -12    1    4    4    0    0  0.82058150191E+02 -0.67111020660E+02 -0.85038685629E+02  0.13590072539E+03  0.00000000000E+00 0.  1.
</event>
<event>
12    1  0.8133506E-002  0.1874869E+03  0.7818608E-02  0.1160753E+00
         21   -1    0    0  501  502  0.00000000000E+00  0.00000000000E+00  0.51050755353E+02  0.51050755353E+02  0.00000000000E+00 0. -1.
         21   -1    0    0  502  503 -0.00000000000E+00 -0.00000000000E+00 -0.90225335292E+03  0.90225335292E+03  0.00000000000E+00 0.  1.
         -6    2    1    2    0  503  0.51206303667E+02  0.49823946962E+02 -0.65764135068E+03  0.68384462975E+03  0.17334018656E+03 0.  0.
        -24    2    3    3    0    0  0.15864914439E+02 -0.37809933352E+02 -0.26277376715E+03  0.27780127086E+03  0.80263359125E+02 0.  0.
          6    2    1    2  501    0 -0.51206303667E+02 -0.49823946962E+02 -0.19356124688E+03  0.26945947852E+03  0.17331457828E+03 0.  0.
         24    2    5    5    0    0 -0.81166675513E+02 -0.83663630178E+01 -0.18477288940E+03  0.21734728825E+03  0.80254581235E+02 0.  0.
          5    1    5    5  501    0  0.29960371846E+02 -0.41457583944E+02 -0.87883574806E+01  0.52112190271E+02  0.47000000000E+01 0. -1.
        -11    1    6    6    0    0  0.27507186255E+00  0.12962900915E+02  0.13830357097E+01  0.13039373161E+02  0.00000000000E+00 0.  1.
         12    1    6    6    0    0 -0.81441747375E+02 -0.21329263932E+02 -0.18615592511E+03  0.20430791509E+03  0.00000000000E+00 0. -1.
         -5    1    3    3    0  503  0.35341389227E+02  0.87633880313E+02 -0.39486758354E+03  0.40604335889E+03  0.47000000000E+01 0.  1.
         13    1    4    4    0    0  0.41247851011E+02  0.25618932469E+01 -0.10050480902E+03  0.10866998272E+03  0.00000000000E+00 0. -1.
        -14    1    4    4    0    0 -0.25382936572E+02 -0.40371826598E+02 -0.16226895813E+03  0.16913128813E+03  0.00000000000E+00 0.  1.
</event>
<event>
12    1  0.8133506E-002  0.1848354E+03  0.7818608E-02  0.1163424E+00
         21   -1    0    0  501  502  0.00000000000E+00  0.00000000000E+00  0.24200027809E+03  0.24200027809E+03  0.00000000000E+00 0. -1.
         21   -1    0    0  502  503 -0.00000000000E+00 -0.00000000000E+00 -0.14942954128E+03  0.14942954128E+03  0.00000000000E+00 0. -1.
         -6    2    1    2    0  503  0.26519229059E+02 -0.60379875360E+02 -0.17798282709E+01  0.18390597262E+03  0.17166607154E+03 0.  0.
        -24    2    3    3    0    0  0.26670592230E+02 -0.16333814761E+02 -0.64488531947E+02  0.10713000058E+03  0.79623817279E+02 0.  0.
          6    2    1    2  501    0 -0.26519229059E+02  0.60379875360E+02  0.94350565077E+02  0.20752384675E+03  0.17267055042E+03 0.  0.
         24    2    5    5    0    0 -0.46815645492E+02  0.10247007356E+03  0.75474175535E+02  0.15690826233E+03  0.78943213619E+02 0.  0.
          5    1    5    5  501    0  0.20296416433E+02 -0.42090198196E+02  0.18876389542E+02  0.50615584422E+02  0.47000000000E+01 0. -1.
        -11    1    6    6    0    0  0.11660216927E+02  0.29673551103E+01 -0.80202008641E+01  0.14459926591E+02  0.00000000000E+00 0.  1.
         12    1    6    6    0    0 -0.58475862419E+02  0.99502718446E+02  0.83494376399E+02  0.14244833574E+03  0.00000000000E+00 0. -1.
         -5    1    3    3    0  503 -0.15136317076E+00 -0.44046060600E+02  0.62708703677E+02  0.76775972035E+02  0.47000000000E+01 0.  1.
         13    1    4    4    0    0  0.38501240719E+02 -0.30719693650E+02 -0.10968275819E+02  0.50461353423E+02  0.00000000000E+00 0. -1.
        -14    1    4    4    0    0 -0.11830648489E+02  0.14385878889E+02 -0.53520256129E+02  0.56668647162E+02  0.00000000000E+00 0.  1.
</event>
<event>
12    1  0.8133506E-002  0.2020674E+03  0.7818608E-02  0.1148029E+00
         21   -1    0    0  501  502  0.00000000000E+00  0.00000000000E+00  0.69749500988E+03  0.69749500988E+03  0.00000000000E+00 0.  1.
         21   -1    0    0  502  503 -0.00000000000E+00 -0.00000000000E+00 -0.10606095665E+03  0.10606095665E+03  0.00000000000E+00 0.  1.
         -6    2    1    2    0  503  0.62100125045E+02 -0.86122665492E+02  0.26649140442E+02  0.20371163535E+03  0.17179847103E+03 0.  0.
        -24    2    3    3    0    0 -0.25062148836E+02 -0.13266408047E+02  0.28917808101E+02  0.89990339676E+02  0.80361139382E+02 0.  0.
          6    2    1    2  501    0 -0.62100125045E+02  0.86122665492E+02  0.56478491279E+03  0.59984433118E+03  0.17192348558E+03 0.  0.
         24    2    5    5    0    0 -0.76740067352E+02  0.10895750832E+03  0.34342058905E+03  0.37677480887E+03  0.79125084923E+02 0.  0.
          5    1    5    5  501    0  0.14639942307E+02 -0.22834842824E+02  0.22136432374E+03  0.22306952230E+03  0.47000000000E+01 0. -1.
        -13    1    6    6    0    0 -0.51855944094E+02  0.12593882229E+02  0.15077169312E+03  0.15993670077E+03  0.00000000000E+00 0.  1.
         14    1    6    6    0    0 -0.24884123258E+02  0.96363626086E+02  0.19264889593E+03  0.21683810810E+03  0.00000000000E+00 0. -1.
         -5    1    3    3    0  503  0.87162273881E+02 -0.72856257445E+02 -0.22686676597E+01  0.11372129567E+03  0.47000000000E+01 0.  1.
         11    1    4    4    0    0  0.82124077059E+00 -0.31183758196E+02  0.44910217308E+02  0.54681156081E+02  0.00000000000E+00 0. -1.
        -12    1    4    4    0    0 -0.25883389606E+02  0.17917350149E+02 -0.15992409207E+02  0.35309183595E+02  0.00000000000E+00 0.  1.
</event>
<event>
12    1  0.8133506E-002  0.2109992E+03  0.7818608E-02  0.1140879E+00
         21   -1    0    0  503  502  0.00000000000E+00  0.00000000000E+00  0.12413937608E+03  0.12413937608E+03  0.00000000000E+00 0. -1.
         21   -1    0    0  501  503 -0.00000000000E+00 -0.00000000000E+00 -0.41288649763E+03  0.41288649763E+03  0.00000000000E+00 0. -1.
          6    2    1    2  501    0 -0.10580711005E+03  0.56741882545E+02 -0.24233612050E+03  0.32098274417E+03  0.17288244846E+03 0.  0.
         24    2    3    3    0    0 -0.68971963787E+02  0.10525278843E+03 -0.17928116691E+03  0.23318665563E+03  0.79993739106E+02 0.  0.
         -6    2    1    2    0  502  0.10580711005E+03 -0.56741882545E+02 -0.46411001051E+02  0.21604312954E+03  0.17351042341E+03 0.  0.
        -24    2    5    5    0    0  0.57764502949E+02 -0.73603300201E+02  0.35635471435E+02  0.11936783202E+03  0.64996991437E+02 0.  0.
          5    1    3    3  501    0 -0.36835146265E+02 -0.48510905889E+02 -0.63054953591E+02  0.87796088540E+02  0.47000000000E+01 0. -1.
        -11    1    4    4    0    0 -0.81836011137E+02  0.59276150146E+02 -0.11447884114E+03  0.15269643009E+03  0.00000000000E+00 0.  1.
         12    1    4    4    0    0  0.12864047349E+02  0.45976638288E+02 -0.64802325768E+02  0.80490225540E+02  0.00000000000E+00 0. -1.
         -5    1    5    5    0  502  0.48042607104E+02  0.16861417656E+02 -0.82046472486E+02  0.96675297518E+02  0.47000000000E+01 0.  1.
         11    1    6    6    0    0  0.31955837722E+02  0.15544147404E+00  0.24854589288E+02  0.40483951577E+02  0.00000000000E+00 0. -1.
        -12    1    6    6    0    0  0.25808665226E+02 -0.73758741675E+02  0.10780882147E+02  0.78883880445E+02  0.00000000000E+00 0.  1.
</event>
<event>
12    1  0.8133506E-002  0.2158501E+03  0.7818608E-02  0.1137382E+00
         21   -1    0    0  501  502  0.00000000000E+00  0.00000000000E+00  0.13842001742E+03  0.13842001742E+03  0.00000000000E+00 0. -1.
         21   -1    0    0  502  503 -0.00000000000E+00 -0.00000000000E+00 -0.10372692772E+04  0.10372692772E+04  0.00000000000E+00 0.  1.
         -6    2    1    2    0  503  0.97946020835E+02  0.82173890312E+02 -0.93423191630E+03  0.95884333040E+03  0.17391172350E+03 0.  0.
        -24    2    3    3    0    0  0.65300356103E+02  0.12505509839E+03 -0.72268382726E+03  0.74048760822E+03  0.78403249961E+02 0.  0.
          6    2    1    2  501    0 -0.97946020835E+02 -0.82173890312E+02  0.35382656477E+02  0.21684596425E+03  0.17153503603E+03 0.  0.
         24    2    5    5    0    0 -0.13419097394E+03 -0.51333829125E+02  0.34725149336E+02  0.16901994294E+03  0.81972712629E+02 0.  0.
          5    1    5    5  501    0  0.36244953101E+02 -0.30840061187E+02  0.65750714061E+00  0.47826021316E+02  0.47000000000E+01 0. -1.
        -11    1    6    6    0    0  0.93391322784E+01 -0.14379165154E+02  0.22523520671E+01  0.17293145234E+02  0.00000000000E+00 0.  1.
         12    1    6    6    0    0 -0.14353010621E+03 -0.36954663971E+02  0.32472797269E+02  0.15172679770E+03  0.00000000000E+00 0. -1.
         -5    1    3    3    0  503  0.32645664732E+02 -0.42881208077E+02 -0.21154808904E+03  0.21835572218E+03  0.47000000000E+01 0.  1.
         13    1    4    4    0    0  0.50657209281E+02  0.20206910429E+02 -0.20821171374E+03  0.21523612573E+03  0.00000000000E+00 0. -1.
        -14    1    4    4    0    0  0.14643146822E+02  0.10484818796E+03 -0.51447211352E+03  0.52525148249E+03  0.00000000000E+00 0.  1.
</event>
<event>
12    1  0.8133506E-002  0.1938376E+03  0.7818608E-02  0.1155693E+00
         21   -1    0    0  503  502  0.00000000000E+00  0.00000000000E+00  0.49350514841E+03  0.49350514841E+03  0.00000000000E+00 0.  1.
         21   -1    0    0  501  503 -0.00000000000E+00 -0.00000000000E+00 -0.79479708548E+02  0.79479708548E+02  0.00000000000E+00 0.  1.
          6    2    1    2  501    0 -0.83319130401E+02  0.41832006257E+01  0.13743977249E+03  0.23523841676E+03  0.17172025215E+03 0.  0.
         24    2    3    3    0    0  0.16334415313E+02  0.24840916908E+02  0.41270687198E+02  0.95137905049E+02  0.80399422131E+02 0.  0.
         -6    2    1    2    0  502  0.83319130401E+02 -0.41832006257E+01  0.27658566737E+03  0.33774644020E+03  0.17496699635E+03 0.  0.
        -24    2    5    5    0    0  0.60756391905E+02 -0.51295379531E+02  0.94503763350E+02  0.14826149530E+03  0.82024109773E+02 0.  0.
          5    1    3    3  501    0 -0.99653545714E+02 -0.20657716282E+02  0.96169085293E+02  0.14010051171E+03  0.47000000000E+01 0. -1.
        -11    1    4    4    0    0 -0.83855573519E+01 -0.13141938946E+02  0.46944723135E+02  0.49465494656E+02  0.00000000000E+00 0.  1.
         12    1    4    4    0    0  0.24719972665E+02  0.37982855854E+02 -0.56740359365E+01  0.45672410394E+02  0.00000000000E+00 0. -1.
         -5    1    5    5    0  502  0.22562738496E+02  0.47112178906E+02  0.18208190402E+03  0.18948494489E+03  0.47000000000E+01 0.  1.
         11    1    6    6    0    0  0.38570621443E+02 -0.29003958263E+02 -0.42268657234E+00  0.48260761467E+02  0.00000000000E+00 0. -1.
        -12    1    6    6    0    0  0.22185770462E+02 -0.22291421268E+02  0.94926449923E+02  0.10000073384E+03  0.00000000000E+00 0.  1.
</event>
<event>
12    1  0.8133506E-002  0.2247950E+03  0.7818608E-02  0.1130570E+00
         21   -1    0    0  503  502  0.00000000000E+00  0.00000000000E+00  0.25938704812E+03  0.25938704812E+03  0.00000000000E+00 0. -1.
         21   -1    0    0  501  503 -0.00000000000E+00 -0.00000000000E+00 -0.20262536197E+03  0.20262536197E+03  0.00000000000E+00 0.  1.
          6    2    1    2  501    0 -0.12329046431E+03 -0.74507493207E+02 -0.19884960416E+02  0.22450976183E+03  0.17104770203E+03 0.  0.
         24    2    3    3    0    0 -0.10359240253E+03  0.14507306883E+02 -0.19911077075E+02  0.13322044725E+03  0.80058658258E+02 0.  0.
         -6    2    1    2    0  502  0.12329046431E+03  0.74507493207E+02  0.76646646561E+02  0.23750264827E+03  0.17257141817E+03 0.  0.
        -24    2    5    5    0    0  0.13009205753E+03  0.64768416715E+02  0.11182173989E+03  0.20007954748E+03  0.80055184547E+02 0.  0.
          5    1    3    3  501    0 -0.19698061786E+02 -0.89014800090E+02  0.26116659347E-01  0.91289314573E+02  0.47000000000E+01 0. -1.
        -13    1    4    4    0    0 -0.52550510112E+02 -0.11896017228E+01 -0.49471996433E+02  0.72183444753E+02  0.00000000000E+00 0.  1.
         14    1    4    4    0    0 -0.51041892415E+02  0.15696908606E+02  0.29560919358E+02  0.61037002501E+02  0.00000000000E+00 0. -1.
         -5    1    5    5    0  502 -0.68015932145E+01  0.97390764924E+01 -0.35175093333E+02  0.37423100783E+02  0.47000000000E+01 0.  1.
         13    1    6    6    0    0 -0.69675932236E+01  0.12096126683E+02 -0.22556107906E+01  0.14140417819E+02  0.00000000000E+00 0. -1.
        -14    1    6    6    0    0  0.13705965075E+03  0.52672290031E+02  0.11407735069E+03  0.18593912966E+03  0.00000000000E+00 0.  1.
</event>
<event>
12    1  0.8133506E-002  0.1912013E+03  0.7818608E-02  0.1158147E+00
         21   -1    0    0  501  502  0.00000000000E+00  0.00000000000E+00  0.58904869928E+03  0.58904869928E+03  0.00000000000E+00 0. -1.
         21   -1    0    0  502  503 -0.00000000000E+00 -0.00000000000E+00 -0.50119114270E+03  0.50119114270E+03  0.00000000000E+00 0. -1.
         -6    2    1    2    0  503 -0.74100484848E+02 -0.17013935898E+02 -0.46700543650E+03  0.50335749720E+03  0.17173915222E+03 0.  0.
        -24    2    3    3    0    0 -0.11512193985E+03  0.48058322664E+01 -0.31679128267E+03  0.34605128607E+03  0.78221600303E+02 0.  0.
          6    2    1    2  501    0  0.74100484848E+02  0.17013935898E+02  0.55486299307E+03  0.58688234477E+03  0.17543542873E+03 0.  0.
         24    2    5    5    0    0  0.14367180962E+02 -0.51212363611E+02  0.28011538717E+03  0.29751884934E+03  0.84992432070E+02 0.  0.
          5    1    5    5  501    0  0.59733303885E+02  0.68226299509E+02  0.27474760590E+03  0.28936349543E+03  0.47000000000E+01 0. -1.
        -11    1    6    6    0    0 -0.10046935981E+02  0.21273909258E+02  0.57356327518E+02  0.61994100074E+02  0.00000000000E+00 0.  1.
         12    1    6    6    0    0  0.24414116943E+02 -0.72486272869E+02  0.22275905965E+03  0.23552474927E+03  0.00000000000E+00 0. -1.
         -5    1    3    3    0  503  0.41021454999E+02 -0.21819768164E+02 -0.15021415382E+03  0.15730621113E+03  0.47000000000E+01 0.  1.
         11    1    4    4    0    0 -0.63199302569E+02 -0.36418940643E+02 -0.16924467070E+03  0.18429392188E+03  0.00000000000E+00 0. -1.
        -12    1    4    4    0    0 -0.51922637278E+02  0.41224772910E+02 -0.14754661197E+03  0.16175736419E+03  0.00000000000E+00 0.  1.
</event>
<event>
12    1  0.8133506E-002  0.2531416E+03  0.7818608E-02  0.1111700E+00
         21   -1    0    0  503  502  0.00000000000E+00  0.00000000000E+00  0.21563052161E+03  0.21563052161E+03  0.00000000000E+00 0. -1.
         21   -1    0    0  501  503 -0.00000000000E+00 -0.00000000000E+00 -0.40898414613E+03  0.40898414613E+03  0.00000000000E+00 0.  1.
          6    2    1    2  501    0 -0.18465694653E+03 -0.44040979553E+01 -0.26163007347E+03  0.36242702963E+03  0.16966281999E+03 0.  0.
         24    2    3    3    0    0 -0.18498624922E+03 -0.38741175250E+02 -0.25369372446E+03  0.32687117283E+03  0.82240298729E+02 0.  0.
         -6    2    1    2    0  502  0.18465694653E+03  0.44040979553E+01  0.68276448947E+02  0.26218763811E+03  0.17309852720E+03 0.  0.
        -24    2    5    5    0    0  0.16224661031E+03  0.45673621807E+02  0.89096686203E+01  0.18634634741E+03  0.78965414665E+02 0.  0.
          5    1    3    3  501    0  0.32930269945E+00  0.34337077295E+02 -0.79363490113E+01  0.35555856804E+02  0.47000000000E+01 0. -1.
        -11    1    4    4    0    0 -0.38174983883E+02 -0.38301713512E+02 -0.38559287941E+02  0.66416634505E+02  0.00000000000E+00 0.  1.
         12    1    4    4    0    0 -0.14681126534E+03 -0.43946173789E+00 -0.21513443652E+03  0.26045453832E+03  0.00000000000E+00 0. -1.
         -5    1    5    5    0  502  0.22410336216E+02 -0.41269523851E+02  0.59366780327E+02  0.75841290697E+02  0.47000000000E+01 0.  1.
         11    1    6    6    0    0  0.13297906869E+03  0.16856345836E+02  0.33905774984E+02  0.13826485700E+03  0.00000000000E+00 0. -1.
        -12    1    6    6    0    0  0.29267541622E+02  0.28817275970E+02 -0.24996106364E+02  0.48081490413E+02  0.00000000000E+00 0.  1.
</event>
<event>
12    1  0.8133506E-002  0.2043377E+03  0.7818608E-02  0.1146300E+00
         21   -1    0    0  501  502  0.00000000000E+00  0.00000000000E+00  0.10534915413E+04  0.10534915413E+04  0.00000000000E+00 0.  1.
         21   -1    0    0  502  503 -0.00000000000E+00 -0.00000000000E+00 -0.43672477008E+02  0.43672477008E+02  0.00000000000E+00 0.  1.
         -6    2    1    2    0  503  0.31805058462E+02  0.10906877454E+03  0.67592376757E+03  0.70613512592E+03  0.16984203595E+03 0.  0.
        -24    2    3    3    0    0 -0.12458370317E+02 -0.42684011401E+01  0.31523806100E+03  0.32545043298E+03  0.79809266286E+02 0.  0.
          6    2    1    2  501    0 -0.31805058462E+02 -0.10906877454E+03  0.33389529675E+03  0.39102889241E+03  0.16884894487E+03 0.  0.
         24    2    5    5    0    0 -0.37608434924E+02 -0.11791869092E+03  0.16358671078E+03  0.22032709202E+03  0.80400270464E+02 0.  0.
          5    1    5    5  501    0  0.58033764621E+01  0.88499163829E+01  0.17030858597E+03  0.17070180038E+03  0.47000000000E+01 0. -1.
        -11    1    6    6    0    0 -0.28655378758E+02 -0.21288394611E+02  0.74147963522E+01  0.36459644565E+02  0.00000000000E+00 0.  1.
         12    1    6    6    0    0 -0.89530561662E+01 -0.96630296313E+02  0.15617191442E+03  0.18386744746E+03  0.00000000000E+00 0. -1.
         -5    1    3    3    0  503  0.44263428780E+02  0.11333717568E+03  0.36068570657E+03  0.38068469294E+03  0.47000000000E+01 0.  1.
         11    1    4    4    0    0  0.88419715154E+01 -0.32675100280E+02  0.23857562925E+03  0.24096508774E+03  0.00000000000E+00 0. -1.
        -12    1    4    4    0    0 -0.21300341833E+02  0.28406699140E+02  0.76662431745E+02  0.84485345234E+02  0.00000000000E+00 0.  1.
</event>
<event>
12    1  0.8133506E-002  0.4171199E+03  0.7818608E-02  0.1038151E+00
         21   -1    0    0  503  502  0.00000000000E+00  0.00000000000E+00  0.10800760322E+04  0.10800760322E+04  0.00000000000E+00 0.  1.
         21   -1    0    0  501  503 -0.00000000000E+00 -0.00000000000E+00 -0.16139944295E+03  0.16139944295E+03  0.00000000000E+00 0. -1.
          6    2    1    2  501    0  0.38087543134E+03  0.10629216604E+02  0.40994705152E+03  0.58360407091E+03  0.16540269674E+03 0.  0.
         24    2    3    3    0    0  0.38653391695E+03 -0.48866325876E+01  0.37275973578E+03  0.54264376711E+03  0.77974926955E+02 0.  0.
         -6    2    1    2    0  502 -0.38087543134E+03 -0.10629216604E+02  0.50872953774E+03  0.65787140424E+03  0.16973499199E+03 0.  0.
        -24    2    5    5    0    0 -0.89387208810E+02 -0.23208877826E+02  0.11465967954E+03  0.16752787681E+03  0.79937614975E+02 0.  0.
          5    1    3    3  501    0 -0.56584856112E+01  0.15515849191E+02  0.37187315736E+02  0.40960303797E+02  0.47000000000E+01 0. -1.
        -11    1    4    4    0    0  0.36459479448E+01 -0.99891375934E+01  0.16460727031E+02  0.19596717599E+02  0.00000000000E+00 0.  1.
         12    1    4    4    0    0  0.38288796901E+03  0.51025050057E+01  0.35629900875E+03  0.52304704951E+03  0.00000000000E+00 0. -1.
         -5    1    5    5    0  502 -0.29148822253E+03  0.12579661222E+02  0.39406985820E+03  0.49034352743E+03  0.47000000000E+01 0.  1.
         11    1    6    6    0    0 -0.16616423742E+02 -0.35191133221E+02  0.73251875552E+02  0.82947927444E+02  0.00000000000E+00 0. -1.
        -12    1    6    6    0    0 -0.72770785068E+02  0.11982255395E+02  0.41407803986E+02  0.84579949366E+02  0.00000000000E+00 0.  1.
</event>
<event>
12    1  0.8133506E-002  0.1747400E+03  0.7818608E-02  0.1173058E+00
         21   -1    0    0  503  502  0.00000000000E+00  0.00000000000E+00  0.13228312433E+03  0.13228312433E+03  0.00000000000E+00 0.  1.
         21   -1    0    0  501  503 -0.00000000000E+00 -0.00000000000E+00 -0.15774764166E+04  0.15774764166E+04  0.00000000000E+00 0.  1.
          6    2    1    2  501    0 -0.66596796833E+01  0.25167382907E+02 -0.15126378477E+04  0.15226973794E+04  0.17278976355E+03 0.  0.
         24    2    3    3    0    0 -0.65853644027E+02  0.43661650056E+02 -0.10327697951E+04  0.10388157810E+04  0.79257397749E+02 0.  0.
         -6    2    1    2    0  502  0.66596796833E+01 -0.25167382907E+02  0.67444555482E+02  0.18706216149E+03  0.17252749259E+03 0.  0.
        -24    2    5    5    0    0  0.40308506668E+02 -0.71989506711E+02  0.56936906907E+02  0.12826543102E+03  0.80018401887E+02 0.  0.
          5    1    3    3  501    0  0.59193964344E+02 -0.18494267150E+02 -0.47986805265E+03  0.48388159841E+03  0.47000000000E+01 0. -1.
        -13    1    4    4    0    0  0.31830683600E+01  0.38118849220E+02 -0.51756600366E+03  0.51897759752E+03  0.00000000000E+00 0.  1.
         14    1    4    4    0    0 -0.69036712387E+02  0.55428008365E+01 -0.51520379142E+03  0.51983818347E+03  0.00000000000E+00 0. -1.
         -5    1    5    5    0  502 -0.33648826984E+02  0.46822123804E+02  0.10507648575E+02  0.58796730466E+02  0.47000000000E+01 0.  1.
         11    1    6    6    0    0  0.53194943412E+02 -0.42152879578E+02  0.65848486183E+02  0.94565270549E+02  0.00000000000E+00 0. -1.
        -12    1    6    6    0    0 -0.12886436745E+02 -0.29836627133E+02 -0.89115792760E+01  0.33700160472E+02  0.00000000000E+00 0.  1.
</event>
<event>
12    1  0.8133506E-002  0.1891432E+03  0.7818608E-02  0.1159324E+00
         21   -1    0    0  501  502  0.00000000000E+00  0.00000000000E+00  0.12410133512E+03  0.12410133512E+03  0.00000000000E+00 0. -1.
         21   -1    0    0  502  503 -0.00000000000E+00 -0.00000000000E+00 -0.33530887379E+03  0.33530887379E+03  0.00000000000E+00 0. -1.
         -6    2    1    2    0  503 -0.68614208697E+02  0.34302105675E+02 -0.19207901770E+03  0.26930217796E+03  0.17246672120E+03 0.  0.
        -24    2    3    3    0    0  0.19471771008E+02 -0.10167579309E+02 -0.54430042624E+02  0.99873658980E+02  0.80805870348E+02 0.  0.
          6    2    1    2  501    0  0.68614208697E+02 -0.34302105675E+02 -0.19128520965E+02  0.19010803095E+03  0.17288903675E+03 0.  0.
         24    2    5    5    0    0 -0.23232501073E+02 -0.39036204717E+02  0.68321286685E+01  0.94430054805E+02  0.82503229534E+02 0.  0.
          5    1    5    5  501    0  0.91846709770E+02  0.47340990417E+01 -0.25960649634E+02  0.95677976142E+02  0.47000000000E+01 0. -1.
        -13    1    6    6    0    0 -0.28791174623E+02 -0.11391348119E+02 -0.33242691317E+02  0.45428747222E+02  0.00000000000E+00 0.  1.
         14    1    6    6    0    0  0.55586735508E+01 -0.27644856598E+02  0.40074819986E+02  0.49001307583E+02  0.00000000000E+00 0. -1.
         -5    1    3    3    0  503 -0.88085979705E+02  0.44469684984E+02 -0.13764897508E+03  0.16942851898E+03  0.47000000000E+01 0.  1.
         13    1    4    4    0    0 -0.25042445378E+02  0.18038076687E+02 -0.16992796477E+02  0.35231398115E+02  0.00000000000E+00 0. -1.
        -14    1    4    4    0    0  0.44514216386E+02 -0.28205655996E+02 -0.37437246147E+02  0.64642260864E+02  0.00000000000E+00 0.  1.
</event>
<event>
12    1  0.8133506E-002  0.2669718E+03  0.7818608E-02  0.1103353E+00
         21   -1    0    0  501  502  0.00000000000E+00  0.00000000000E+00  0.48983978316E+03  0.48983978316E+03  0.00000000000E+00 0. -1.
         21   -1    0    0  502  503 -0.00000000000E+00 -0.00000000000E+00 -0.18972443578E+03  0.18972443578E+03  0.00000000000E+00 0. -1.
         -6    2    1    2    0  503  0.14170339168E+03 -0.14714248362E+03 -0.15748377695E+02  0.26743585174E+03  0.17188124300E+03 0.  0.
        -24    2    3    3    0    0  0.15986962286E+03 -0.14405294718E+03 -0.43525850040E+02  0.23377229339E+03  0.80283482929E+02 0.  0.
          6    2    1    2  501    0 -0.14170339168E+03  0.14714248362E+03  0.31586372507E+03  0.41212836721E+03  0.16837201828E+03 0.  0.
         24    2    5    5    0    0 -0.14020724798E+03  0.99688481507E+02  0.18167104049E+03  0.26970685424E+03  0.10070528555E+03 0.  0.
          5    1    5    5  501    0 -0.14961437049E+01  0.47454002113E+02  0.13419268458E+03  0.14242151297E+03  0.47000000000E+01 0. -1.
        -13    1    6    6    0    0 -0.42877410466E+02 -0.18019884607E+02  0.45997905903E+02  0.65414034557E+02  0.00000000000E+00 0.  1.
         14    1    6    6    0    0 -0.97329837509E+02  0.11770836611E+03  0.13567313459E+03  0.20429281968E+03  0.00000000000E+00 0. -1.
         -5    1    3    3    0  503 -0.18166231177E+02 -0.30895364366E+01  0.27777472345E+02  0.33663558345E+02  0.47000000000E+01 0.  1.
         11    1    4    4    0    0  0.11710522166E+03 -0.12803226450E+03 -0.42875181391E+01  0.17356346535E+03  0.00000000000E+00 0. -1.
        -12    1    4    4    0    0  0.42764401202E+02 -0.16020682680E+02 -0.39238331901E+02  0.60208828041E+02  0.00000000000E+00 0.  1.
</event>
<event>
12    1  0.8133506E-002  0.2105651E+03  0.7818608E-02  0.1141240E+00
         21   -1    0    0  503  502  0.00000000000E+00  0.00000000000E+00  0.85850527363E+02  0.85850527363E+02  0.00000000000E+00 0. -1.
         21   -1    0    0  501  503 -0.00000000000E+00 -0.00000000000E+00 -0.51773777202E+03  0.51773777202E+03  0.00000000000E+00 0.  1.
          6    2    1    2  501    0  0.20770574626E+02 -0.11892290213E+03 -0.19351537317E+03  0.28553357857E+03  0.17177645769E+03 0.  0.
         24    2    3    3    0    0  0.19430221707E+02  0.66794676927E+01 -0.58196926559E+02  0.10084214984E+03  0.79750286016E+02 0.  0.
         -6    2    1    2    0  502 -0.20770574626E+02  0.11892290213E+03 -0.23837187149E+03  0.31805472081E+03  0.17252125346E+03 0.  0.
        -24    2    5    5    0    0  0.46697100196E+02  0.80953444755E+02 -0.19034025674E+03  0.22682592681E+03  0.80538862391E+02 0.  0.
          5    1    3    3  501    0  0.13403529188E+01 -0.12560236983E+03 -0.13531844661E+03  0.18469142873E+03  0.47000000000E+01 0. -1.
        -11    1    4    4    0    0  0.47183480089E+02 -0.11660498183E+02 -0.29112087506E+02  0.56654758407E+02  0.00000000000E+00 0.  1.
         12    1    4    4    0    0 -0.27753258382E+02  0.18339965875E+02 -0.29084839053E+02  0.44187391435E+02  0.00000000000E+00 0. -1.
         -5    1    5    5    0  502 -0.67467674821E+02  0.37969457379E+02 -0.48031614750E+02  0.91228794001E+02  0.47000000000E+01 0.  1.
         13    1    6    6    0    0  0.52547124261E+02  0.39142057142E+02 -0.56614142806E+02  0.86593660686E+02  0.00000000000E+00 0. -1.
        -14    1    6    6    0    0 -0.58500240655E+01  0.41811387612E+02 -0.13372611393E+03  0.14023226613E+03  0.00000000000E+00 0.  1.
</event>
<event>
12    1  0.8133506E-002  0.2456822E+03  0.7818608E-02  0.1116303E+00
         21   -1    0    0  503  502  0.00000000000E+00  0.00000000000E+00  0.89522428922E+03  0.89522428922E+03  0.00000000000E+00 0. -1.
         21   -1    0    0  501  503 -0.00000000000E+00 -0.00000000000E+00 -0.97883771616E+02  0.97883771616E+02  0.00000000000E+00 0.  1.
          6    2    1    2  501    0  0.14717417029E+03 -0.92961843631E+02  0.11903084402E+03  0.27167632766E+03  0.17128206098E+03 0.  0.
         24    2    3    3    0    0  0.15780956959E+03 -0.57746553332E+02  0.13711009256E+03  0.23041887237E+03  0.77814873798E+02 0.  0.
         -6    2    1    2    0  502 -0.14717417029E+03  0.92961843631E+02  0.67830967359E+03  0.72143173318E+03  0.17337125362E+03 0.  0.
        -24    2    5    5    0    0 -0.11175960612E+03  0.47426260493E+02  0.62855030695E+03  0.64510503238E+03  0.79658989992E+02 0.  0.
          5    1    3    3  501    0 -0.10635399306E+02 -0.35215290299E+02 -0.18079248546E+02  0.41257455293E+02  0.47000000000E+01 0. -1.
        -11    1    4    4    0    0  0.48994191587E+02 -0.54374741638E+02  0.34886321136E+02  0.81080816102E+02  0.00000000000E+00 0.  1.
         12    1    4    4    0    0  0.10881537801E+03 -0.33718116945E+01  0.10222377143E+03  0.14933805627E+03  0.00000000000E+00 0. -1.
         -5    1    5    5    0  502 -0.35414564163E+02  0.45535583138E+02  0.49759366635E+02  0.76326700797E+02  0.47000000000E+01 0.  1.
         13    1    6    6    0    0 -0.22256527619E+02 -0.22076253172E+02  0.11460902207E+03  0.11881894595E+03  0.00000000000E+00 0. -1.
        -14    1    6    6    0    0 -0.89503078503E+02  0.69502513666E+02  0.51394128488E+03  0.52628608644E+03  0.00000000000E+00 0.  1.
</event>
<event>
12    1  0.8133506E-002  0.3859102E+03  0.7818608E-02  0.1048806E+00
         21   -1    0    0  501  502  0.00000000000E+00  0.00000000000E+00  0.99585409430E+02  0.99585409430E+02  0.00000000000E+00 0.  1.
         21   -1    0    0  502  503 -0.00000000000E+00 -0.00000000000E+00 -0.15250204719E+04  0.15250204719E+04  0.00000000000E+00 0. -1.
         -6    2    1    2    0  503  0.31580782950E+03 -0.13977391338E+03 -0.59639715616E+03  0.71014945533E+03  0.17132235402E+03 0.  0.
        -24    2    3    3    0    0  0.32939553726E+03 -0.14722266641E+03 -0.57648378824E+03  0.68448348670E+03  0.77512269903E+02 0.  0.
          6    2    1    2  501    0 -0.31580782950E+03  0.13977391338E+03 -0.82903790629E+03  0.91445642599E+03  0.17220735444E+03 0.  0.
         24    2    5    5    0    0 -0.19734025445E+03  0.15076752393E+03 -0.63638446343E+03  0.68797714468E+03  0.81568033076E+02 0.  0.
          5    1    5    5  501    0 -0.11846757505E+03 -0.10993610550E+02 -0.19265344286E+03  0.22647928130E+03  0.47000000000E+01 0. -1.
        -11    1    6    6    0    0 -0.14761202145E+03  0.68601055787E+02 -0.35202575229E+03  0.38783700701E+03  0.00000000000E+00 0.  1.
         12    1    6    6    0    0 -0.49728233005E+02  0.82166468139E+02 -0.28435871114E+03  0.30014013767E+03  0.00000000000E+00 0. -1.
         -5    1    3    3    0  503 -0.13587707757E+02  0.74487530293E+01 -0.19913367922E+02  0.25665968631E+02  0.47000000000E+01 0.  1.
         13    1    4    4    0    0  0.16604312933E+03 -0.35827286317E+02 -0.29676734211E+03  0.34194264224E+03  0.00000000000E+00 0. -1.
        -14    1    4    4    0    0  0.16335240793E+03 -0.11139538009E+03 -0.27971644613E+03  0.34254084445E+03  0.00000000000E+00 0.  1.
</event>
<event>
12    1  0.8133506E-002  0.2354750E+03  0.7818608E-02  0.1122845E+00
         21   -1    0    0  503  502  0.00000000000E+00  0.00000000000E+00  0.39899706888E+03  0.39899706888E+03  0.00000000000E+00 0. -1.
         21   -1    0    0  501  503 -0.00000000000E+00 -0.00000000000E+00 -0.14436544038E+03  0.14436544038E+03  0.00000000000E+00 0. -1.
          6    2    1    2  501    0 -0.15997828500E+03  0.17805468957E+02  0.74780684970E+02  0.24706055939E+03  0.17186239486E+03 0.  0.
         24    2    3    3    0    0 -0.65760198315E+02 -0.49516114556E+02  0.62137382569E+02  0.13047931493E+03  0.79922137289E+02 0.  0.
         -6    2    1    2    0  502  0.15997828500E+03 -0.17805468957E+02  0.17985094353E+03  0.29630194987E+03  0.17186738263E+03 0.  0.
        -24    2    5    5    0    0  0.66576022345E+02  0.49654387356E+02  0.60467190174E+02  0.13032187442E+03  0.80184692609E+02 0.  0.
          5    1    3    3  501    0 -0.94218086684E+02  0.67321583514E+02  0.12643302401E+02  0.11658124446E+03  0.47000000000E+01 0. -1.
        -11    1    4    4    0    0 -0.83557126494E+02 -0.49123916145E+02  0.52925649307E+02  0.11043584961E+03  0.00000000000E+00 0.  1.
         12    1    4    4    0    0  0.17796928178E+02 -0.39219841105E+00  0.92117332626E+01  0.20043465316E+02  0.00000000000E+00 0. -1.
         -5    1    5    5    0  502  0.93402262654E+02 -0.67459856313E+02  0.11938375335E+03  0.16598007545E+03  0.47000000000E+01 0.  1.
         11    1    6    6    0    0  0.62761324998E+02 -0.22255473980E+01  0.26305063626E+02  0.68087394936E+02  0.00000000000E+00 0. -1.
        -12    1    6    6    0    0  0.38146973469E+01  0.51879934754E+02  0.34162126547E+02  0.62234479480E+02  0.00000000000E+00 0.  1.
</event>
<event>
12    1  0.8133506E-002  0.1829890E+03  0.7818608E-02  0.1165188E+00
         21   -1    0    0  503  502  0.00000000000E+00  0.00000000000E+00  0.23878245152E+03  0.23878245152E+03  0.00000000000E+00 0. -1.
         21   -1    0    0  501  503 -0.00000000000E+00 -0.00000000000E+00 -0.13978012533E+03  0.13978012533E+03  0.00000000000E+00 0. -1.
          6    2    1    2  501    0  0.21390225322E+01 -0.55219656208E+02  0.59021191781E+02  0.19227184746E+03  0.17444533928E+03 0.  0.
         24    2    3    3    0    0  0.35024506156E+02 -0.91538815512E+02  0.32576685605E+02  0.13639753966E+03  0.89089716592E+02 0.  0.
         -6    2    1    2    0  502 -0.21390225322E+01  0.55219656208E+02  0.39981134417E+02  0.18629072939E+03  0.17335500829E+03 0.  0.
        -24    2    5    5    0    0 -0.45803924754E+02  0.70780894002E+02 -0.10255248810E+02  0.11777387010E+03  0.81593994087E+02 0.  0.
          5    1    3    3  501    0 -0.32885483623E+02  0.36319159304E+02  0.26444506176E+02  0.55874307804E+02  0.47000000000E+01 0. -1.
        -11    1    4    4    0    0  0.46826955455E+02 -0.74362607690E+02  0.56651114081E+02  0.10455577414E+03  0.00000000000E+00 0.  1.
         12    1    4    4    0    0 -0.11802449300E+02 -0.17176207822E+02 -0.24074428476E+02  0.31841765514E+02  0.00000000000E+00 0. -1.
         -5    1    5    5    0  502  0.43664902221E+02 -0.15561237793E+02  0.50236383227E+02  0.68516859293E+02  0.47000000000E+01 0.  1.
         13    1    6    6    0    0  0.70899893923E+01  0.24446208747E+02  0.27903678359E+02  0.37769039406E+02  0.00000000000E+00 0. -1.
        -14    1    6    6    0    0 -0.52893914146E+02  0.46334685255E+02 -0.38158927169E+02  0.80004830692E+02  0.00000000000E+00 0.  1.
</event>
<event>
12    1  0.8133506E-002  0.2089432E+03  0.7818608E-02  0.1142566E+00
         21   -1    0    0  503  502  0.00000000000E+00  0.00000000000E+00  0.85818971125E+02  0.85818971125E+02  0.00000000000E+00 0.  1.
         21   -1    0    0  501  503 -0.00000000000E+00 -0.00000000000E+00 -0.53557832900E+03  0.53557832900E+03  0.00000000000E+00 0.  1.
          6    2    1    2  501    0 -0.52733966393E+02 -0.10560457289E+03 -0.29735823141E+03  0.36342699119E+03  0.17240667944E+03 0.  0.
         24    2    3    3    0    0  0.36110083349E+02 -0.46416696889E+02 -0.17765531366E+03  0.20296718826E+03  0.78586393024E+02 0.  0.
         -6    2    1    2    0  502  0.52733966393E+02  0.10560457289E+03 -0.15240112647E+03  0.25797030893E+03  0.17143331040E+03 0.  0.
        -24    2    5    5    0    0  0.94815080644E+02  0.44831365446E+02 -0.79034504915E+02  0.15371603287E+03  0.79890017826E+02 0.  0.
          5    1    3    3  501    0 -0.88844049743E+02 -0.59187876004E+02 -0.11970291775E+03  0.16045980294E+03  0.47000000000E+01 0. -1.
        -13    1    4    4    0    0  0.43313686433E+01 -0.60021534643E+02 -0.85606399465E+02  0.10464129684E+03  0.00000000000E+00 0.  1.
         14    1    4    4    0    0  0.31778714706E+02  0.13604837754E+02 -0.92048914192E+02  0.98325891415E+02  0.00000000000E+00 0. -1.
         -5    1    5    5    0  502 -0.42081114251E+02  0.60773207446E+02 -0.73366621554E+02  0.10425427607E+03  0.47000000000E+01 0.  1.
         11    1    6    6    0    0 -0.64953372006E+01 -0.13046912286E+02 -0.13642724632E+02  0.19963347939E+02  0.00000000000E+00 0. -1.
        -12    1    6    6    0    0  0.10131041784E+03  0.57878277733E+02 -0.65391780283E+02  0.13375268493E+03  0.00000000000E+00 0.  1.
</event>
<event>
12    1  0.8133506E-002  0.1845050E+03  0.7818608E-02  0.1163533E+00
         21   -1    0    0  503  502  0.00000000000E+00  0.00000000000E+00  0.44250608908E+02  0.44250608908E+02  0.00000000000E+00 0. -1.
         21   -1    0    0  501  503 -0.00000000000E+00 -0.00000000000E+00 -0.92562155984E+03  0.92562155984E+03  0.00000000000E+00 0. -1.
          6    2    1    2  501    0  0.41554885254E+02 -0.49892277312E+02 -0.64010934750E+03  0.66614655926E+03  0.17261290169E+03 0.  0.
         24    2    3    3    0    0  0.29511404961E+02 -0.10082211565E+03 -0.47914116367E+03  0.49681924292E+03  0.78848483751E+02 0.  0.
         -6    2    1    2    0  502 -0.41554885254E+02  0.49892277312E+02 -0.24126160343E+03  0.30372560949E+03  0.17270216196E+03 0.  0.
        -24    2    5    5    0    0 -0.51906306200E+02 -0.29989621454E+02 -0.11509793005E+03  0.15396702995E+03  0.82853308867E+02 0.  0.
          5    1    3    3  501    0  0.12043480293E+02  0.50929838338E+02 -0.16096818383E+03  0.16932731634E+03  0.47000000000E+01 0. -1.
        -13    1    4    4    0    0  0.71966639967E+01 -0.33670968633E+02 -0.32946240685E+03  0.33125670352E+03  0.00000000000E+00 0.  1.
         14    1    4    4    0    0  0.22314740965E+02 -0.67151147017E+02 -0.14967875682E+03  0.16556253940E+03  0.00000000000E+00 0. -1.
         -5    1    5    5    0  502  0.10351420946E+02  0.79881898766E+02 -0.12616367338E+03  0.14975857954E+03  0.47000000000E+01 0.  1.
         11    1    6    6    0    0 -0.67727841051E+02 -0.75446426569E+01 -0.10402216728E+03  0.12435671824E+03  0.00000000000E+00 0. -1.
        -12    1    6    6    0    0  0.15821534851E+02 -0.22444978797E+02 -0.11075762769E+02  0.29610311703E+02  0.00000000000E+00 0.  1.
</event>
<event>
12    1  0.8133506E-002  0.2895944E+03  0.7818608E-02  0.1090644E+00
         21   -1    0    0  503  502  0.00000000000E+00  0.00000000000E+00  0.41731831894E+03  0.41731831894E+03  0.00000000000E+00 0. -1.
         21   -1    0    0  501  503 -0.00000000000E+00 -0.00000000000E+00 -0.25170048798E+03  0.25170048798E+03  0.00000000000E+00 0. -1.
          6    2    1    2  501    0  0.20202257628E+03  0.11327296881E+03 -0.67955086375E+02  0.29746063437E+03  0.17384202151E+03 0.  0.
         24    2    3    3    0    0  0.17619307807E+02  0.38233554416E+02 -0.22329867619E+02  0.93158823991E+02  0.80048103091E+02 0.  0.
         -6    2    1    2    0  502 -0.20202257628E+03 -0.11327296881E+03  0.23357291733E+03  0.37155817255E+03  0.17278680821E+03 0.  0.
        -24    2    5    5    0    0 -0.17831938415E+03 -0.35348513767E+02  0.20564176672E+03  0.28532418166E+03  0.77936077850E+02 0.  0.
          5    1    3    3  501    0  0.18440326847E+03  0.75039414394E+02 -0.45625218755E+02  0.20430181038E+03  0.47000000000E+01 0. -1.
        -13    1    4    4    0    0 -0.22522895029E+02  0.40729367766E+02  0.12081207533E+01  0.46557724975E+02  0.00000000000E+00 0.  1.
         14    1    4    4    0    0  0.40142202836E+02 -0.24958133498E+01 -0.23537988373E+02  0.46601099016E+02  0.00000000000E+00 0. -1.
         -5    1    5    5    0  502 -0.23703192132E+02 -0.77924455044E+02  0.27931150604E+02  0.86233990893E+02  0.47000000000E+01 0.  1.
         11    1    6    6    0    0 -0.18071144292E+03 -0.35255885023E+02  0.17315518981E+03  0.25274952579E+03  0.00000000000E+00 0. -1.
        -12    1    6    6    0    0  0.23920587703E+01 -0.92628743729E-01  0.32486576917E+02  0.32574655870E+02  0.00000000000E+00 0.  1.
</event>
<event>
12    1  0.8133506E-002  0.2000818E+03  0.7818608E-02  0.1150113E+00
         21   -1    0    0  503  502  0.00000000000E+00  0.00000000000E+00  0.68443479825E+03  0.68443479825E+03  0.00000000000E+00 0. -1.
         21   -1    0    0  501  503 -0.00000000000E+00 -0.00000000000E+00 -0.17259931496E+03  0.17259931496E+03  0.00000000000E+00 0. -1.
          6    2    1    2  501    0 -0.43411022820E+02 -0.89607000417E+02 -0.92983610327E+02  0.22063242003E+03  0.17354763482E+03 0.  0.
         24    2    3    3    0    0 -0.61768103636E+02 -0.28655738651E+02  0.35759490619E+01  0.10488322031E+03  0.79694745787E+02 0.  0.
         -6    2    1    2    0  502  0.43411022820E+02  0.89607000417E+02  0.60481909361E+03  0.63640169318E+03  0.17113458930E+03 0.  0.
        -24    2    5    5    0    0  0.59778857077E+02  0.26444699496E+02  0.51577715151E+03  0.52591214747E+03  0.79275992325E+02 0.  0.
          5    1    3    3  501    0  0.18357080816E+02 -0.60951261765E+02 -0.96559559389E+02  0.11574919972E+03  0.47000000000E+01 0. -1.
        -11    1    4    4    0    0 -0.47489122268E+01 -0.17019994817E+02  0.34662309884E+02  0.38906402011E+02  0.00000000000E+00 0.  1.
         12    1    4    4    0    0 -0.57019191409E+02 -0.11635743834E+02 -0.31086360822E+02  0.65976818298E+02  0.00000000000E+00 0. -1.
         -5    1    5    5    0  502 -0.16367834257E+02  0.63162300920E+02  0.89041942106E+02  0.11048954570E+03  0.47000000000E+01 0.  1.
         13    1    6    6    0    0 -0.19121682723E+02  0.68143748861E+01  0.13796622648E+03  0.13945161923E+03  0.00000000000E+00 0. -1.
        -14    1    6    6    0    0  0.78900539800E+02  0.19630324610E+02  0.37781092503E+03  0.38646052825E+03  0.00000000000E+00 0.  1.
</event>
<event>
12    1  0.8133506E-002  0.1745692E+03  0.7818608E-02  0.1173370E+00
         21   -1    0    0  503  502  0.00000000000E+00  0.00000000000E+00  0.81141074315E+02  0.81141074315E+02  0.00000000000E+00 0.  1.
         21   -1    0    0  501  503 -0.00000000000E+00 -0.00000000000E+00 -0.53159263064E+03  0.53159263064E+03  0.00000000000E+00 0.  1.
          6    2    1    2  501    0 -0.30013391754E+01  0.10384836406E+02 -0.57953333158E+02  0.18316500970E+03  0.17341850850E+03 0.  0.
         24    2    3    3    0    0 -0.67387950273E+02  0.17668986957E+02 -0.53081057266E+02  0.11801500118E+03  0.79098754229E+02 0.  0.
         -6    2    1    2    0  502  0.30013391754E+01 -0.10384836406E+02 -0.39249822317E+03  0.42956869526E+03  0.17423419840E+03 0.  0.
        -24    2    5    5    0    0 -0.63721644841E+02 -0.85314766902E+01 -0.28587333505E+03  0.30368641571E+03  0.79803767309E+02 0.  0.
          5    1    3    3  501    0  0.64386611098E+02 -0.72841505514E+01 -0.48722758914E+01  0.65150008521E+02  0.47000000000E+01 0. -1.
        -13    1    4    4    0    0 -0.38384570455E+02 -0.28652864168E+02 -0.38490726836E+02  0.61448335424E+02  0.00000000000E+00 0.  1.
         14    1    4    4    0    0 -0.29003379818E+02  0.46321851125E+02 -0.14590330430E+02  0.56566665754E+02  0.00000000000E+00 0. -1.
         -5    1    5    5    0  502  0.66722984017E+02 -0.18533597158E+01 -0.10662488812E+03  0.12588227955E+03  0.47000000000E+01 0.  1.
         13    1    6    6    0    0 -0.36169055207E+02 -0.13829313139E+02 -0.38079809806E+02  0.54309505350E+02  0.00000000000E+00 0. -1.
        -14    1    6    6    0    0 -0.27552589634E+02  0.52978364492E+01 -0.24779352524E+03  0.24937691036E+03  0.00000000000E+00 0.  1.
</event>
<event>
12    1  0.8133506E-002  0.1859949E+03  0.7818608E-02  0.1162958E+00
         21   -1    0    0  501  502  0.00000000000E+00  0.00000000000E+00  0.11284857501E+04  0.11284857501E+04  0.00000000000E+00 0.  1.
         21   -1    0    0  502  503 -0.00000000000E+00 -0.00000000000E+00 -0.30071867274E+02  0.30071867274E+02  0.00000000000E+00 0. -1.
         -6    2    1    2    0  503  0.29229361010E+02 -0.62741652790E+02  0.55736483602E+03  0.58757948433E+03  0.17263608961E+03 0.  0.
        -24    2    3    3    0    0 -0.29875345436E+02 -0.64444374315E+02  0.21785714376E+03  0.24292918520E+03  0.80667467367E+02 0.  0.
          6    2    1    2  501    0 -0.29229361010E+02  0.62741652790E+02  0.54104904685E+03  0.57097813309E+03  0.16879302955E+03 0.  0.
         24    2    5    5    0    0 -0.74726831810E+02  0.26254212576E+02  0.18120157745E+03  0.20640489713E+03  0.59123487869E+02 0.  0.
          5    1    5    5  501    0  0.45497470800E+02  0.36487440214E+02  0.35984746940E+03  0.36457323596E+03  0.47000000000E+01 0. -1.
        -11    1    6    6    0    0 -0.82108272698E+02  0.12591519568E+02  0.15761665743E+03  0.17816656676E+03  0.00000000000E+00 0.  1.
         12    1    6    6    0    0  0.73814408881E+01  0.13662693008E+02  0.23584920020E+02  0.28238330371E+02  0.00000000000E+00 0. -1.
         -5    1    3    3    0  503  0.59104706446E+02  0.17027215251E+01  0.33950769226E+03  0.34465029913E+03  0.47000000000E+01 0.  1.
         13    1    4    4    0    0 -0.38297587875E+02 -0.67296086160E+02  0.22046147589E+03  0.23366371306E+03  0.00000000000E+00 0. -1.
        -14    1    4    4    0    0  0.84222424395E+01  0.28517118452E+01 -0.26043321330E+01  0.92654721421E+01  0.00000000000E+00 0.  1.
</event>
<event>
12    1  0.8133506E-002  0.2124969E+03  0.7818608E-02  0.1140480E+00
         21   -1    0    0  501  502  0.00000000000E+00  0.00000000000E+00  0.37994131223E+03  0.37994131223E+03  0.00000000000E+00 0. -1.
         21   -1    0    0  502  503 -0.00000000000E+00 -0.00000000000E+00 -0.16419134321E+03  0.16419134321E+03  0.00000000000E+00 0. -1.
         -6    2    1    2    0  503  0.60671358035E+02 -0.10620067213E+03 -0.38133278467E+02  0.21589139819E+03  0.17376809960E+03 0.  0.
        -24    2    3    3    0    0  0.78896260911E+02 -0.11496181566E+03 -0.63200524755E+02  0.18334356328E+03  0.10089458272E+03 0.  0.
          6    2    1    2  501    0 -0.60671358035E+02  0.10620067213E+03  0.25388324748E+03  0.32824125725E+03  0.16830336646E+03 0.  0.
         24    2    5    5    0    0 -0.46097277070E+02  0.13075178672E+03  0.14758277200E+03  0.21807301250E+03  0.80957862528E+02 0.  0.
          5    1    5    5  501    0 -0.14574080965E+02 -0.24551114590E+02  0.10630047549E+03  0.11016824475E+03  0.47000000000E+01 0. -1.
        -11    1    6    6    0    0 -0.34948547126E+02  0.17530575994E+02  0.11617706964E+02  0.40788394869E+02  0.00000000000E+00 0.  1.
         12    1    6    6    0    0 -0.11148729944E+02  0.11322121073E+03  0.13596506503E+03  0.17728461763E+03  0.00000000000E+00 0. -1.
         -5    1    3    3    0  503 -0.18224902876E+02  0.87611435301E+01  0.25067246287E+02  0.32547834908E+02  0.47000000000E+01 0.  1.
         13    1    4    4    0    0  0.54497881565E+02 -0.74608328159E+02 -0.90102327977E+02  0.12905367578E+03  0.00000000000E+00 0. -1.
        -14    1    4    4    0    0  0.24398379345E+02 -0.40353487505E+02  0.26901803222E+02  0.54289887503E+02  0.00000000000E+00 0.  1.
</event>
<event>
12    1  0.8133506E-002  0.1833216E+03  0.7818608E-02  0.1165179E+00
         21   -1    0    0  501  502  0.00000000000E+00  0.00000000000E+00  0.47190628268E+02  0.47190628268E+02  0.00000000000E+00 0.  1.
         21   -1    0    0  502  503 -0.00000000000E+00 -0.00000000000E+00 -0.14847198517E+04  0.14847198517E+04  0.00000000000E+00 0. -1.
         -6    2    1    2    0  503 -0.62370569966E+02 -0.12306943068E+02 -0.12766559407E+04  0.12897508271E+04  0.17194550369E+03 0.  0.
        -24    2    3    3    0    0  0.26300779575E+01  0.43013955764E+02 -0.49259781276E+03  0.50104636784E+03  0.80856291558E+02 0.  0.
          6    2    1    2  501    0  0.62370569966E+02  0.12306943068E+02 -0.16087328282E+03  0.24215965295E+03  0.16946839100E+03 0.  0.
         24    2    5    5    0    0  0.96929789643E+02  0.12397556917E+01 -0.71241209190E+02  0.14534632265E+03  0.81567901204E+02 0.  0.
          5    1    5    5  501    0 -0.34559219677E+02  0.11067187377E+02 -0.89632073629E+02  0.96813330302E+02  0.47000000000E+01 0. -1.
        -11    1    6    6    0    0  0.45942179414E+02 -0.40089243092E+02 -0.36916267883E+02  0.71278622990E+02  0.00000000000E+00 0.  1.
         12    1    6    6    0    0  0.50987610229E+02  0.41328998783E+02 -0.34324941307E+02  0.74067699661E+02  0.00000000000E+00 0. -1.
         -5    1    3    3    0  503 -0.65000647924E+02 -0.55320898832E+02 -0.78405812790E+03  0.78870445922E+03  0.47000000000E+01 0.  1.
         11    1    4    4    0    0 -0.20195884292E+02 -0.64064707795E+01 -0.30432132670E+03  0.30505800513E+03  0.00000000000E+00 0. -1.
        -12    1    4    4    0    0  0.22825962250E+02  0.49420426543E+02 -0.18827648606E+03  0.19598836271E+03  0.00000000000E+00 0.  1.
</event>
<event>
12    1  0.8133506E-002  0.2726685E+03  0.7818608E-02  0.1099862E+00
         21   -1    0    0  501  502  0.00000000000E+00  0.00000000000E+00  0.18947269117E+03  0.18947269117E+03  0.00000000000E+00 0.  1.
         21   -1    0    0  502  503 -0.00000000000E+00 -0.00000000000E+00 -0.55188298240E+03  0.55188298240E+03  0.00000000000E+00 0. -1.
         -6    2    1    2    0  503  0.42998405010E+02 -0.20759299896E+03  0.18862571934E+02  0.27261574348E+03  0.17035207931E+03 0.  0.
        -24    2    3    3    0    0  0.78876124902E+02 -0.83960058134E+02 -0.10314279697E+02  0.14053359665E+03  0.79828397075E+02 0.  0.
          6    2    1    2  501    0 -0.42998405010E+02  0.20759299896E+03 -0.38127286316E+03  0.46873993009E+03  0.17147714084E+03 0.  0.
         24    2    5    5    0    0 -0.56750406234E+02  0.82581607496E+02 -0.10954786318E+03  0.16928453918E+03  0.81339967875E+02 0.  0.
          5    1    5    5  501    0  0.13752001224E+02  0.12501139146E+03 -0.27172499997E+03  0.29945539091E+03  0.47000000000E+01 0. -1.
        -13    1    6    6    0    0 -0.15130284931E+02 -0.15341633663E+02 -0.10719166570E+02  0.24066403502E+02  0.00000000000E+00 0.  1.
         14    1    6    6    0    0 -0.41620121303E+02  0.97923241159E+02 -0.98828696613E+02  0.14521813568E+03  0.00000000000E+00 0. -1.
         -5    1    3    3    0  503 -0.35877719892E+02 -0.12363294082E+03  0.29176851632E+02  0.13208214683E+03  0.47000000000E+01 0.  1.
         13    1    4    4    0    0  0.18325852144E+02  0.13687651399E+02 -0.11561965382E+02  0.25629430371E+02  0.00000000000E+00 0. -1.
        -14    1    4    4    0    0  0.60550272758E+02 -0.97647709533E+02  0.12476856847E+01  0.11490416628E+03  0.00000000000E+00 0.  1.
</event>
<event>
12    1  0.8133506E-002  0.1788248E+03  0.7818608E-02  0.1169415E+00
         21   -1    0    0  503  502  0.00000000000E+00  0.00000000000E+00  0.19653921625E+03  0.19653921625E+03  0.00000000000E+00 0. -1.
         21   -1    0    0  501  503 -0.00000000000E+00 -0.00000000000E+00 -0.20526504677E+03  0.20526504677E+03  0.00000000000E+00 0. -1.
          6    2    1    2  501    0 -0.16788421443E+02 -0.37608322311E+02 -0.97667709133E+02  0.20208205881E+03  0.17205214350E+03 0.  0.
         24    2    3    3    0    0 -0.55596209779E+02  0.16117218285E+02 -0.92766701558E+02  0.13545932978E+03  0.79955399069E+02 0.  0.
         -6    2    1    2    0  502  0.16788421443E+02  0.37608322311E+02  0.88941878612E+02  0.19972220421E+03  0.17401742465E+03 0.  0.
        -24    2    5    5    0    0 -0.52964089493E+02  0.16369610136E+02  0.80419512967E+02  0.12616123363E+03  0.79851110780E+02 0.  0.
          5    1    3    3  501    0  0.38807788337E+02 -0.53725540596E+02 -0.49010075758E+01  0.66622729028E+02  0.47000000000E+01 0. -1.
        -11    1    4    4    0    0 -0.26846319611E+01  0.16472854536E+02  0.10293805242E+02  0.19609299113E+02  0.00000000000E+00 0.  1.
         12    1    4    4    0    0 -0.52911577818E+02 -0.35563625149E+00 -0.10306050680E+03  0.11585003067E+03  0.00000000000E+00 0. -1.
         -5    1    5    5    0  502  0.69752510936E+02  0.21238712175E+02  0.85223656449E+01  0.73560970581E+02  0.47000000000E+01 0.  1.
         13    1    6    6    0    0  0.82468976506E+01 -0.82552882047E+01  0.53740650499E+02  0.54992896089E+02  0.00000000000E+00 0. -1.
        -14    1    6    6    0    0 -0.61210987144E+02  0.24624898340E+02  0.26678862468E+02  0.71168337538E+02  0.00000000000E+00 0.  1.
</event>
<event>
12    1  0.8133506E-002  0.2435510E+03  0.7818608E-02  0.1117551E+00
         21   -1    0    0  503  502  0.00000000000E+00  0.00000000000E+00  0.15864949818E+03  0.15864949818E+03  0.00000000000E+00 0.  1.
         21   -1    0    0  501  503 -0.00000000000E+00 -0.00000000000E+00 -0.54952984275E+03  0.54952984275E+03  0.00000000000E+00 0.  1.
          6    2    1    2  501    0  0.10311651964E+03 -0.13731004055E+03 -0.39633497430E+03  0.46518654690E+03  0.17271377391E+03 0.  0.
         24    2    3    3    0    0  0.61537747318E+02 -0.13925709289E+03 -0.38516791913E+03  0.42183474830E+03  0.80067450785E+02 0.  0.
         -6    2    1    2    0  502 -0.10311651964E+03  0.13731004055E+03  0.54546297335E+01  0.24299279403E+03  0.17183911401E+03 0.  0.
        -24    2    5    5    0    0 -0.80427697525E+02  0.15026135906E+02  0.23087799549E+02  0.11729015021E+03  0.80805529263E+02 0.  0.
          5    1    3    3  501    0  0.41578772324E+02  0.19470523351E+01 -0.11167055169E+02  0.43351798601E+02  0.47000000000E+01 0. -1.
        -13    1    4    4    0    0  0.23676523422E+02 -0.25211187632E+02 -0.18628082901E+03  0.18946432118E+03  0.00000000000E+00 0.  1.
         14    1    4    4    0    0  0.37861223896E+02 -0.11404590526E+03 -0.19888709013E+03  0.23237042712E+03  0.00000000000E+00 0. -1.
         -5    1    5    5    0  502 -0.22688822117E+02  0.12228390465E+03 -0.17633169816E+02  0.12570264382E+03  0.47000000000E+01 0.  1.
         11    1    6    6    0    0  0.14635294956E+02 -0.75914250392E+01  0.83086648070E+01  0.18462272434E+02  0.00000000000E+00 0. -1.
        -12    1    6    6    0    0 -0.95062992481E+02  0.22617560945E+02  0.14779134742E+02  0.98827877779E+02  0.00000000000E+00 0.  1.
</event>
<event>
12    1  0.8133506E-002  0.1960412E+03  0.7818608E-02  0.1153391E+00
         21   -1    0    0  501  502  0.00000000000E+00  0.00000000000E+00  0.48315732369E+03  0.48315732369E+03  0.00000000000E+00 0. -1.
         21   -1    0    0  502  503 -0.00000000000E+00 -0.00000000000E+00 -0.14533038792E+03  0.14533038792E+03  0.00000000000E+00 0. -1.
         -6    2    1    2    0  503  0.46171080905E+02  0.79928793101E+02 -0.43603241220E+02  0.19962744631E+03  0.17155026667E+03 0.  0.
        -24    2    3    3    0    0  0.48473497885E+02  0.56293685542E+02  0.38016106942E+02  0.11449386053E+03  0.78389799606E+02 0.  0.
          6    2    1    2  501    0 -0.46171080905E+02 -0.79928793101E+02  0.38143017700E+03  0.42886026531E+03  0.17295018519E+03 0.  0.
         24    2    5    5    0    0 -0.15726979409E+02  0.21080154284E+02  0.21129755996E+03  0.22861829131E+03  0.83234328818E+02 0.  0.
          5    1    5    5  501    0 -0.30444101496E+02 -0.10100894738E+03  0.17013261704E+03  0.20024197399E+03  0.47000000000E+01 0. -1.
        -13    1    6    6    0    0 -0.18660953475E+02  0.39888968736E+02  0.51804189938E+02  0.67992904825E+02  0.00000000000E+00 0.  1.
         14    1    6    6    0    0  0.29339740656E+01 -0.18808814452E+02  0.15949337002E+03  0.16062538649E+03  0.00000000000E+00 0. -1.
         -5    1    3    3    0  503 -0.23024169800E+01  0.23635107558E+02 -0.81619348162E+02  0.85133585779E+02  0.47000000000E+01 0.  1.
         11    1    4    4    0    0  0.52036731850E+02  0.21075996891E+02 -0.77078165796E+01  0.56669476290E+02  0.00000000000E+00 0. -1.
        -12    1    4    4    0    0 -0.35632339648E+01  0.35217688651E+02  0.45723923522E+02  0.57824384238E+02  0.00000000000E+00 0.  1.
</event>
<event>
12    1  0.8133506E-002  0.1770745E+03  0.7818608E-02  0.1170708E+00
         21   -1    0    0  503  502  0.00000000000E+00  0.00000000000E+00  0.77912298776E+02  0.77912298776E+02  0.00000000000E+00 0. -1.
         21   -1    0    0  501  503 -0.00000000000E+00 -0.00000000000E+00 -0.66781698963E+03  0.66781698963E+03  0.00000000000E+00 0. -1.
          6    2    1    2  501    0 -0.11029610804E+02  0.40136199872E+02 -0.53026085152E+03  0.55904556573E+03  0.17211277422E+03 0.  0.
         24    2    3    3    0    0  0.24279679527E+02  0.12962193157E+02 -0.49427893912E+03  0.50158287658E+03  0.80722928128E+02 0.  0.
         -6    2    1    2    0  502  0.11029610804E+02 -0.40136199872E+02 -0.59643839332E+02  0.18668372268E+03  0.17193271326E+03 0.  0.
        -24    2    5    5    0    0 -0.61810659064E+01  0.11744855061E+02  0.25686707865E+02  0.85237956187E+02  0.80184506096E+02 0.  0.
          5    1    3    3  501    0 -0.35309290332E+02  0.27174006715E+02 -0.35981912398E+02  0.57462689152E+02  0.47000000000E+01 0. -1.
        -11    1    4    4    0    0  0.13041303206E+02  0.23701742185E+02 -0.47907745340E+03  0.47984065535E+03  0.00000000000E+00 0.  1.
         12    1    4    4    0    0  0.11238376322E+02 -0.10739549029E+02 -0.15201485726E+02  0.21742221229E+02  0.00000000000E+00 0. -1.
         -5    1    5    5    0  502  0.17210676711E+02 -0.51881054933E+02 -0.85330547198E+02  0.10144576649E+03  0.47000000000E+01 0.  1.
         13    1    6    6    0    0 -0.39654794577E+01 -0.31852191351E+02  0.26428613292E+02  0.41578344384E+02  0.00000000000E+00 0. -1.
        -14    1    6    6    0    0 -0.22155864488E+01  0.43597046411E+02 -0.74190542696E+00  0.43659611803E+02  0.00000000000E+00 0.  1.
</event>
<event>
12    1  0.8133506E-002  0.1893786E+03  0.7818608E-02  0.1159647E+00
         21   -1    0    0  503  502  0.00000000000E+00  0.00000000000E+00  0.92078084817E+02  0.92078084817E+02  0.00000000000E+00 0.  1.
         21   -1    0    0  501  503 -0.00000000000E+00 -0.00000000000E+00 -0.38547621502E+03  0.38547621502E+03  0.00000000000E+00 0.  1.
          6    2    1    2  501    0 -0.71174174151E+02 -0.42128253465E+02 -0.16307337355E+03  0.24991431084E+03  0.17036339042E+03 0.  0.
         24    2    3    3    0    0 -0.60706332125E+02  0.24490122252E+02 -0.14793816763E+03  0.18064131352E+03  0.80377595508E+02 0.  0.
         -6    2    1    2    0  502  0.71174174151E+02  0.42128253465E+02 -0.13032475665E+03  0.22763998899E+03  0.16731667456E+03 0.  0.
        -24    2    5    5    0    0  0.46798883975E+02  0.86327465254E+02 -0.58008446228E+02  0.13932541575E+03  0.80025151305E+02 0.  0.
          5    1    3    3  501    0 -0.10467842026E+02 -0.66618375718E+02 -0.15135205919E+02  0.69272997323E+02  0.47000000000E+01 0. -1.
        -11    1    4    4    0    0 -0.27091098820E+02  0.49622954863E+02 -0.56002513967E+02  0.79577929448E+02  0.00000000000E+00 0.  1.
         12    1    4    4    0    0 -0.33615233304E+02 -0.25132832611E+02 -0.91935653661E+02  0.10106338407E+03  0.00000000000E+00 0. -1.
         -5    1    5    5    0  502  0.24375290176E+02 -0.44199211789E+02 -0.72316310423E+02  0.88314573243E+02  0.47000000000E+01 0.  1.
         11    1    6    6    0    0  0.11246628982E+02  0.85479291769E+02 -0.22572409965E+02  0.89121881020E+02  0.00000000000E+00 0. -1.
        -12    1    6    6    0    0  0.35552254993E+02  0.84817348487E+00 -0.35436036263E+02  0.50203534730E+02  0.00000000000E+00 0.  1.
</event>
<event>
12    1  0.8133506E-002  0.2229735E+03  0.7818608E-02  0.1132005E+00
         21   -1    0    0  503  502  0.00000000000E+00  0.00000000000E+00  0.23874799403E+03  0.23874799403E+03  0.00000000000E+00 0. -1.
         21   -1    0    0  501  503 -0.00000000000E+00 -0.00000000000E+00 -0.22042098624E+03  0.22042098624E+03  0.00000000000E+00 0.  1.
          6    2    1    2  501    0 -0.69267142200E+02 -0.12277040692E+03 -0.48314504087E+02  0.22644969742E+03  0.17051294482E+03 0.  0.
         24    2    3    3    0    0 -0.40844666277E+02 -0.45835845813E+02  0.36678920326E+02  0.10824336923E+03  0.81253136935E+02 0.  0.
         -6    2    1    2    0  502  0.69267142200E+02  0.12277040692E+03  0.66641511879E+02  0.23271928284E+03  0.17276186992E+03 0.  0.
        -24    2    5    5    0    0  0.10691087824E+03  0.11539437190E+03  0.78734147280E+02  0.19222510318E+03  0.77495983079E+02 0.  0.
          5    1    3    3  501    0 -0.28422475923E+02 -0.76934561109E+02 -0.84993424413E+02  0.11820632819E+03  0.47000000000E+01 0. -1.
        -11    1    4    4    0    0 -0.26236008899E+02 -0.69345374758E+02  0.27618230929E+02  0.79119377164E+02  0.00000000000E+00 0.  1.
         12    1    4    4    0    0 -0.14608657378E+02  0.23509528945E+02  0.90606893970E+01  0.29123992067E+02  0.00000000000E+00 0. -1.
         -5    1    5    5    0  502 -0.37643736038E+02  0.73760350214E+01 -0.12092635401E+02  0.40494179661E+02  0.47000000000E+01 0.  1.
         11    1    6    6    0    0  0.12665761658E+01  0.47138717667E+02  0.77114097621E+01  0.47782096637E+02  0.00000000000E+00 0. -1.
        -12    1    6    6    0    0  0.10564430207E+03  0.68255654233E+02  0.71022737518E+02  0.14444300654E+03  0.00000000000E+00 0.  1.
</event>
<event>
12    1  0.8133506E-002  0.1899837E+03  0.7818608E-02  0.1158967E+00
         21   -1    0    0  503  502  0.00000000000E+00  0.00000000000E+00  0.49596553584E+03  0.49596553584E+03  0.00000000000E+00 0.  1.
         21   -1    0    0  501  503 -0.00000000000E+00 -0.00000000000E+00 -0.72060801384E+02  0.72060801384E+02  0.00000000000E+00 0.  1.
          6    2    1    2  501    0  0.12470341387E+02  0.82267279288E+02  0.20191202187E+03  0.27724044751E+03  0.17079340299E+03 0.  0.
         24    2    3    3    0    0 -0.28876624724E+02  0.80232091502E+02  0.64071344453E+02  0.13324094769E+03  0.79855901475E+02 0.  0.
         -6    2    1    2    0  502 -0.12470341387E+02 -0.82267279288E+02  0.22199271258E+03  0.29078588971E+03  0.16838127734E+03 0.  0.
        -24    2    5    5    0    0  0.18176370277E+02 -0.83592582604E+02  0.70394383896E+02  0.13604377965E+03  0.78958472600E+02 0.  0.
          5    1    3    3  501    0  0.41346966111E+02  0.20351877864E+01  0.13784067742E+03  0.14399949982E+03  0.47000000000E+01 0. -1.
        -11    1    4    4    0    0  0.18334019600E+02  0.43403446091E+02  0.22409410242E+01  0.47170088233E+02  0.00000000000E+00 0.  1.
         12    1    4    4    0    0 -0.47210644324E+02  0.36828645410E+02  0.61830403429E+02  0.86070859461E+02  0.00000000000E+00 0. -1.
         -5    1    5    5    0  502 -0.30646711664E+02  0.13253033161E+01  0.15159832868E+03  0.15474211005E+03  0.47000000000E+01 0.  1.
         13    1    6    6    0    0  0.32330374453E+02 -0.89937205440E+02  0.73068983084E+02  0.12030390818E+03  0.00000000000E+00 0. -1.
        -14    1    6    6    0    0 -0.14154004176E+02  0.63446228355E+01 -0.26745991883E+01  0.15739871472E+02  0.00000000000E+00 0.  1.
</event>
<event>
12    1  0.8133506E-002  0.1901227E+03  0.7818608E-02  0.1158745E+00
         21   -1    0    0  501  502  0.00000000000E+00  0.00000000000E+00  0.10398976154E+04  0.10398976154E+04  0.00000000000E+00 0.  1.
         21   -1    0    0  502  503 -0.00000000000E+00 -0.00000000000E+00 -0.34986023720E+02  0.34986023720E+02  0.00000000000E+00 0.  1.
         -6    2    1    2    0  503 -0.50012195187E+02  0.61624308996E+02  0.43317231496E+03  0.47236191203E+03  0.17084714326E+03 0.  0.
        -24    2    3    3    0    0 -0.83798323729E+02  0.74854005568E+02  0.40030094348E+03  0.42317711340E+03  0.78820953712E+02 0.  0.
          6    2    1    2  501    0  0.50012195187E+02 -0.61624308996E+02  0.57173927674E+03  0.60252172711E+03  0.17276532044E+03 0.  0.
         24    2    5    5    0    0 -0.14131371004E+02 -0.45331419074E+02  0.48234213954E+03  0.49119431141E+03  0.79770162278E+02 0.  0.
          5    1    5    5  501    0  0.64143566191E+02 -0.16292889922E+02  0.89397137199E+02  0.11132741569E+03  0.47000000000E+01 0. -1.
        -13    1    6    6    0    0 -0.43540400782E+02 -0.17192275955E+02  0.33788938978E+03  0.34111666711E+03  0.00000000000E+00 0.  1.
         14    1    6    6    0    0  0.29409029778E+02 -0.28139143119E+02  0.14445274976E+03  0.15007764431E+03  0.00000000000E+00 0. -1.
         -5    1    3    3    0  503  0.33786128542E+02 -0.13229696572E+02  0.32871371477E+02  0.49184798628E+02  0.47000000000E+01 0.  1.
         11    1    4    4    0    0 -0.52641866189E+02  0.84511811672E+02  0.24445042814E+03  0.26394966226E+03  0.00000000000E+00 0. -1.
        -12    1    4    4    0    0 -0.31156457540E+02 -0.96578061040E+01  0.15585051534E+03  0.15922745114E+03  0.00000000000E+00 0.  1.
</event>
<event>
12    1  0.8133506E-002  0.1930256E+03  0.7818608E-02  0.1156071E+00
         21   -1    0    0  501  502  0.00000000000E+00  0.00000000000E+00  0.22204275690E+04  0.22204275690E+04  0.00000000000E+00 0.  1.
         21   -1    0    0  502  503 -0.00000000000E+00 -0.00000000000E+00 -0.19545832976E+02  0.19545832976E+02  0.00000000000E+00 0.  1.
         -6    2    1    2    0  503 -0.17632712394E+02  0.81451762290E+02  0.66657366746E+03  0.69357108033E+03  0.17255459192E+03 0.  0.
        -24    2    3    3    0    0 -0.20318422377E+02 -0.23360027457E+02  0.32977818865E+03  0.34080202152E+03  0.80211189936E+02 0.  0.
          6    2    1    2  501    0  0.17632712394E+02 -0.81451762290E+02  0.15343080686E+04  0.15464023217E+04  0.17410798088E+03 0.  0.
         24    2    5    5    0    0 -0.21654973593E+02 -0.67894894905E+01  0.38023149012E+03  0.38923646656E+03  0.80087488271E+02 0.  0.
          5    1    5    5  501    0  0.39287685988E+02 -0.74662272799E+02  0.11540765785E+04  0.11571658551E+04  0.47000000000E+01 0. -1.
        -13    1    6    6    0    0  0.26767527816E+02 -0.17369829239E+02  0.11167359245E+03  0.11614302719E+03  0.00000000000E+00 0.  1.
         14    1    6    6    0    0 -0.48422501410E+02  0.10580339748E+02  0.26855789766E+03  0.27309343937E+03  0.00000000000E+00 0. -1.
         -5    1    3    3    0  503  0.26857099827E+01  0.10481178975E+03  0.33679547881E+03  0.35276905881E+03  0.47000000000E+01 0.  1.
         11    1    4    4    0    0  0.20991544757E+02  0.13900333741E+01  0.27051514403E+02  0.34268959359E+02  0.00000000000E+00 0. -1.
        -12    1    4    4    0    0 -0.41309967134E+02 -0.24750060831E+02  0.30272667425E+03  0.30653306216E+03  0.00000000000E+00 0.  1.
</event>
<event>
12    1  0.8133506E-002  0.1980219E+03  0.7818608E-02  0.1151827E+00
         21   -1    0    0  503  502  0.00000000000E+00  0.00000000000E+00  0.25065898553E+03  0.25065898553E+03  0.00000000000E+00 0.  1.
         21   -1    0    0  501  503 -0.00000000000E+00 -0.00000000000E+00 -0.31228592266E+03  0.31228592266E+03  0.00000000000E+00 0. -1.
          6    2    1    2  501    0  0.85261113187E+02  0.41071939722E+02 -0.23068290903E+03  0.30401855615E+03  0.17394342849E+03 0.  0.
         24    2    3    3    0    0  0.59726755839E+02  0.92184624803E+02 -0.12886081071E+03  0.18716677103E+03  0.79755885217E+02 0.  0.
         -6    2    1    2    0  502 -0.85261113187E+02 -0.41071939722E+02  0.16905597190E+03  0.25892635204E+03  0.17177477257E+03 0.  0.
        -24    2    5    5    0    0  0.21138343976E+02 -0.66556277078E+01  0.66073538290E+02  0.10683164914E+03  0.80970129244E+02 0.  0.
          5    1    3    3  501    0  0.25534357348E+02 -0.51112685081E+02 -0.10182209832E+03  0.11685178513E+03  0.47000000000E+01 0. -1.
        -11    1    4    4    0    0  0.57785971912E+02  0.59694063368E+02 -0.39364770001E+02  0.91935764903E+02  0.00000000000E+00 0.  1.
         12    1    4    4    0    0  0.19407839272E+01  0.32490561435E+02 -0.89496040711E+02  0.95231006125E+02  0.00000000000E+00 0. -1.
         -5    1    5    5    0  502 -0.10639945716E+03 -0.34416312014E+02  0.10298243361E+03  0.15209470290E+03  0.47000000000E+01 0.  1.
         13    1    6    6    0    0 -0.21245468491E+02 -0.18378593144E+02  0.77036958082E+00  0.28102243445E+02  0.00000000000E+00 0. -1.
        -14    1    6    6    0    0  0.42383812467E+02  0.11722965436E+02  0.65303168709E+02  0.78729405696E+02  0.00000000000E+00 0.  1.
</event>
<event>
12    1  0.8133506E-002  0.2275738E+03  0.7818608E-02  0.1128411E+00
         21   -1    0    0  501  502  0.00000000000E+00  0.00000000000E+00  0.10091094420E+03  0.10091094420E+03  0.00000000000E+00 0. -1.
         21   -1    0    0  502  503 -0.00000000000E+00 -0.00000000000E+00 -0.51551687699E+03  0.51551687699E+03  0.00000000000E+00 0. -1.
         -6    2    1    2    0  503 -0.14599445850E+03 -0.20577970364E+02 -0.23074187927E+03  0.32408585502E+03  0.17335510318E+03 0.  0.
        -24    2    3    3    0    0 -0.16031231436E+03 -0.55852399622E+02 -0.20477414126E+03  0.27776415629E+03  0.80005930479E+02 0.  0.
          6    2    1    2  501    0  0.14599445850E+03  0.20577970364E+02 -0.18386405352E+03  0.29234196617E+03  0.17297398713E+03 0.  0.
         24    2    5    5    0    0  0.67989819049E+02 -0.66416496974E+01 -0.18113733838E+03  0.20954609388E+03  0.80200393382E+02 0.  0.
          5    1    5    5  501    0  0.78004639456E+02  0.27219620061E+02 -0.27267151458E+01  0.82795872291E+02  0.47000000000E+01 0. -1.
        -11    1    6    6    0    0  0.13365417678E+02  0.32978982546E+02 -0.43053699857E+02  0.55855785294E+02  0.00000000000E+00 0.  1.
         12    1    6    6    0    0  0.54624401371E+02 -0.39620632243E+02 -0.13808363852E+03  0.15369030858E+03  0.00000000000E+00 0. -1.
         -5    1    3    3    0  503  0.14317855860E+02  0.35274429258E+02 -0.25967738008E+02  0.46321698729E+02  0.47000000000E+01 0.  1.
         13    1    4    4    0    0 -0.39434291464E+02 -0.26891108855E+02 -0.11477410462E+03  0.12430321866E+03  0.00000000000E+00 0. -1.
        -14    1    4    4    0    0 -0.12087802290E+03 -0.28961290767E+02 -0.90000036645E+02  0.15346093763E+03  0.00000000000E+00 0.  1.
</event>
<event>
12    1  0.8133506E-002  0.1900178E+03  0.7818608E-02  0.1158554E+00
         21   -1    0    0  503  502  0.00000000000E+00  0.00000000000E+00  0.49152260024E+02  0.49152260024E+02  0.00000000000E+00 0. -1.
         21   -1    0    0  501  503 -0.00000000000E+00 -0.00000000000E+00 -0.79824020335E+03  0.79824020335E+03  0.00000000000E+00 0.  1.
          6    2    1    2  501    0  0.73326163306E+02  0.30347267263E+02 -0.25360062656E+03  0.31689123764E+03  0.17265310841E+03 0.  0.
         24    2    3    3    0    0  0.11006359495E+02  0.38161723491E+02 -0.23488368886E+03  0.25118554968E+03  0.79664144938E+02 0.  0.
         -6    2    1    2    0  502 -0.73326163306E+02 -0.30347267263E+02 -0.49548731676E+03  0.53050122573E+03  0.17212259171E+03 0.  0.
        -24    2    5    5    0    0 -0.23794970147E+02  0.33444753471E+02 -0.37245908576E+03  0.38325722202E+03  0.80470960774E+02 0.  0.
          5    1    3    3  501    0  0.62319803810E+02 -0.78144562273E+01 -0.18716937707E+02  0.65705687959E+02  0.47000000000E+01 0. -1.
        -11    1    4    4    0    0 -0.26868337050E+02 -0.89531085949E+01 -0.66495544749E+02  0.72275328853E+02  0.00000000000E+00 0.  1.
         12    1    4    4    0    0  0.37874696545E+02  0.47114832086E+02 -0.16838814411E+03  0.17891022083E+03  0.00000000000E+00 0. -1.
         -5    1    5    5    0  502 -0.49531193158E+02 -0.63792020735E+02 -0.12302823100E+03  0.14724400371E+03  0.47000000000E+01 0.  1.
         13    1    6    6    0    0  0.30051603196E+02  0.12141664342E+02 -0.13706684463E+03  0.14084686282E+03  0.00000000000E+00 0. -1.
        -14    1    6    6    0    0 -0.53846573343E+02  0.21303089130E+02 -0.23539224113E+03  0.24241035921E+03  0.00000000000E+00 0.  1.
</event>
<event>
12    1  0.8133506E-002  0.2402914E+03  0.7818608E-02  0.1119765E+00
         21   -1    0    0  501  502  0.00000000000E+00  0.00000000000E+00  0.27940380878E+03  0.27940380878E+03  0.00000000000E+00 0.  1.
         21   -1    0    0  502  503 -0.00000000000E+00 -0.00000000000E+00 -0.31310063739E+03  0.31310063739E+03  0.00000000000E+00 0. -1.
         -6    2    1    2    0  503  0.16653678709E+03  0.21293270421E+01 -0.19030275310E+03  0.30652097206E+03  0.17320777403E+03 0.  0.
        -24    2    3    3    0    0  0.16636357821E+03  0.47384788825E+02 -0.12818861605E+03  0.22952523942E+03  0.79544678499E+02 0.  0.
          6    2    1    2  501    0 -0.16653678709E+03 -0.21293270421E+01  0.15660592449E+03  0.28598347411E+03  0.17181995341E+03 0.  0.
         24    2    5    5    0    0 -0.12999490446E+03 -0.65119061513E+02  0.11844688885E+03  0.20363532394E+03  0.79363167282E+02 0.  0.
          5    1    5    5  501    0 -0.36541882629E+02  0.62989734471E+02  0.38159035637E+02  0.82348150164E+02  0.47000000000E+01 0. -1.
        -11    1    6    6    0    0 -0.83374670162E+02 -0.70740250466E+02  0.49038220887E+02  0.11983432634E+03  0.00000000000E+00 0.  1.
         12    1    6    6    0    0 -0.46620234295E+02  0.56211889533E+01  0.69408667967E+02  0.83800997607E+02  0.00000000000E+00 0. -1.
         -5    1    3    3    0  503  0.17320887113E+00 -0.45255461783E+02 -0.62114137056E+02  0.76995732640E+02  0.47000000000E+01 0.  1.
         11    1    4    4    0    0  0.38699136418E+02  0.49344108584E+02 -0.41505508227E+02  0.75200873829E+02  0.00000000000E+00 0. -1.
        -12    1    4    4    0    0  0.12766444180E+03 -0.19593197588E+01 -0.86683107820E+02  0.15432436559E+03  0.00000000000E+00 0.  1.
</event>
<event>
12    1  0.8133506E-002  0.1732916E+03  0.7818608E-02  0.1175391E+00
         21   -1    0    0  503  502  0.00000000000E+00  0.00000000000E+00  0.17086131073E+03  0.17086131073E+03  0.00000000000E+00 0. -1.
         21   -1    0    0  501  503 -0.00000000000E+00 -0.00000000000E+00 -0.10245143455E+04  0.10245143455E+04  0.00000000000E+00 0. -1.
          6    2    1    2  501    0  0.10224254347E+02  0.14757474402E+02 -0.97124524031E+03  0.98595283746E+03  0.16871088420E+03 0.  0.
         24    2    3    3    0    0  0.24989373068E+02 -0.52809738357E+02 -0.49756437753E+03  0.50722641586E+03  0.79340972601E+02 0.  0.
         -6    2    1    2    0  502 -0.10224254347E+02 -0.14757474402E+02  0.11759220549E+03  0.20942281882E+03  0.17235913618E+03 0.  0.
        -24    2    5    5    0    0 -0.60422654550E+02  0.14892465181E+02  0.85494635288E+02  0.14270443820E+03  0.95825577572E+02 0.  0.
          5    1    3    3  501    0 -0.14765118720E+02  0.67567212759E+02 -0.47368086278E+03  0.47872642160E+03  0.47000000000E+01 0. -1.
        -11    1    4    4    0    0 -0.33996648737E+01 -0.76139405211E+01 -0.17151566717E+01  0.85130237825E+01  0.00000000000E+00 0.  1.
         12    1    4    4    0    0  0.28389037941E+02 -0.45195797836E+02 -0.49584922086E+03  0.49871339208E+03  0.00000000000E+00 0. -1.
         -5    1    5    5    0  502  0.50198400203E+02 -0.29649939583E+02  0.32097570204E+02  0.66718380625E+02  0.47000000000E+01 0.  1.
         13    1    6    6    0    0 -0.46970943369E-01  0.15610044562E+02  0.80631851848E+02  0.82128991409E+02  0.00000000000E+00 0. -1.
        -14    1    6    6    0    0 -0.60375683607E+02 -0.71757938157E+00  0.48627834401E+01  0.60575446791E+02  0.00000000000E+00 0.  1.
</event>
<event>
12    1  0.8133506E-002  0.1841829E+03  0.7818608E-02  0.1165760E+00
         21   -1    0    0  503  502  0.00000000000E+00  0.00000000000E+00  0.16331277474E+02  0.16331277474E+02  0.00000000000E+00 0.  1.
         21   -1    0    0  501  503 -0.00000000000E+00 -0.00000000000E+00 -0.24455930765E+04  0.24455930765E+04  0.00000000000E+00 0.  1.
          6    2    1    2  501    0 -0.80678032855E+01 -0.69309807685E+02 -0.17697108962E+04  0.17792695071E+04  0.17045346530E+03 0.  0.
         24    2    3    3    0    0  0.40177958506E+02 -0.50007580445E+02 -0.62658529157E+03  0.63495378690E+03  0.80263051495E+02 0.  0.
         -6    2    1    2    0  502  0.80678032855E+01  0.69309807685E+02 -0.65955090284E+03  0.68265484690E+03  0.16168273769E+03 0.  0.
        -24    2    5    5    0    0  0.35207671740E+02  0.55742022650E+01 -0.50505119485E+03  0.51327052169E+03  0.84257148872E+02 0.  0.
          5    1    3    3  501    0 -0.48245761792E+02 -0.19302227239E+02 -0.11431256046E+04  0.11443157202E+04  0.47000000000E+01 0. -1.
        -11    1    4    4    0    0  0.33260985218E+02 -0.52093886993E+02 -0.62433476714E+03  0.62738661737E+03  0.00000000000E+00 0.  1.
         12    1    4    4    0    0  0.69169732883E+01  0.20863065478E+01 -0.22505244346E+01  0.75671695311E+01  0.00000000000E+00 0. -1.
         -5    1    5    5    0  502 -0.27139868455E+02  0.63735605420E+02 -0.15449970799E+03  0.16938432521E+03  0.47000000000E+01 0.  1.
         13    1    6    6    0    0  0.83926370294E+01  0.38117482035E+02 -0.36301286690E+03  0.36510508121E+03  0.00000000000E+00 0. -1.
        -14    1    6    6    0    0  0.26815034711E+02 -0.32543279770E+02 -0.14203832795E+03  0.14816544048E+03  0.00000000000E+00 0.  1.
</event>
<event>
12    1  0.8133506E-002  0.2528318E+03  0.7818608E-02  0.1112573E+00
         21   -1    0    0  501  502  0.00000000000E+00  0.00000000000E+00  0.83761825377E+03  0.83761825377E+03  0.00000000000E+00 0.  1.
         21   -1    0    0  502  503 -0.00000000000E+00 -0.00000000000E+00 -0.79089726239E+02  0.79089726239E+02  0.00000000000E+00 0.  1.
         -6    2    1    2    0  503  0.17622470230E+03 -0.10200690148E+02  0.48694662605E+03  0.54565454592E+03  0.17164692565E+03 0.  0.
        -24    2    3    3    0    0  0.14024827065E+03 -0.51928751524E+02  0.26496064674E+03  0.31688523035E+03  0.88577267022E+02 0.  0.
          6    2    1    2  501    0 -0.17622470230E+03  0.10200690148E+02  0.27158190148E+03  0.37105343409E+03  0.18101028136E+03 0.  0.
         24    2    5    5    0    0 -0.13292455088E+03 -0.45949239461E+02  0.11232697705E+03  0.19666324324E+03  0.79238959072E+02 0.  0.
          5    1    5    5  501    0 -0.43300151418E+02  0.56149929609E+02  0.15925492444E+03  0.17439019085E+03  0.47000000000E+01 0. -1.
        -13    1    6    6    0    0 -0.12663022057E+03 -0.20870462741E+02  0.11270829941E+03  0.17080383407E+03  0.00000000000E+00 0.  1.
         14    1    6    6    0    0 -0.62943303066E+01 -0.25078776720E+02 -0.38132236177E+00  0.25859409168E+02  0.00000000000E+00 0. -1.
         -5    1    3    3    0  503  0.35976431645E+02  0.41728061377E+02  0.22198597931E+03  0.22876931558E+03  0.47000000000E+01 0.  1.
         13    1    4    4    0    0  0.52521002722E+01 -0.64939328134E+01  0.93970970622E+02  0.94341396217E+02  0.00000000000E+00 0. -1.
        -14    1    4    4    0    0  0.13499617038E+03 -0.45434818711E+02  0.17098967612E+03  0.22254383413E+03  0.00000000000E+00 0.  1.
</event>
<event>
12    1  0.8133506E-002  0.1956355E+03  0.7818608E-02  0.1153484E+00
         21   -1    0    0  501  502  0.00000000000E+00  0.00000000000E+00  0.46320235504E+02  0.46320235504E+02  0.00000000000E+00 0. -1.
         21   -1    0    0  502  503 -0.00000000000E+00 -0.00000000000E+00 -0.85211757751E+03  0.85211757751E+03  0.00000000000E+00 0.  1.
         -6    2    1    2    0  503  0.85374728062E+02 -0.35626653523E+02 -0.48136454247E+03  0.51958442039E+03  0.17233120589E+03 0.  0.
        -24    2    3    3    0    0  0.55402805465E+02 -0.76515177673E+02 -0.42931350264E+03  0.44677241383E+03  0.79821444118E+02 0.  0.
          6    2    1    2  501    0 -0.85374728062E+02  0.35626653523E+02 -0.32443279953E+03  0.37885339263E+03  0.17238082567E+03 0.  0.
         24    2    5    5    0    0 -0.42834054770E+02  0.11739219387E+02 -0.31535264266E+03  0.32900504619E+03  0.82610324213E+02 0.  0.
          5    1    5    5  501    0 -0.42540673292E+02  0.23887434136E+02 -0.90801568739E+01  0.49848346438E+02  0.47000000000E+01 0. -1.
        -11    1    6    6    0    0  0.11189064356E+02 -0.23111170034E+02 -0.13779810901E+03  0.14017004027E+03  0.00000000000E+00 0.  1.
         12    1    6    6    0    0 -0.54023119126E+02  0.34850389421E+02 -0.17755453364E+03  0.18883500592E+03  0.00000000000E+00 0. -1.
         -5    1    3    3    0  503  0.29971922597E+02  0.40888524150E+02 -0.52051039836E+02  0.72812006561E+02  0.47000000000E+01 0.  1.
         13    1    4    4    0    0  0.25875752320E+02 -0.17874082318E+02 -0.35096088771E+02  0.47125076380E+02  0.00000000000E+00 0. -1.
        -14    1    4    4    0    0  0.29527053145E+02 -0.58641095355E+02 -0.39421741387E+03  0.39964733744E+03  0.00000000000E+00 0.  1.
</event>
<event>
12    1  0.8133506E-002  0.2870314E+03  0.7818608E-02  0.1092016E+00
         21   -1    0    0  501  502  0.00000000000E+00  0.00000000000E+00  0.63855324591E+03  0.63855324591E+03  0.00000000000E+00 0. -1.
         21   -1    0    0  502  503 -0.00000000000E+00 -0.00000000000E+00 -0.17458213036E+03  0.17458213036E+03  0.00000000000E+00 0.  1.
         -6    2    1    2    0  503 -0.11392031951E+03 -0.20036783468E+03  0.23228977428E+02  0.28716895475E+03  0.16970950124E+03 0.  0.
        -24    2    3    3    0    0  0.10379190210E+02 -0.89127409596E+02  0.80068647479E+00  0.11879461429E+03  0.77846621991E+02 0.  0.
          6    2    1    2  501    0  0.11392031951E+03  0.20036783468E+03  0.44074213812E+03  0.52596642152E+03  0.17106120505E+03 0.  0.
         24    2    5    5    0    0  0.53160287373E+02  0.16511533979E+03  0.20559448880E+03  0.28050557559E+03  0.79531078985E+02 0.  0.
          5    1    5    5  501    0  0.60760032142E+02  0.35252494894E+02  0.23514764932E+03  0.24546084593E+03  0.47000000000E+01 0. -1.
        -11    1    6    6    0    0  0.67339902955E+02  0.12124523556E+03  0.18168306665E+03  0.22856904074E+03  0.00000000000E+00 0.  1.
         12    1    6    6    0    0 -0.14179615583E+02  0.43870104231E+02  0.23911422150E+02  0.51936534853E+02  0.00000000000E+00 0. -1.
         -5    1    3    3    0  503 -0.12429950972E+03 -0.11124042508E+03  0.22428290953E+02  0.16837434046E+03  0.47000000000E+01 0.  1.
         13    1    4    4    0    0 -0.14715966744E+02 -0.54321896360E+02  0.32915332598E+02  0.65198521620E+02  0.00000000000E+00 0. -1.
        -14    1    4    4    0    0  0.25095156954E+02 -0.34805513235E+02 -0.32114646124E+02  0.53596092673E+02  0.00000000000E+00 0.  1.
</event>
<event>
12    1  0.8133506E-002  0.1928867E+03  0.7818608E-02  0.1155884E+00
         21   -1    0    0  503  502  0.00000000000E+00  0.00000000000E+00  0.61609802827E+02  0.61609802827E+02  0.00000000000E+00 0.  1.
         21   -1    0    0  501  503 -0.00000000000E+00 -0.00000000000E+00 -0.60822385754E+03  0.60822385754E+03  0.00000000000E+00 0. -1.
          6    2    1    2  501    0  0.78236097445E+02  0.35389397827E+02 -0.24498405924E+03  0.31180303342E+03  0.17271550580E+03 0.  0.
         24    2    3    3    0    0  0.94783571413E+02  0.54878427300E+02 -0.25067778729E+03  0.28519195107E+03  0.80619654698E+02 0.  0.
         -6    2    1    2    0  502 -0.78236097445E+02 -0.35389397827E+02 -0.30162999547E+03  0.35803062695E+03  0.17271936557E+03 0.  0.
        -24    2    5    5    0    0 -0.38369368753E+02 -0.45837790793E+02 -0.48575161774E+02  0.10159864019E+03  0.66252742016E+02 0.  0.
          5    1    3    3  501    0 -0.16547473968E+02 -0.19489029473E+02  0.56937280499E+01  0.26611082346E+02  0.47000000000E+01 0. -1.
        -13    1    4    4    0    0  0.67524380465E+02  0.66329255227E+02 -0.23109614274E+03  0.24972893154E+03  0.00000000000E+00 0.  1.
         14    1    4    4    0    0  0.27259190948E+02 -0.11450827927E+02 -0.19581644543E+02  0.35463019532E+02  0.00000000000E+00 0. -1.
         -5    1    5    5    0  502 -0.39866728693E+02  0.10448392967E+02 -0.25305483370E+03  0.25643198676E+03  0.47000000000E+01 0.  1.
         13    1    6    6    0    0  0.16821265970E+02  0.76771218913E+00 -0.68592384441E+01  0.18182230965E+02  0.00000000000E+00 0. -1.
        -14    1    6    6    0    0 -0.55190634723E+02 -0.46605502982E+02 -0.41715923330E+02  0.83416409229E+02  0.00000000000E+00 0.  1.
</event>
<event>
12    1  0.8133506E-002  0.1971105E+03  0.7818608E-02  0.1152209E+00
         21   -1    0    0  501  502  0.00000000000E+00  0.00000000000E+00  0.41194390535E+03  0.41194390535E+03  0.00000000000E+00 0. -1.
         21   -1    0    0  502  503 -0.00000000000E+00 -0.00000000000E+00 -0.21281383110E+03  0.21281383110E+03  0.00000000000E+00 0. -1.
         -6    2    1    2    0  503 -0.52661050583E+02 -0.80933013654E+02 -0.13354871804E+03  0.23809201225E+03  0.17184064496E+03 0.  0.
        -24    2    3    3    0    0 -0.20231393696E+01 -0.98886560893E+02 -0.13376385991E+03  0.18415997912E+03  0.78990396085E+02 0.  0.
          6    2    1    2  501    0  0.52661050583E+02  0.80933013654E+02  0.33267879229E+03  0.38666572421E+03  0.17179017577E+03 0.  0.
         24    2    5    5    0    0 -0.23556906765E+02  0.48445825622E+02  0.85415128785E+02  0.12584777295E+03  0.75099879195E+02 0.  0.
          5    1    5    5  501    0  0.76217957349E+02  0.32487188032E+02  0.24726366350E+03  0.26081795126E+03  0.47000000000E+01 0. -1.
        -11    1    6    6    0    0 -0.22677539233E+02 -0.16111044571E+02  0.27470335290E+02  0.39095471141E+02  0.00000000000E+00 0.  1.
         12    1    6    6    0    0 -0.87936753268E+00  0.64556870192E+02  0.57944793495E+02  0.86752301811E+02  0.00000000000E+00 0. -1.
         -5    1    3    3    0  503 -0.50637911214E+02  0.17953547240E+02  0.21514187825E+00  0.53932033121E+02  0.47000000000E+01 0.  1.
         13    1    4    4    0    0  0.37431372623E+02 -0.47357635455E+02 -0.77741256518E+02  0.98425384212E+02  0.00000000000E+00 0. -1.
        -14    1    4    4    0    0 -0.39454511993E+02 -0.51528925439E+02 -0.56022603396E+02  0.85734594912E+02  0.00000000000E+00 0.  1.
</event>
<event>
12    1  0.8133506E-002  0.2122399E+03  0.7818608E-02  0.1140049E+00
         21   -1    0    0  501  502  0.00000000000E+00  0.00000000000E+00  0.35767031493E+03  0.35767031493E+03  0.00000000000E+00 0.  1.
         21   -1    0    0  502  503 -0.00000000000E+00 -0.00000000000E+00 -0.32957992094E+03  0.32957992094E+03  0.00000000000E+00 0. -1.
         -6    2    1    2    0  503 -0.11082653426E+03 -0.55092718169E+02 -0.25656499482E+03  0.33218058725E+03  0.17088188226E+03 0.  0.
        -24    2    3    3    0    0 -0.11965361314E+03 -0.16236103967E+02 -0.25432548282E+03  0.29199527646E+03  0.77454451497E+02 0.  0.
          6    2    1    2  501    0  0.11082653426E+03  0.55092718169E+02  0.28465538881E+03  0.35506964863E+03  0.17241820294E+03 0.  0.
         24    2    5    5    0    0  0.39157844568E+02  0.17635911315E+02  0.25277449959E+03  0.26801854548E+03  0.78068117158E+02 0.  0.
          5    1    5    5  501    0  0.71668689693E+02  0.37456806854E+02  0.31880889222E+02  0.87051103150E+02  0.47000000000E+01 0. -1.
        -13    1    6    6    0    0 -0.46306288069E+00 -0.28333444055E+02  0.85697463264E+02  0.90261030845E+02  0.00000000000E+00 0.  1.
         14    1    6    6    0    0  0.39620907448E+02  0.45969355370E+02  0.16707703633E+03  0.17775751463E+03  0.00000000000E+00 0. -1.
         -5    1    3    3    0  503  0.88270788759E+01 -0.38856614202E+02 -0.22395120029E+01  0.40185310783E+02  0.47000000000E+01 0.  1.
         11    1    4    4    0    0 -0.40552114922E+02 -0.25051635739E+02 -0.16776428101E+03  0.17440445080E+03  0.00000000000E+00 0. -1.
        -12    1    4    4    0    0 -0.79101498215E+02  0.88155317722E+01 -0.86561201809E+02  0.11759082566E+03  0.00000000000E+00 0.  1.
</event>
<event>
12    1  0.8133506E-002  0.2243314E+03  0.7818608E-02  0.1132606E+00
         21   -1    0    0  501  502  0.00000000000E+00  0.00000000000E+00  0.49908424657E+03  0.49908424657E+03  0.00000000000E+00 0.  1.
         21   -1    0    0  502  503 -0.00000000000E+00 -0.00000000000E+00 -0.19283074703E+03  0.19283074703E+03  0.00000000000E+00 0. -1.
         -6    2    1    2    0  503  0.71759456310E+02  0.10570715468E+03 -0.93433155015E+02  0.23357670605E+03  0.17176990724E+03 0.  0.
        -24    2    3    3    0    0  0.11330409155E+03  0.10299696083E+03 -0.80965076998E+02  0.18986349480E+03  0.77759963097E+02 0.  0.
          6    2    1    2  501    0 -0.71759456310E+02 -0.10570715468E+03  0.39968665455E+03  0.45833828755E+03  0.18439398549E+03 0.  0.
         24    2    5    5    0    0 -0.69741293601E+02 -0.14171444980E+03  0.37435405417E+03  0.41401640892E+03  0.79509720603E+02 0.  0.
          5    1    5    5  501    0 -0.20181627084E+01  0.36007295120E+02  0.25332600382E+02  0.44321878623E+02  0.47000000000E+01 0. -1.
        -13    1    6    6    0    0  0.14399898211E+02 -0.25215105584E+02  0.34925920417E+02  0.45420023504E+02  0.00000000000E+00 0.  1.
         14    1    6    6    0    0 -0.84141191813E+02 -0.11649934421E+03  0.33942813375E+03  0.36859638542E+03  0.00000000000E+00 0. -1.
         -5    1    3    3    0  503 -0.41544635244E+02  0.27101938459E+01 -0.12468078018E+02  0.43713211249E+02  0.47000000000E+01 0.  1.
         13    1    4    4    0    0  0.22139854627E+02  0.72144400416E+02 -0.37228494991E+02  0.84148372020E+02  0.00000000000E+00 0. -1.
        -14    1    4    4    0    0  0.91164236927E+02  0.30852560415E+02 -0.43736582007E+02  0.10571512278E+03  0.00000000000E+00 0.  1.
</event>
<event>
12    1  0.8133506E-002  0.2371012E+03  0.7818608E-02  0.1122081E+00
         21   -1    0    0  501  502  0.00000000000E+00  0.00000000000E+00  0.28901281356E+03  0.28901281356E+03  0.00000000000E+00 0. -1.
         21   -1    0    0  502  503 -0.00000000000E+00 -0.00000000000E+00 -0.23051373772E+03  0.23051373772E+03  0.00000000000E+00 0. -1.
         -6    2    1    2    0  503  0.43848303358E+02  0.15715299210E+03 -0.75830556120E+02  0.24701707294E+03  0.16925550050E+03 0.  0.
        -24    2    3    3    0    0 -0.70477637126E+01  0.14125934583E+03 -0.96618839312E+02  0.18959529699E+03  0.81285317082E+02 0.  0.
          6    2    1    2  501    0 -0.43848303358E+02 -0.15715299210E+03  0.13432963196E+03  0.27250947834E+03  0.17203845248E+03 0.  0.
         24    2    5    5    0    0 -0.15772681588E+02 -0.91600409992E+02  0.15612383226E+03  0.19779362510E+03  0.78155323159E+02 0.  0.
          5    1    5    5  501    0 -0.28075621770E+02 -0.65552582108E+02 -0.21794200298E+02  0.74715853241E+02  0.47000000000E+01 0. -1.
        -11    1    6    6    0    0  0.47938462104E+01 -0.45366240485E+01  0.80164098985E+02  0.80435344752E+02  0.00000000000E+00 0.  1.
         12    1    6    6    0    0 -0.20566527798E+02 -0.87063785943E+02  0.75959733271E+02  0.11735828035E+03  0.00000000000E+00 0. -1.
         -5    1    3    3    0  503  0.50896067070E+02  0.15893646271E+02  0.20788283192E+02  0.57421775949E+02  0.47000000000E+01 0.  1.
         13    1    4    4    0    0 -0.26457107839E+02  0.52418662680E+02 -0.25709983549E+01  0.58773333962E+02  0.00000000000E+00 0. -1.
        -14    1    4    4    0    0  0.19409344127E+02  0.88840683149E+02 -0.94047840957E+02  0.13082196303E+03  0.00000000000E+00 0.  1.
</event>
<event>
12    1  0.8133506E-002  0.2051738E+03  0.7818608E-02  0.1145905E+00
         21   -1    0    0  501  502  0.00000000000E+00  0.00000000000E+00  0.35575999049E+02  0.35575999049E+02  0.00000000000E+00 0.  1.
         21   -1    0    0  502  503 -0.00000000000E+00 -0.00000000000E+00 -0.17021137663E+04  0.17021137663E+04  0.00000000000E+00 0.  1.
         -6    2    1    2    0  503  0.31497694836E+01 -0.10823150671E+03 -0.13220149100E+04  0.13378414440E+04  0.17427658180E+03 0.  0.
        -24    2    3    3    0    0  0.49108639081E+02 -0.82054918219E+02 -0.11725255622E+04  0.11792016426E+04  0.80966980392E+02 0.  0.
          6    2    1    2  501    0 -0.31497694836E+01  0.10823150671E+03 -0.34452285731E+03  0.39984832139E+03  0.17163537170E+03 0.  0.
         24    2    5    5    0    0 -0.59206883546E+02  0.10734257260E+03 -0.24302715928E+03  0.28380239532E+03  0.80335026520E+02 0.  0.
          5    1    5    5  501    0  0.56057114062E+02  0.88893410843E+00 -0.10149569802E+03  0.11604592607E+03  0.47000000000E+01 0. -1.
        -11    1    6    6    0    0 -0.50614571023E+02  0.14446325872E+02 -0.10065370776E+03  0.11358565058E+03  0.00000000000E+00 0.  1.
         12    1    6    6    0    0 -0.85923125226E+01  0.92896246732E+02 -0.14237345153E+03  0.17021674474E+03  0.00000000000E+00 0. -1.
         -5    1    3    3    0  503 -0.45958869598E+02 -0.26176588494E+02 -0.14948934779E+03  0.15863980139E+03  0.47000000000E+01 0.  1.
         11    1    4    4    0    0 -0.16646767748E+02 -0.59657575264E+01 -0.74042923619E+02  0.76125289342E+02  0.00000000000E+00 0. -1.
        -12    1    4    4    0    0  0.65755406830E+02 -0.76089160693E+02 -0.10984826385E+04  0.11030763532E+04  0.00000000000E+00 0.  1.
</event>
<event>
12    1  0.8133506E-002  0.2683319E+03  0.7818608E-02  0.1102622E+00
         21   -1    0    0  501  502  0.00000000000E+00  0.00000000000E+00  0.22139928153E+03  0.22139928153E+03  0.00000000000E+00 0. -1.
         21   -1    0    0  502  503 -0.00000000000E+00 -0.00000000000E+00 -0.60096905979E+03  0.60096905979E+03  0.00000000000E+00 0. -1.
         -6    2    1    2    0  503 -0.28248396317E+02 -0.20124813122E+03 -0.47043129744E+03  0.54157882962E+03  0.17522340274E+03 0.  0.
        -24    2    3    3    0    0 -0.44111119568E+02 -0.10363142657E+03 -0.39026903441E+03  0.41418681484E+03  0.80966257953E+02 0.  0.
          6    2    1    2  501    0  0.28248396317E+02  0.20124813122E+03  0.90861519183E+02  0.28078951170E+03  0.17113781580E+03 0.  0.
         24    2    5    5    0    0 -0.22365273881E+02  0.90309719175E+02  0.99152868802E+02  0.15847879526E+03  0.81413673917E+02 0.  0.
          5    1    5    5  501    0  0.50613670197E+02  0.11093841204E+03 -0.82913496186E+01  0.12231071644E+03  0.47000000000E+01 0. -1.
        -11    1    6    6    0    0 -0.44245161264E+02  0.37926344594E+02  0.21128363386E+02  0.61987495908E+02  0.00000000000E+00 0.  1.
         12    1    6    6    0    0  0.21879887383E+02  0.52383374581E+02  0.78024505416E+02  0.96491299347E+02  0.00000000000E+00 0. -1.
         -5    1    3    3    0  503  0.15862723251E+02 -0.97616704649E+02 -0.80162263035E+02  0.12739201478E+03  0.47000000000E+01 0.  1.
         13    1    4    4    0    0 -0.25202228780E+02 -0.30812161813E+02 -0.41929850057E+02  0.57815689712E+02  0.00000000000E+00 0. -1.
        -14    1    4    4    0    0 -0.18908890787E+02 -0.72819264758E+02 -0.34833918435E+03  0.35637112513E+03  0.00000000000E+00 0.  1.
</event>
<event>
12    1  0.8133506E-002  0.3052520E+03  0.7818608E-02  0.1082792E+00
         21   -1    0    0  501  502  0.00000000000E+00  0.00000000000E+00  0.78420944176E+02  0.78420944176E+02  0.00000000000E+00 0.  1.
         21   -1    0    0  502  503 -0.00000000000E+00 -0.00000000000E+00 -0.14284872049E+04  0.14284872049E+04  0.00000000000E+00 0. -1.
         -6    2    1    2    0  503 -0.93754680880E+02 -0.23310745479E+03 -0.98595122200E+03  0.10317675799E+04  0.17121770105E+03 0.  0.
        -24    2    3    3    0    0 -0.35527839863E+02 -0.22457231889E+03 -0.83478039931E+03  0.86947795859E+03  0.86247617862E+02 0.  0.
          6    2    1    2  501    0  0.93754680880E+02  0.23310745479E+03 -0.36411503873E+03  0.47514056916E+03  0.17334870454E+03 0.  0.
         24    2    5    5    0    0  0.12049760877E+03  0.11743011769E+03 -0.22793244616E+03  0.29440811765E+03  0.80083915141E+02 0.  0.
          5    1    5    5  501    0 -0.26742927890E+02  0.11567733710E+03 -0.13618259257E+03  0.18073245151E+03  0.47000000000E+01 0. -1.
        -11    1    6    6    0    0  0.83133135403E+02  0.54527216868E+02 -0.73881445182E+02  0.12386607091E+03  0.00000000000E+00 0.  1.
         12    1    6    6    0    0  0.37364473367E+02  0.62902900827E+02 -0.15405100098E+03  0.17054204674E+03  0.00000000000E+00 0. -1.
         -5    1    3    3    0  503 -0.58226841017E+02 -0.85351359030E+01 -0.15117082269E+03  0.16228962133E+03  0.47000000000E+01 0.  1.
         13    1    4    4    0    0 -0.27405048877E+02 -0.24002233216E+02 -0.21315325368E+03  0.21624396745E+03  0.00000000000E+00 0. -1.
        -14    1    4    4    0    0 -0.81227909856E+01 -0.20057008567E+03 -0.62162714563E+03  0.65323399114E+03  0.00000000000E+00 0.  1.
</event>
<event>
12    1  0.8133506E-002  0.1896029E+03  0.7818608E-02  0.1159408E+00
         21   -1    0    0  501  502  0.00000000000E+00  0.00000000000E+00  0.12305034813E+03  0.12305034813E+03  0.00000000000E+00 0.  1.
         21   -1    0    0  502  503 -0.00000000000E+00 -0.00000000000E+00 -0.32333460683E+03  0.32333460683E+03  0.00000000000E+00 0.  1.
         -6    2    1    2    0  503 -0.15651313851E+02 -0.71257918150E+02 -0.17311619840E+03  0.25484552723E+03  0.17220444267E+03 0.  0.
        -24    2    3    3    0    0 -0.16327860617E+01  0.21351132213E+02 -0.33286548542E+02  0.86478736231E+02  0.76889795611E+02 0.  0.
          6    2    1    2  501    0  0.15651313851E+02  0.71257918150E+02 -0.27168060293E+02  0.19153942773E+03  0.17500455523E+03 0.  0.
         24    2    5    5    0    0 -0.40501487123E+02  0.64704903666E+02  0.25221201190E+02  0.11432023469E+03  0.81276762062E+02 0.  0.
          5    1    5    5  501    0  0.56152800973E+02  0.65530144837E+01 -0.52389261483E+02  0.77219193046E+02  0.47000000000E+01 0. -1.
        -13    1    6    6    0    0 -0.16786917967E+02  0.80988719066E+02  0.19793588064E+02  0.85045631042E+02  0.00000000000E+00 0.  1.
         14    1    6    6    0    0 -0.23714569156E+02 -0.16283815400E+02  0.54276131261E+01  0.29274603643E+02  0.00000000000E+00 0. -1.
         -5    1    3    3    0  503 -0.14018527789E+02 -0.92609050363E+02 -0.13982964986E+03  0.16836679100E+03  0.47000000000E+01 0.  1.
         13    1    4    4    0    0  0.38625488797E+01  0.37481330695E+02 -0.50001224472E+02  0.62609039948E+02  0.00000000000E+00 0. -1.
        -14    1    4    4    0    0 -0.54953349414E+01 -0.16130198481E+02  0.16714675930E+02  0.23869696282E+02  0.00000000000E+00 0.  1.
</event>
<event>
12    1  0.8133506E-002  0.1779697E+03  0.7818608E-02  0.1169878E+00
         21   -1    0    0  503  502  0.00000000000E+00  0.00000000000E+00  0.16829842173E+03  0.16829842173E+03  0.00000000000E+00 0.  1.
         21   -1    0    0  501  503 -0.00000000000E+00 -0.00000000000E+00 -0.20907269191E+03  0.20907269191E+03  0.00000000000E+00 0.  1.
          6    2    1    2  501    0  0.14521925882E+01 -0.48337801890E+02  0.39801563061E+02  0.18236608644E+03  0.17127338703E+03 0.  0.
         24    2    3    3    0    0 -0.82084648791E+01 -0.97424901877E+02  0.38740324871E+02  0.13210588435E+03  0.79950994405E+02 0.  0.
         -6    2    1    2    0  502 -0.14521925882E+01  0.48337801890E+02 -0.80575833241E+02  0.19500502720E+03  0.17086791324E+03 0.  0.
        -24    2    5    5    0    0 -0.29275347089E+02 -0.35287674726E+02 -0.28372327494E+02  0.92464087676E+02  0.75115594969E+02 0.  0.
          5    1    3    3  501    0  0.96606574673E+01  0.49087099987E+02  0.10612381895E+01  0.50260202092E+02  0.47000000000E+01 0. -1.
        -11    1    4    4    0    0  0.10978974309E+02 -0.55739937389E+02  0.59034109783E+02  0.81929876205E+02  0.00000000000E+00 0.  1.
         12    1    4    4    0    0 -0.19187439188E+02 -0.41684964488E+02 -0.20293784912E+02  0.50176008142E+02  0.00000000000E+00 0. -1.
         -5    1    5    5    0  502  0.27823154501E+02  0.83625476617E+02 -0.52203505747E+02  0.10254093952E+03  0.47000000000E+01 0.  1.
         11    1    6    6    0    0 -0.27481215884E+01  0.16704805816E+02  0.12639895164E+02  0.21127462208E+02  0.00000000000E+00 0. -1.
        -12    1    6    6    0    0 -0.26527225500E+02 -0.51992480542E+02 -0.41012222659E+02  0.71336625467E+02  0.00000000000E+00 0.  1.
</event>
<event>
12    1  0.8133506E-002  0.1939666E+03  0.7818608E-02  0.1155325E+00
         21   -1    0    0  503  502  0.00000000000E+00  0.00000000000E+00  0.68310412451E+03  0.68310412451E+03  0.00000000000E+00 0.  1.
         21   -1    0    0  501  503 -0.00000000000E+00 -0.00000000000E+00 -0.82753828844E+02  0.82753828844E+02  0.00000000000E+00 0.  1.
          6    2    1    2  501    0  0.53471002915E+02 -0.71228398447E+02  0.75792278855E+02  0.20658686262E+03  0.17029688598E+03 0.  0.
         24    2    3    3    0    0  0.72737145876E+02 -0.28563659503E+02  0.10295619371E+03  0.15225977468E+03  0.80476618519E+02 0.  0.
         -6    2    1    2    0  502 -0.53471002915E+02  0.71228398447E+02  0.52455801682E+03  0.55927109074E+03  0.17230904514E+03 0.  0.
        -24    2    5    5    0    0  0.36086025699E+02  0.43926653839E+02  0.31218964755E+03  0.32713263874E+03  0.79508711000E+02 0.  0.
          5    1    3    3  501    0 -0.19266142960E+02 -0.42664738945E+02 -0.27163914851E+02  0.54327087938E+02  0.47000000000E+01 0. -1.
        -13    1    4    4    0    0  0.74755187359E+02 -0.39678880102E+01  0.40519637146E+02  0.85122988474E+02  0.00000000000E+00 0.  1.
         14    1    4    4    0    0 -0.20180414831E+01 -0.24595771492E+02  0.62436556560E+02  0.67136786204E+02  0.00000000000E+00 0. -1.
         -5    1    5    5    0  502 -0.89557028615E+02  0.27301744608E+02  0.21236836926E+03  0.23213845200E+03  0.47000000000E+01 0.  1.
         11    1    6    6    0    0  0.40591810546E+02  0.51816700904E+02  0.13998316605E+03  0.15468662629E+03  0.00000000000E+00 0. -1.
        -12    1    6    6    0    0 -0.45057848468E+01 -0.78900470647E+01  0.17220648150E+03  0.17244601245E+03  0.00000000000E+00 0.  1.
</event>
<event>
12    1  0.8133506E-002  0.2000292E+03  0.7818608E-02  0.1150313E+00
         21   -1    0    0  503  502  0.00000000000E+00  0.00000000000E+00  0.91193404454E+02  0.91193404454E+02  0.00000000000E+00 0. -1.
         21   -1    0    0  501  503 -0.00000000000E+00 -0.00000000000E+00 -0.43263176241E+03  0.43263176241E+03  0.00000000000E+00 0.  1.
          6    2    1    2  501    0 -0.93955253097E+02  0.30919321999E+02 -0.17429039667E+03  0.26530892720E+03  0.17386227430E+03 0.  0.
         24    2    3    3    0    0  0.14312022273E+01 -0.27198222627E+02 -0.10105502049E+03  0.13166112446E+03  0.79879552296E+02 0.  0.
         -6    2    1    2    0  502  0.93955253097E+02 -0.30919321999E+02 -0.16714796129E+03  0.25851623966E+03  0.17061245895E+03 0.  0.
        -24    2    5    5    0    0  0.12680817765E+03 -0.52016126490E+02 -0.13123983149E+03  0.20526331864E+03  0.78250528909E+02 0.  0.
          5    1    3    3  501    0 -0.95386455324E+02  0.58117544626E+02 -0.73235376178E+02  0.13364780274E+03  0.47000000000E+01 0. -1.
        -11    1    4    4    0    0 -0.12014130760E+02 -0.36852896767E+02 -0.10720935551E+03  0.11400140897E+03  0.00000000000E+00 0.  1.
         12    1    4    4    0    0  0.13445332987E+02  0.96546741399E+01  0.61543350186E+01  0.17659715496E+02  0.00000000000E+00 0. -1.
         -5    1    5    5    0  502 -0.32852924558E+02  0.21096804492E+02 -0.35908129796E+02  0.53252921021E+02  0.47000000000E+01 0.  1.
         11    1    6    6    0    0  0.65076453503E+02 -0.39270491903E+02 -0.21974941970E+02  0.79120252840E+02  0.00000000000E+00 0. -1.
        -12    1    6    6    0    0  0.61731724152E+02 -0.12745634587E+02 -0.10926488952E+03  0.12614306580E+03  0.00000000000E+00 0.  1.
</event>
<event>
12    1  0.8133506E-002  0.1908755E+03  0.7818608E-02  0.1158253E+00
         21   -1    0    0  503  502  0.00000000000E+00  0.00000000000E+00  0.12144377238E+04  0.12144377238E+04  0.00000000000E+00 0. -1.
         21   -1    0    0  501  503 -0.00000000000E+00 -0.00000000000E+00 -0.43908219258E+02  0.43908219258E+02  0.00000000000E+00 0. -1.
          6    2    1    2  501    0  0.15794616234E+02  0.73450298218E+02  0.22876032742E+03  0.29793409707E+03  0.17546801015E+03 0.  0.
         24    2    3    3    0    0 -0.21214346680E+02  0.69253113717E+02  0.23646724181E+03  0.25960961112E+03  0.78957909491E+02 0.  0.
         -6    2    1    2    0  502 -0.15794616234E+02 -0.73450298218E+02  0.94176917711E+03  0.96041184597E+03  0.17267690848E+03 0.  0.
        -24    2    5    5    0    0 -0.53204391087E+02  0.83532085731E+01  0.55972195946E+03  0.56788990838E+03  0.79434204313E+02 0.  0.
          5    1    3    3  501    0  0.37008962914E+02  0.41971845006E+01 -0.77069143946E+01  0.38324485948E+02  0.47000000000E+01 0. -1.
        -13    1    4    4    0    0 -0.65963530396E+00 -0.21157113006E+01  0.12875513335E+03  0.12877420439E+03  0.00000000000E+00 0.  1.
         14    1    4    4    0    0 -0.20554711376E+02  0.71368825018E+02  0.10771210846E+03  0.13083540673E+03  0.00000000000E+00 0. -1.
         -5    1    5    5    0  502  0.37409774853E+02 -0.81803506791E+02  0.38204721765E+03  0.39252193759E+03  0.47000000000E+01 0.  1.
         13    1    6    6    0    0 -0.21906715364E+02 -0.30152249033E+02  0.36680513754E+03  0.36869373636E+03  0.00000000000E+00 0. -1.
        -14    1    6    6    0    0 -0.31297675723E+02  0.38505457606E+02  0.19291682191E+03  0.19919617202E+03  0.00000000000E+00 0.  1.
</event>
<event>
12    1  0.8133506E-002  0.1992091E+03  0.7818608E-02  0.1150431E+00
         21   -1    0    0  501  502  0.00000000000E+00  0.00000000000E+00  0.21502353256E+04  0.21502353256E+04  0.00000000000E+00 0.  1.
         21   -1    0    0  502  503 -0.00000000000E+00 -0.00000000000E+00 -0.40485088846E+02  0.40485088846E+02  0.00000000000E+00 0.  1.
         -6    2    1    2    0  503  0.27996608308E+02 -0.96561390252E+02  0.24682522054E+03  0.31718598749E+03  0.17197775729E+03 0.  0.
        -24    2    3    3    0    0  0.26646509037E+02  0.17408891534E+02  0.11431648874E+03  0.14233833409E+03  0.78605571079E+02 0.  0.
          6    2    1    2  501    0 -0.27996608308E+02  0.96561390252E+02  0.18629250162E+04  0.18735344270E+04  0.17185377729E+03 0.  0.
         24    2    5    5    0    0 -0.47422957230E+02  0.92770595542E+02  0.18310386966E+04  0.18357114110E+04  0.79236076309E+02 0.  0.
          5    1    5    5  501    0  0.19426348922E+02  0.37907947096E+01  0.31886319655E+02  0.37823015983E+02  0.47000000000E+01 0. -1.
        -13    1    6    6    0    0  0.91685034045E+01  0.55793285285E+02  0.11321193303E+04  0.11335303834E+04  0.00000000000E+00 0.  1.
         14    1    6    6    0    0 -0.56591460634E+02  0.36977310258E+02  0.69891936631E+03  0.70218102758E+03  0.00000000000E+00 0. -1.
         -5    1    3    3    0  503  0.13500992705E+01 -0.11397028179E+03  0.13250873180E+03  0.17484765340E+03  0.47000000000E+01 0.  1.
         13    1    4    4    0    0  0.41037745448E+02 -0.18479251681E+00  0.11224794608E+03  0.11951456856E+03  0.00000000000E+00 0. -1.
        -14    1    4    4    0    0 -0.14391236410E+02  0.17593684051E+02  0.20685426581E+01  0.22823765523E+02  0.00000000000E+00 0.  1.
</event>
<event>
12    1  0.8133506E-002  0.2451392E+03  0.7818608E-02  0.1116787E+00
         21   -1    0    0  503  502  0.00000000000E+00  0.00000000000E+00  0.12086254878E+03  0.12086254878E+03  0.00000000000E+00 0. -1.
         21   -1    0    0  501  503 -0.00000000000E+00 -0.00000000000E+00 -0.82889957293E+03  0.82889957293E+03  0.00000000000E+00 0.  1.
          6    2    1    2  501    0 -0.17122645816E+03 -0.31836253099E+02 -0.65748406777E+03  0.70169690084E+03  0.17251433071E+03 0.  0.
         24    2    3    3    0    0 -0.42333116323E+02 -0.28453389281E+02 -0.42606508925E+03  0.43674073286E+03  0.81297720492E+02 0.  0.
         -6    2    1    2    0  502  0.17122645816E+03  0.31836253099E+02 -0.50552956383E+02  0.24806522087E+03  0.16925928459E+03 0.  0.
        -24    2    5    5    0    0  0.18931642383E+03  0.12957364379E+02 -0.19180470999E+02  0.20695582855E+03  0.80338178227E+02 0.  0.
          5    1    3    3  501    0 -0.12889334184E+03 -0.33828638177E+01 -0.23141897852E+03  0.26495616799E+03  0.47000000000E+01 0. -1.
        -13    1    4    4    0    0 -0.64126397258E+02 -0.28751946556E+02 -0.36946078078E+03  0.37608527994E+03  0.00000000000E+00 0.  1.
         14    1    4    4    0    0  0.21793280935E+02  0.29855727506E+00 -0.56604308473E+02  0.60655452913E+02  0.00000000000E+00 0. -1.
         -5    1    5    5    0  502 -0.18089965671E+02  0.18878888720E+02 -0.31372485384E+02  0.41109392314E+02  0.47000000000E+01 0.  1.
         11    1    6    6    0    0  0.12871404942E+03  0.43185475635E+02  0.26804332714E+01  0.13579203418E+03  0.00000000000E+00 0. -1.
        -12    1    6    6    0    0  0.60602374412E+02 -0.30228111256E+02 -0.21860904271E+02  0.71163794376E+02  0.00000000000E+00 0.  1.
</event>
<event>
12    1  0.8133506E-002  0.1834366E+03  0.7818608E-02  0.1164789E+00
         21   -1    0    0  501  502  0.00000000000E+00  0.00000000000E+00  0.28484765235E+03  0.28484765235E+03  0.00000000000E+00 0. -1.
         21   -1    0    0  502  503 -0.00000000000E+00 -0.00000000000E+00 -0.14801653016E+03  0.14801653016E+03  0.00000000000E+00 0. -1.
         -6    2    1    2    0  503  0.33632911632E+02 -0.52275073913E+02 -0.30199614128E+02  0.18477497724E+03  0.17136487220E+03 0.  0.
        -24    2    3    3    0    0  0.15609276860E+02  0.15897237320E+02  0.33210694733E+02  0.89826187361E+02  0.80432717302E+02 0.  0.
          6    2    1    2  501    0 -0.33632911632E+02  0.52275073913E+02  0.16703073632E+03  0.24808920528E+03  0.17258369217E+03 0.  0.
         24    2    5    5    0    0 -0.45280785229E+02 -0.24866779100E+02  0.13624714958E+03  0.16408767161E+03  0.75450460514E+02 0.  0.
          5    1    5    5  501    0  0.11647873597E+02  0.77141853013E+02  0.30783586735E+02  0.84001533664E+02  0.47000000000E+01 0. -1.
        -13    1    6    6    0    0  0.75896747448E+01 -0.33895816127E+02  0.75140958547E+02  0.82780995192E+02  0.00000000000E+00 0.  1.
         14    1    6    6    0    0 -0.52870459974E+02  0.90290370276E+01  0.61106191035E+02  0.81306676419E+02  0.00000000000E+00 0. -1.
         -5    1    3    3    0  503  0.18023634772E+02 -0.68172311233E+02 -0.63410308861E+02  0.94948789877E+02  0.47000000000E+01 0.  1.
         11    1    4    4    0    0  0.46450174545E+02  0.23450147040E+01  0.67652359936E+01  0.46998789637E+02  0.00000000000E+00 0. -1.
        -12    1    4    4    0    0 -0.30840897685E+02  0.13552222616E+02  0.26445458740E+02  0.42827397724E+02  0.00000000000E+00 0.  1.
</event>
<event>
12    1  0.8133506E-002  0.2302791E+03  0.7818608E-02  0.1126907E+00
         21   -1    0    0  501  502  0.00000000000E+00  0.00000000000E+00  0.13686855113E+03  0.13686855113E+03  0.00000000000E+00 0.  1.
         21   -1    0    0  502  503 -0.00000000000E+00 -0.00000000000E+00 -0.39455150130E+03  0.39455150130E+03  0.00000000000E+00 0.  1.
         -6    2    1    2    0  503  0.63303813434E+02  0.14005092987E+03 -0.17351471205E+03  0.28624104006E+03  0.16794327008E+03 0.  0.
        -24    2    3    3    0    0  0.96904356394E+01  0.61666712226E+01 -0.64849162706E+02  0.10560416507E+03  0.82552367618E+02 0.  0.
          6    2    1    2  501    0 -0.63303813434E+02 -0.14005092987E+03 -0.84168238121E+02  0.24517901237E+03  0.17148416850E+03 0.  0.
         24    2    5    5    0    0 -0.24177013107E+02 -0.15406769011E+03 -0.97017235159E+02  0.20142329507E+03  0.82689895267E+02 0.  0.
          5    1    5    5  501    0 -0.39126800327E+02  0.14016760244E+02  0.12848997038E+02  0.43755717300E+02  0.47000000000E+01 0. -1.
        -13    1    6    6    0    0 -0.41196031349E+02 -0.31517823872E+02 -0.19469251251E+02  0.55403411130E+02  0.00000000000E+00 0.  1.
         14    1    6    6    0    0  0.17019018242E+02 -0.12254986624E+03 -0.77547983907E+02  0.14601988394E+03  0.00000000000E+00 0. -1.
         -5    1    3    3    0  503  0.53613377795E+02  0.13388425865E+03 -0.10866554934E+03  0.18063687499E+03  0.47000000000E+01 0.  1.
         11    1    4    4    0    0  0.24485643125E+02  0.10303964657E+02  0.10603515341E+02  0.28603372956E+02  0.00000000000E+00 0. -1.
        -12    1    4    4    0    0 -0.14795207485E+02 -0.41372934341E+01 -0.75452678047E+02  0.77000792112E+02  0.00000000000E+00 0.  1.
</event>
<event>
12    1  0.8133506E-002  0.2808742E+03  0.7818608E-02  0.1095215E+00
         21   -1    0    0  503  502  0.00000000000E+00  0.00000000000E+00  0.28188582168E+03  0.28188582168E+03  0.00000000000E+00 0. -1.
         21   -1    0    0  501  503 -0.00000000000E+00 -0.00000000000E+00 -0.30679353092E+03  0.30679353092E+03  0.00000000000E+00 0.  1.
          6    2    1    2  501    0 -0.13647637143E+03 -0.17555800724E+03 -0.99680148873E+02  0.29802281877E+03  0.17156647272E+03 0.  0.
         24    2    3    3    0    0 -0.53563448012E+02 -0.29166996053E+02 -0.77444762601E+02  0.12825420144E+03  0.82046890926E+02 0.  0.
         -6    2    1    2    0  502  0.13647637143E+03  0.17555800724E+03  0.74772439627E+02  0.29065653383E+03  0.17159221738E+03 0.  0.
        -24    2    5    5    0    0  0.10634155553E+03  0.19221691239E+03  0.92244963712E+02  0.25175916441E+03  0.81349097668E+02 0.  0.
          5    1    3    3  501    0 -0.82912923417E+02 -0.14639101119E+03 -0.22235386272E+02  0.16976861733E+03  0.47000000000E+01 0. -1.
        -11    1    4    4    0    0 -0.41543534751E+02 -0.37562595502E+02 -0.71677421721E+01  0.56464062804E+02  0.00000000000E+00 0.  1.
         12    1    4    4    0    0 -0.12019913262E+02  0.83955994490E+01 -0.70277020429E+02  0.71790138635E+02  0.00000000000E+00 0. -1.
         -5    1    5    5    0  502  0.30134815900E+02 -0.16658905149E+02 -0.17472524085E+02  0.38897369423E+02  0.47000000000E+01 0.  1.
         13    1    6    6    0    0  0.30573916525E+02  0.13156891605E+03  0.36847181140E+02  0.14001020963E+03  0.00000000000E+00 0. -1.
        -14    1    6    6    0    0  0.75767639004E+02  0.60647996344E+02  0.55397782572E+02  0.11174895478E+03  0.00000000000E+00 0.  1.
</event>
<event>
12    1  0.8133506E-002  0.2093084E+03  0.7818608E-02  0.1142196E+00
         21   -1    0    0  503  502  0.00000000000E+00  0.00000000000E+00  0.23545851565E+03  0.23545851565E+03  0.00000000000E+00 0. -1.
         21   -1    0    0  501  503 -0.00000000000E+00 -0.00000000000E+00 -0.51634645286E+03  0.51634645286E+03  0.00000000000E+00 0. -1.
          6    2    1    2  501    0  0.98371734593E+02 -0.63759012436E+02 -0.44120062633E+03  0.48815717966E+03  0.17290815350E+03 0.  0.
         24    2    3    3    0    0  0.94990027080E+02  0.15171490148E+02 -0.21708548869E+03  0.25047852033E+03  0.79750237535E+02 0.  0.
         -6    2    1    2    0  502 -0.98371734593E+02  0.63759012436E+02  0.16031268912E+03  0.26364778885E+03  0.17340065870E+03 0.  0.
        -24    2    5    5    0    0 -0.50087588321E+02 -0.98342075489E+01  0.14644104264E+03  0.17441868269E+03  0.79821173632E+02 0.  0.
          5    1    3    3  501    0  0.33817075130E+01 -0.78930502584E+02 -0.22411513764E+03  0.23767865933E+03  0.47000000000E+01 0. -1.
        -13    1    4    4    0    0  0.65285701214E+02 -0.28106296646E+02 -0.10613078547E+03  0.12773382605E+03  0.00000000000E+00 0.  1.
         14    1    4    4    0    0  0.29704325866E+02  0.43277786794E+02 -0.11095470323E+03  0.12274469428E+03  0.00000000000E+00 0. -1.
         -5    1    5    5    0  502 -0.48284146272E+02  0.73593219985E+02  0.13871646479E+02  0.89229106154E+02  0.47000000000E+01 0.  1.
         11    1    6    6    0    0  0.62454925938E+01 -0.26346627408E+02  0.86000650056E+02  0.90162424344E+02  0.00000000000E+00 0. -1.
        -12    1    6    6    0    0 -0.56333080915E+02  0.16512419859E+02  0.60440392587E+02  0.84256258349E+02  0.00000000000E+00 0.  1.
</event>
<event>
12    1  0.8133506E-002  0.2208791E+03  0.7818608E-02  0.1133455E+00
         21   -1    0    0  503  502  0.00000000000E+00  0.00000000000E+00  0.25799512642E+03  0.25799512642E+03  0.00000000000E+00 0. -1.
         21   -1    0    0  501  503 -0.00000000000E+00 -0.00000000000E+00 -0.24585239612E+03  0.24585239612E+03  0.00000000000E+00 0. -1.
          6    2    1    2  501    0 -0.13221913917E+03 -0.32389085568E+02 -0.11607591230E+03  0.24845054229E+03  0.17240388894E+03 0.  0.
         24    2    3    3    0    0 -0.40806219561E+02  0.18086629284E+02  0.90233539380E+00  0.91574412512E+02  0.79954894184E+02 0.  0.
         -6    2    1    2    0  502  0.13221913917E+03  0.32389085568E+02  0.12821864260E+03  0.25539698025E+03  0.17394436922E+03 0.  0.
        -24    2    5    5    0    0  0.99855709276E+02 -0.17810933366E+02  0.13980844312E+03  0.19437364888E+03  0.89142148216E+02 0.  0.
          5    1    3    3  501    0 -0.91412919612E+02 -0.50475714852E+02 -0.11697824769E+03  0.15687612978E+03  0.47000000000E+01 0. -1.
        -11    1    4    4    0    0  0.10325847100E+02  0.26416874496E+02 -0.21037867167E+02  0.35313824933E+02  0.00000000000E+00 0.  1.
         12    1    4    4    0    0 -0.51132066661E+02 -0.83302452126E+01  0.21940202560E+02  0.56260587579E+02  0.00000000000E+00 0. -1.
         -5    1    5    5    0  502  0.32363429897E+02  0.50200018935E+02 -0.11589800522E+02  0.61023331373E+02  0.47000000000E+01 0.  1.
         13    1    6    6    0    0 -0.52346837327E+01 -0.21690529047E+02  0.54736977097E+02  0.59110215917E+02  0.00000000000E+00 0. -1.
        -14    1    6    6    0    0  0.10509039301E+03  0.38795956802E+01  0.85071466026E+02  0.13526343296E+03  0.00000000000E+00 0.  1.
</event>
<event>
12    1  0.8133506E-002  0.2201984E+03  0.7818608E-02  0.1133869E+00
         21   -1    0    0  501  502  0.00000000000E+00  0.00000000000E+00  0.57925356301E+03  0.57925356301E+03  0.00000000000E+00 0. -1.
         21   -1    0    0  502  503 -0.00000000000E+00 -0.00000000000E+00 -0.84471793243E+02  0.84471793243E+02  0.00000000000E+00 0.  1.
         -6    2    1    2    0  503 -0.13320755534E+03 -0.33266117896E+02  0.28378628600E+03  0.35875582227E+03  0.17123141212E+03 0.  0.
        -24    2    3    3    0    0 -0.65832652655E+02 -0.82037366120E+02  0.20845186891E+03  0.24643762890E+03  0.78836892949E+02 0.  0.
          6    2    1    2  501    0  0.13320755534E+03  0.33266117896E+02  0.21099548377E+03  0.30496953398E+03  0.17215236009E+03 0.  0.
         24    2    5    5    0    0  0.94586813320E+02 -0.36354828579E+02  0.81381821976E+02  0.15278402473E+03  0.80321967416E+02 0.  0.
          5    1    5    5  501    0  0.38620742016E+02  0.69620946475E+02  0.12961366179E+03  0.15218550925E+03  0.47000000000E+01 0. -1.
        -13    1    6    6    0    0  0.22508263676E+02 -0.26791472441E+02 -0.96314781948E+01  0.36292840912E+02  0.00000000000E+00 0.  1.
         14    1    6    6    0    0  0.72078549645E+02 -0.95633561382E+01  0.91013300170E+02  0.11649118382E+03  0.00000000000E+00 0. -1.
         -5    1    3    3    0  503 -0.67374902681E+02  0.48771248224E+02  0.75334417082E+02  0.11231819337E+03  0.47000000000E+01 0.  1.
         11    1    4    4    0    0 -0.22093190650E+02 -0.17625420683E+02  0.13981931098E+03  0.14264713194E+03  0.00000000000E+00 0. -1.
        -12    1    4    4    0    0 -0.43739462005E+02 -0.64411945437E+02  0.68632557933E+02  0.10379049696E+03  0.00000000000E+00 0.  1.
</event>
<event>
12    1  0.8133506E-002  0.3412729E+03  0.7818608E-02  0.1066339E+00
         21   -1    0    0  501  502  0.00000000000E+00  0.00000000000E+00  0.35964289156E+03  0.35964289156E+03  0.00000000000E+00 0.  1.
         21   -1    0    0  502  503 -0.00000000000E+00 -0.00000000000E+00 -0.65904212061E+03  0.65904212061E+03  0.00000000000E+00 0. -1.
         -6    2    1    2    0  503 -0.20793144640E+03 -0.20724568490E+03 -0.51326935991E+03  0.61593490890E+03  0.17246482504E+03 0.  0.
        -24    2    3    3    0    0 -0.17419533183E+03 -0.22440774791E+03 -0.40662163483E+03  0.50267198869E+03  0.81456266417E+02 0.  0.
          6    2    1    2  501    0  0.20793144640E+03  0.20724568490E+03  0.21387013085E+03  0.40275010326E+03  0.17401423072E+03 0.  0.
         24    2    5    5    0    0  0.12489670357E+03  0.15870778545E+03  0.21636175163E+03  0.30642256632E+03  0.79341249386E+02 0.  0.
          5    1    5    5  501    0  0.83034742827E+02  0.48537899448E+02 -0.24916207761E+01  0.96327536942E+02  0.47000000000E+01 0. -1.
        -11    1    6    6    0    0  0.61524417792E+02  0.83065865398E+02  0.54511441015E+02  0.11686183800E+03  0.00000000000E+00 0.  1.
         12    1    6    6    0    0  0.63372285782E+02  0.75641920050E+02  0.16185031062E+03  0.18956072832E+03  0.00000000000E+00 0. -1.
         -5    1    3    3    0  503 -0.33736114566E+02  0.17162063017E+02 -0.10664772507E+03  0.11326292022E+03  0.47000000000E+01 0.  1.
         13    1    4    4    0    0 -0.12278234565E+03 -0.91811915448E+02 -0.20994352995E+03  0.25996387824E+03  0.00000000000E+00 0. -1.
        -14    1    4    4    0    0 -0.51412986182E+02 -0.13259583247E+03 -0.19667810488E+03  0.24270811044E+03  0.00000000000E+00 0.  1.
</event>
<event>
12    1  0.8133506E-002  0.2476148E+03  0.7818608E-02  0.1114993E+00
         21   -1    0    0  503  502  0.00000000000E+00  0.00000000000E+00  0.39672035681E+02  0.39672035681E+02  0.00000000000E+00 0. -1.
         21   -1    0    0  501  503 -0.00000000000E+00 -0.00000000000E+00 -0.15828696409E+04  0.15828696409E+04  0.00000000000E+00 0.  1.
          6    2    1    2  501    0 -0.16687076194E+03 -0.56422275803E+02 -0.90527843730E+03  0.93825081961E+03  0.17249993348E+03 0.  0.
         24    2    3    3    0    0 -0.50100723521E+02 -0.83425804147E+02 -0.51573033701E+03  0.53065513163E+03  0.78403704746E+02 0.  0.
         -6    2    1    2    0  502  0.16687076194E+03  0.56422275803E+02 -0.63791916792E+03  0.68429085698E+03  0.17402237713E+03 0.  0.
        -24    2    5    5    0    0  0.15068431014E+03  0.30132112945E+02 -0.31252309901E+03  0.35739964335E+03  0.80312589907E+02 0.  0.
          5    1    3    3  501    0 -0.11677003842E+03  0.27003528344E+02 -0.38954810029E+03  0.40759568798E+03  0.47000000000E+01 0. -1.
        -13    1    4    4    0    0 -0.44154961494E+02 -0.97933404535E+02 -0.41337665948E+03  0.42710756836E+03  0.00000000000E+00 0.  1.
         14    1    4    4    0    0 -0.59457620273E+01  0.14507600388E+02 -0.10235367753E+03  0.10354756327E+03  0.00000000000E+00 0. -1.
         -5    1    5    5    0  502  0.16186451803E+02  0.26290162858E+02 -0.32539606891E+03  0.32689121363E+03  0.47000000000E+01 0.  1.
         13    1    6    6    0    0  0.13287360898E+02 -0.22081496416E+02 -0.58344249422E+02  0.63782426139E+02  0.00000000000E+00 0. -1.
        -14    1    6    6    0    0  0.13739694924E+03  0.52213609361E+02 -0.25417884959E+03  0.29361721721E+03  0.00000000000E+00 0.  1.
</event>
<event>
12    1  0.8133506E-002  0.1945395E+03  0.7818608E-02  0.1154649E+00
         21   -1    0    0  503  502  0.00000000000E+00  0.00000000000E+00  0.57491946959E+02  0.57491946959E+02  0.00000000000E+00 0.  1.
         21   -1    0    0  501  503 -0.00000000000E+00 -0.00000000000E+00 -0.72801590953E+03  0.72801590953E+03  0.00000000000E+00 0. -1.
          6    2    1    2  501    0 -0.19417813227E+02 -0.86390968739E+02 -0.45895671954E+03  0.49809468615E+03  0.17209472685E+03 0.  0.
         24    2    3    3    0    0  0.60390665562E+01  0.10240479140E+02 -0.29931856975E+03  0.30970116631E+03  0.78624859181E+02 0.  0.
         -6    2    1    2    0  502  0.19417813227E+02  0.86390968739E+02 -0.21156724303E+03  0.28741317034E+03  0.17322003698E+03 0.  0.
        -24    2    5    5    0    0  0.21613733200E+02 -0.13444832925E+02 -0.14448649385E+03  0.16702244699E+03  0.79826273233E+02 0.  0.
          5    1    3    3  501    0 -0.25456879783E+02 -0.96631447879E+02 -0.15963814979E+03  0.18839351984E+03  0.47000000000E+01 0. -1.
        -11    1    4    4    0    0  0.25359461221E+02  0.16786708065E+02 -0.43535213208E+02  0.53105655350E+02  0.00000000000E+00 0.  1.
         12    1    4    4    0    0 -0.19320394665E+02 -0.65462289247E+01 -0.25578335654E+03  0.25659551096E+03  0.00000000000E+00 0. -1.
         -5    1    5    5    0  502 -0.21959199729E+01  0.99835801664E+02 -0.67080749186E+02  0.12039072335E+03  0.47000000000E+01 0.  1.
         11    1    6    6    0    0 -0.17897891119E+02 -0.34435730116E+02 -0.60897352285E+02  0.72212474895E+02  0.00000000000E+00 0. -1.
        -12    1    6    6    0    0  0.39511624318E+02  0.20990897191E+02 -0.83589141563E+02  0.94809972094E+02  0.00000000000E+00 0.  1.
</event>
<event>
12    1  0.8133506E-002  0.1750505E+03  0.7818608E-02  0.1173374E+00
         21   -1    0    0  501  502  0.00000000000E+00  0.00000000000E+00  0.10669481536E+03  0.10669481536E+03  0.00000000000E+00 0. -1.
         21   -1    0    0  502  503 -0.00000000000E+00 -0.00000000000E+00 -0.43893755842E+03  0.43893755842E+03  0.00000000000E+00 0. -1.
         -6    2    1    2    0  503 -0.34680759938E+02  0.11560814515E+02 -0.32802640570E+03  0.37053110312E+03  0.16839111614E+03 0.  0.
        -24    2    3    3    0    0 -0.47357236968E+01  0.35956558874E+02 -0.31929898786E+03  0.33065485253E+03  0.77881234272E+02 0.  0.
          6    2    1    2  501    0  0.34680759938E+02 -0.11560814515E+02 -0.42163373564E+01  0.17510127066E+03  0.17119074141E+03 0.  0.
         24    2    5    5    0    0  0.24163737472E+02  0.54548794189E+02  0.23384596033E+02  0.10254102226E+03  0.80052262669E+02 0.  0.
          5    1    5    5  501    0  0.10517022466E+02 -0.66109608705E+02 -0.27600933389E+02  0.72560248405E+02  0.47000000000E+01 0. -1.
        -13    1    6    6    0    0 -0.14231203645E+02  0.40564223186E+02 -0.15922214944E+02  0.45842123517E+02  0.00000000000E+00 0.  1.
         14    1    6    6    0    0  0.38394941117E+02  0.13984571004E+02  0.39306810976E+02  0.56698898743E+02  0.00000000000E+00 0. -1.
         -5    1    3    3    0  503 -0.29945036242E+02 -0.24395744359E+02 -0.87274178468E+01  0.39876250584E+02  0.47000000000E+01 0.  1.
         11    1    4    4    0    0  0.23935839917E+02  0.34653657460E+02 -0.87749118852E+02  0.97332976257E+02  0.00000000000E+00 0. -1.
        -12    1    4    4    0    0 -0.28671563613E+02  0.13029014145E+01 -0.23154986901E+03  0.23332187628E+03  0.00000000000E+00 0.  1.
</event>
<event>
12    1  0.8133506E-002  0.2442383E+03  0.7818608E-02  0.1117346E+00
         21   -1    0    0  501  502  0.00000000000E+00  0.00000000000E+00  0.16930969641E+03  0.16930969641E+03  0.00000000000E+00 0. -1.
         21   -1    0    0  502  503 -0.00000000000E+00 -0.00000000000E+00 -0.46802874009E+03  0.46802874009E+03  0.00000000000E+00 0.  1.
         -6    2    1    2    0  503 -0.15359819036E+03  0.79878270678E+02 -0.31034989531E+03  0.39492963224E+03  0.17227714500E+03 0.  0.
        -24    2    3    3    0    0 -0.14707374311E+03  0.49034948860E+02 -0.31761722032E+03  0.36223738659E+03  0.79373254180E+02 0.  0.
          6    2    1    2  501    0  0.15359819036E+03 -0.79878270678E+02  0.11630851634E+02  0.24240880427E+03  0.16927436152E+03 0.  0.
         24    2    5    5    0    0  0.16099472872E+03 -0.88740713208E+02  0.45672687863E+02  0.20615706940E+03  0.81366614711E+02 0.  0.
          5    1    5    5  501    0 -0.73965383585E+01  0.88624425302E+01 -0.34041836229E+02  0.36251734871E+02  0.47000000000E+01 0. -1.
        -13    1    6    6    0    0  0.11692515805E+02 -0.74604483930E+01 -0.19644378901E+02  0.24047345768E+02  0.00000000000E+00 0.  1.
         14    1    6    6    0    0  0.14930221292E+03 -0.81280264815E+02  0.65317066764E+02  0.18210972363E+03  0.00000000000E+00 0. -1.
         -5    1    3    3    0  503 -0.65244472577E+01  0.30843321819E+02  0.72673250058E+01  0.32692245649E+02  0.47000000000E+01 0.  1.
         11    1    4    4    0    0  0.74088131772E+01  0.22959676728E+01 -0.24276775321E+01  0.81274595323E+01  0.00000000000E+00 0. -1.
        -12    1    4    4    0    0 -0.15448255628E+03  0.46738981187E+02 -0.31518954279E+03  0.35410992706E+03  0.00000000000E+00 0.  1.
</event>
<event>
12    1  0.8133506E-002  0.2358897E+03  0.7818608E-02  0.1122667E+00
         21   -1    0    0  503  502  0.00000000000E+00  0.00000000000E+00  0.54766690550E+03  0.54766690550E+03  0.00000000000E+00 0. -1.
         21   -1    0    0  501  503 -0.00000000000E+00 -0.00000000000E+00 -0.13435735135E+03  0.13435735135E+03  0.00000000000E+00 0.  1.
          6    2    1    2  501    0 -0.15826758787E+02 -0.16121599201E+03  0.37801265326E+02  0.23889928835E+03  0.17147259822E+03 0.  0.
         24    2    3    3    0    0  0.63925936948E+01 -0.18348130156E+03  0.46722831302E+02  0.20586706206E+03  0.80572768355E+02 0.  0.
         -6    2    1    2    0  502  0.15826758787E+02  0.16121599201E+03  0.37550828882E+03  0.44312496849E+03  0.17062291861E+03 0.  0.
        -24    2    5    5    0    0  0.23016009217E+02  0.12940815429E+03  0.14894330912E+03  0.21417693096E+03  0.80071476496E+02 0.  0.
          5    1    3    3  501    0 -0.22219352482E+02  0.22265309550E+02 -0.89215659757E+01  0.33032226288E+02  0.47000000000E+01 0. -1.
        -13    1    4    4    0    0  0.28383985409E+02 -0.91498418589E+02 -0.87916916949E+01  0.96202417199E+02  0.00000000000E+00 0.  1.
         14    1    4    4    0    0 -0.21991391714E+02 -0.91982882973E+02  0.55514522997E+02  0.10966464486E+03  0.00000000000E+00 0. -1.
         -5    1    5    5    0  502 -0.71892504304E+01  0.31807837724E+02  0.22656497970E+03  0.22894803753E+03  0.47000000000E+01 0.  1.
         13    1    6    6    0    0 -0.20562608330E+02  0.63272711332E+02  0.10298700926E+03  0.12260742611E+03  0.00000000000E+00 0. -1.
        -14    1    6    6    0    0  0.43578617547E+02  0.66135442956E+02  0.45956299858E+02  0.91569504852E+02  0.00000000000E+00 0.  1.
</event>
<event>
12    1  0.8133506E-002  0.2402821E+03  0.7818608E-02  0.1119633E+00
         21   -1    0    0  503  502  0.00000000000E+00  0.00000000000E+00  0.37872496358E+03  0.37872496358E+03  0.00000000000E+00 0. -1.
         21   -1    0    0  501  503 -0.00000000000E+00 -0.00000000000E+00 -0.19401716937E+03  0.19401716937E+03  0.00000000000E+00 0.  1.
          6    2    1    2  501    0 -0.16713529391E+03 -0.14197489407E+02 -0.40398655855E+02  0.24348784962E+03  0.17180950597E+03 0.  0.
         24    2    3    3    0    0 -0.86371672554E+02  0.61028336336E+02 -0.80911741986E+01  0.12838984458E+03  0.72346122463E+02 0.  0.
         -6    2    1    2    0  502  0.16713529391E+03  0.14197489407E+02  0.22510645006E+03  0.32925428332E+03  0.17204561619E+03 0.  0.
        -24    2    5    5    0    0  0.18225270475E+03  0.40463435893E+02  0.16297426399E+03  0.25996550644E+03  0.78537352791E+02 0.  0.
          5    1    3    3  501    0 -0.80763621361E+02 -0.75225825743E+02 -0.32307481656E+02  0.11509800504E+03  0.47000000000E+01 0. -1.
        -11    1    4    4    0    0 -0.49369882021E+02 -0.74920859578E+01 -0.76364930229E+01  0.50515667158E+02  0.00000000000E+00 0.  1.
         12    1    4    4    0    0 -0.37001790533E+02  0.68520422294E+02 -0.45468117570E+00  0.77874177421E+02  0.00000000000E+00 0. -1.
         -5    1    5    5    0  502 -0.15117410838E+02 -0.26265946486E+02  0.62132186075E+02  0.69288776881E+02  0.47000000000E+01 0.  1.
         13    1    6    6    0    0  0.68158028081E+02 -0.20889266406E+02  0.42122759388E+02  0.82802204689E+02  0.00000000000E+00 0. -1.
        -14    1    6    6    0    0  0.11409467667E+03  0.61352702298E+02  0.12085150460E+03  0.17716330175E+03  0.00000000000E+00 0.  1.
</event>
<event>
12    1  0.8133506E-002  0.1873726E+03  0.7818608E-02  0.1160974E+00
         21   -1    0    0  501  502  0.00000000000E+00  0.00000000000E+00  0.65174023960E+03  0.65174023960E+03  0.00000000000E+00 0.  1.
         21   -1    0    0  502  503 -0.00000000000E+00 -0.00000000000E+00 -0.10574594494E+03  0.10574594494E+03  0.00000000000E+00 0.  1.
         -6    2    1    2    0  503  0.71807821928E+02  0.15726681129E+02  0.75281054217E+01  0.18752376258E+03  0.17235079742E+03 0.  0.
        -24    2    3    3    0    0  0.97654599493E+02  0.48580145707E+02  0.32187818915E+02  0.13876314820E+03  0.79515434049E+02 0.  0.
          6    2    1    2  501    0 -0.71807821928E+02 -0.15726681129E+02  0.53846618924E+03  0.56996242197E+03  0.17177786154E+03 0.  0.
         24    2    5    5    0    0 -0.95262993184E+02 -0.18522398209E+02  0.24160110183E+03  0.27212197607E+03  0.79127494267E+02 0.  0.
          5    1    5    5  501    0  0.23455171256E+02  0.27957170794E+01  0.29686508740E+03  0.29784044590E+03  0.47000000000E+01 0. -1.
        -13    1    6    6    0    0 -0.10003942137E+03 -0.28352673929E+01  0.23304572505E+03  0.25362617083E+03  0.00000000000E+00 0.  1.
         14    1    6    6    0    0  0.47764281864E+01 -0.15687130816E+02  0.85553767856E+01  0.18495805238E+02  0.00000000000E+00 0. -1.
         -5    1    3    3    0  503 -0.25846777565E+02 -0.32853464577E+02 -0.24659713493E+02  0.48760614381E+02  0.47000000000E+01 0.  1.
         13    1    4    4    0    0 -0.35192754861E+00 -0.15803762636E+02  0.11835031792E+02  0.19747170531E+02  0.00000000000E+00 0. -1.
        -14    1    4    4    0    0  0.98006527041E+02  0.64383908342E+02  0.20352787123E+02  0.11901597767E+03  0.00000000000E+00 0.  1.
</event>
<event>
12    1  0.8133506E-002  0.1726025E+03  0.7818608E-02  0.1176529E+00
         21   -1    0    0  503  502  0.00000000000E+00  0.00000000000E+00  0.15633899444E+03  0.15633899444E+03  0.00000000000E+00 0. -1.
         21   -1    0    0  501  503 -0.00000000000E+00 -0.00000000000E+00 -0.23579103985E+03  0.23579103985E+03  0.00000000000E+00 0. -1.
          6    2    1    2  501    0 -0.15301937600E+01 -0.26178123718E+02 -0.13138674523E+03  0.21691960289E+03  0.17059894971E+03 0.  0.
         24    2    3    3    0    0  0.38223441274E+02 -0.62516831625E+02 -0.50425550971E+02  0.11956633810E+03  0.79899858048E+02 0.  0.
         -6    2    1    2    0  502  0.15301937600E+01  0.26178123718E+02  0.51934699808E+02  0.17521043140E+03  0.16526901274E+03 0.  0.
        -24    2    5    5    0    0  0.25375721778E+02 -0.18053125254E+02 -0.22376105905E+02  0.85381714174E+02  0.76285676327E+02 0.  0.
          5    1    3    3  501    0 -0.39753635034E+02  0.36338707907E+02 -0.80961194255E+02  0.97353264794E+02  0.47000000000E+01 0. -1.
        -13    1    4    4    0    0  0.49988349064E+02 -0.15516638003E+02 -0.40489624059E+01  0.52497573216E+02  0.00000000000E+00 0.  1.
         14    1    4    4    0    0 -0.11764907790E+02 -0.47000193622E+02 -0.46376588565E+02  0.67068764882E+02  0.00000000000E+00 0. -1.
         -5    1    5    5    0  502 -0.23845528018E+02  0.44231248972E+02  0.74310805713E+02  0.89828717222E+02  0.47000000000E+01 0.  1.
         13    1    6    6    0    0  0.11260099157E+02  0.22600925684E+02  0.14141743351E+02  0.28940984431E+02  0.00000000000E+00 0. -1.
        -14    1    6    6    0    0  0.14115622621E+02 -0.40654050939E+02 -0.36517849256E+02  0.56440729744E+02  0.00000000000E+00 0.  1.
</event>
<event>
12    1  0.8133506E-002  0.1981982E+03  0.7818608E-02  0.1152370E+00
         21   -1    0    0  503  502  0.00000000000E+00  0.00000000000E+00  0.24487009591E+02  0.24487009591E+02  0.00000000000E+00 0.  1.
         21   -1    0    0  501  503 -0.00000000000E+00 -0.00000000000E+00 -0.16026687164E+04  0.16026687164E+04  0.00000000000E+00 0. -1.
          6    2    1    2  501    0  0.38898576712E+02 -0.78714132459E+02 -0.92663976469E+03  0.94759895691E+03  0.17768937986E+03 0.  0.
         24    2    3    3    0    0  0.51582715696E+02 -0.48515688204E+02 -0.27755573832E+03  0.29767204048E+03  0.80974732153E+02 0.  0.
         -6    2    1    2    0  502 -0.38898576712E+02  0.78714132459E+02 -0.65154194216E+03  0.67955676912E+03  0.17199269213E+03 0.  0.
        -24    2    5    5    0    0  0.71659371150E+01  0.77930517345E+02 -0.23494781774E+03  0.26039652770E+03  0.80506884108E+02 0.  0.
          5    1    3    3  501    0 -0.12684138985E+02 -0.30198444256E+02 -0.64908402637E+03  0.64992691643E+03  0.47000000000E+01 0. -1.
        -11    1    4    4    0    0 -0.19569600224E+02 -0.26675993228E+02 -0.89965523994E+02  0.95856003334E+02  0.00000000000E+00 0.  1.
         12    1    4    4    0    0  0.71152315920E+02 -0.21839694975E+02 -0.18759021433E+03  0.20181603714E+03  0.00000000000E+00 0. -1.
         -5    1    5    5    0  502 -0.46064513827E+02  0.78361511412E+00 -0.41659412442E+03  0.41916024142E+03  0.47000000000E+01 0.  1.
         11    1    6    6    0    0 -0.91297656321E+01 -0.45060486723E+01 -0.10597962122E+03  0.10646754064E+03  0.00000000000E+00 0. -1.
        -12    1    6    6    0    0  0.16295702747E+02  0.82436566017E+02 -0.12896819652E+03  0.15392898706E+03  0.00000000000E+00 0.  1.
</event>
<event>
12    1  0.8133506E-002  0.1979756E+03  0.7818608E-02  0.1152803E+00
         21   -1    0    0  503  502  0.00000000000E+00  0.00000000000E+00  0.62795791890E+02  0.62795791890E+02  0.00000000000E+00 0.  1.
         21   -1    0    0  501  503 -0.00000000000E+00 -0.00000000000E+00 -0.65133343002E+03  0.65133343002E+03  0.00000000000E+00 0.  1.
          6    2    1    2  501    0  0.83812553023E+02  0.64521683267E+01 -0.38535360252E+03  0.43044261207E+03  0.17238697396E+03 0.  0.
         24    2    3    3    0    0  0.59669170586E+02  0.70427806716E+02 -0.29171518595E+03  0.31439939477E+03  0.72310053551E+02 0.  0.
         -6    2    1    2    0  502 -0.83812553023E+02 -0.64521683267E+01 -0.20318403561E+03  0.28368660983E+03  0.17924331439E+03 0.  0.
        -24    2    5    5    0    0 -0.83405859947E+02  0.47211893454E+02 -0.19226898814E+03  0.22872093703E+03  0.78488234001E+02 0.  0.
          5    1    3    3  501    0  0.24143382438E+02 -0.63975638389E+02 -0.93638416573E+02  0.11604321730E+03  0.47000000000E+01 0. -1.
        -13    1    4    4    0    0  0.27467062916E+02 -0.10705400370E+02 -0.61788470434E+02  0.68460647243E+02  0.00000000000E+00 0.  1.
         14    1    4    4    0    0  0.32202107670E+02  0.81133207086E+02 -0.22992671551E+03  0.24593874753E+03  0.00000000000E+00 0. -1.
         -5    1    5    5    0  502 -0.40669307660E+00 -0.53664061780E+02 -0.10915047466E+02  0.54965672808E+02  0.47000000000E+01 0.  1.
         11    1    6    6    0    0  0.63327602661E+01  0.16480799348E+02 -0.79150185182E+02  0.81095452487E+02  0.00000000000E+00 0. -1.
        -12    1    6    6    0    0 -0.89738620213E+02  0.30731094106E+02 -0.11311880296E+03  0.14762548454E+03  0.00000000000E+00 0.  1.
</event>
<event>
12    1  0.8133506E-002  0.1924304E+03  0.7818608E-02  0.1156368E+00
         21   -1    0    0  503  502  0.00000000000E+00  0.00000000000E+00  0.36502696430E+03  0.36502696430E+03  0.00000000000E+00 0.  1.
         21   -1    0    0  501  503 -0.00000000000E+00 -0.00000000000E+00 -0.12814590999E+03  0.12814590999E+03  0.00000000000E+00 0.  1.
          6    2    1    2  501    0  0.44896055713E+02 -0.71056782340E+02  0.55618982328E+01  0.19251078923E+03  0.17310328455E+03 0.  0.
         24    2    3    3    0    0  0.34012514395E+02 -0.65165914922E+01 -0.55441728791E+02  0.10291491758E+03  0.79488224723E+02 0.  0.
         -6    2    1    2    0  502 -0.44896055713E+02  0.71056782340E+02  0.23131915608E+03  0.30066208507E+03  0.17269746754E+03 0.  0.
        -24    2    5    5    0    0 -0.24671634151E+02 -0.21165305471E+02  0.62116145014E+02  0.10684338200E+03  0.80625263521E+02 0.  0.
          5    1    3    3  501    0  0.10883541319E+02 -0.64540190847E+02  0.61003627024E+02  0.89595871648E+02  0.47000000000E+01 0. -1.
        -13    1    4    4    0    0  0.32949982171E+02 -0.97401277349E+01 -0.75299974899E+02  0.82768699598E+02  0.00000000000E+00 0.  1.
         14    1    4    4    0    0  0.10625322235E+01  0.32235362427E+01  0.19858246107E+02  0.20146217985E+02  0.00000000000E+00 0. -1.
         -5    1    5    5    0  502 -0.20224421562E+02  0.92222087811E+02  0.16920301106E+03  0.19381870307E+03  0.47000000000E+01 0.  1.
         13    1    6    6    0    0 -0.26033056705E+02  0.22691642788E+02  0.51169511537E+01  0.34911515048E+02  0.00000000000E+00 0. -1.
        -14    1    6    6    0    0  0.13614225538E+01 -0.43856948260E+02  0.56999193860E+02  0.71931866949E+02  0.00000000000E+00 0.  1.
</event>
<event>
12    1  0.8133506E-002  0.1901205E+03  0.7818608E-02  0.1158489E+00
         21   -1    0    0  501  502  0.00000000000E+00  0.00000000000E+00  0.15406582029E+03  0.15406582029E+03  0.00000000000E+00 0. -1.
         21   -1    0    0  502  503 -0.00000000000E+00 -0.00000000000E+00 -0.59060312661E+03  0.59060312661E+03  0.00000000000E+00 0. -1.
         -6    2    1    2    0  503  0.80027389912E+02  0.14879968521E+02 -0.50750403229E+03  0.54173521562E+03  0.17114585725E+03 0.  0.
        -24    2    3    3    0    0  0.62565977474E+02  0.23495470833E+02 -0.14559619827E+03  0.17927349608E+03  0.80462381023E+02 0.  0.
          6    2    1    2  501    0 -0.80027389912E+02 -0.14879968521E+02  0.70966725972E+02  0.20293373127E+03  0.17181392986E+03 0.  0.
         24    2    5    5    0    0 -0.11165588744E+02 -0.44782419763E+02  0.85978883866E+02  0.12622936937E+03  0.80070904382E+02 0.  0.
          5    1    5    5  501    0 -0.68861801168E+02  0.29902451242E+02 -0.15012157894E+02  0.76704361903E+02  0.47000000000E+01 0. -1.
        -11    1    6    6    0    0  0.47789132096E+00  0.10626065664E+02  0.64975701311E+02  0.65840590918E+02  0.00000000000E+00 0.  1.
         12    1    6    6    0    0 -0.11643480065E+02 -0.55408485427E+02  0.21003182556E+02  0.60388778451E+02  0.00000000000E+00 0. -1.
         -5    1    3    3    0  503  0.17461412438E+02 -0.86155023121E+01 -0.36190783403E+03  0.36246171954E+03  0.47000000000E+01 0.  1.
         11    1    4    4    0    0  0.54116537621E+02  0.45149556766E+02 -0.13776447886E+03  0.15474538363E+03  0.00000000000E+00 0. -1.
        -12    1    4    4    0    0  0.84494398537E+01 -0.21654085932E+02 -0.78317194094E+01  0.24528112449E+02  0.00000000000E+00 0.  1.
</event>
<event>
12    1  0.8133506E-002  0.2264139E+03  0.7818608E-02  0.1129244E+00
         21   -1    0    0  501  502  0.00000000000E+00  0.00000000000E+00  0.28178444109E+02  0.28178444109E+02  0.00000000000E+00 0. -1.
         21   -1    0    0  502  503 -0.00000000000E+00 -0.00000000000E+00 -0.18171497925E+04  0.18171497925E+04  0.00000000000E+00 0. -1.
         -6    2    1    2    0  503 -0.40627316484E+02 -0.14030644026E+03 -0.90622991073E+03  0.93401287112E+03  0.17260045278E+03 0.  0.
        -24    2    3    3    0    0 -0.47001422749E+02 -0.10045098157E+03 -0.86626033386E+03  0.87701511772E+03  0.80305773440E+02 0.  0.
          6    2    1    2  501    0  0.40627316484E+02  0.14030644026E+03 -0.88274143764E+03  0.91131536546E+03  0.17299356515E+03 0.  0.
         24    2    5    5    0    0 -0.19129001963E+01  0.32098120930E+02 -0.18713999500E+03  0.20604792158E+03  0.80002623098E+02 0.  0.
          5    1    5    5  501    0  0.42540216680E+02  0.10820831933E+03 -0.69560144263E+03  0.70526744388E+03  0.47000000000E+01 0. -1.
        -11    1    6    6    0    0  0.61502823887E+01 -0.14943987334E+02 -0.13256709110E+03  0.13354842707E+03  0.00000000000E+00 0.  1.
         12    1    6    6    0    0 -0.80631825850E+01  0.47042108263E+02 -0.54572903906E+02  0.72499494509E+02  0.00000000000E+00 0. -1.
         -5    1    3    3    0  503  0.63741062652E+01 -0.39855458689E+02 -0.39969576866E+02  0.56997753401E+02  0.47000000000E+01 0.  1.
         13    1    4    4    0    0  0.63280717430E+01 -0.75368945092E+02 -0.40462741253E+03  0.41163559777E+03  0.00000000000E+00 0. -1.
        -14    1    4    4    0    0 -0.53329494492E+02 -0.25082036482E+02 -0.46163292133E+03  0.46537951995E+03  0.00000000000E+00 0.  1.
</event>
<event>
12    1  0.8133506E-002  0.3636859E+03  0.7818608E-02  0.1057171E+00
         21   -1    0    0  501  502  0.00000000000E+00  0.00000000000E+00  0.34900698555E+03  0.34900698555E+03  0.00000000000E+00 0.  1.
         21   -1    0    0  502  503 -0.00000000000E+00 -0.00000000000E+00 -0.10692757742E+04  0.10692757742E+04  0.00000000000E+00 0. -1.
         -6    2    1    2    0  503 -0.21209954924E+02 -0.31937162268E+03 -0.93000778624E+03  0.99845200789E+03  0.17188319880E+03 0.  0.
        -24    2    3    3    0    0  0.92563296362E+01 -0.62505038174E+02 -0.22979552070E+03  0.25197498645E+03  0.81809858971E+02 0.  0.
          6    2    1    2  501    0  0.21209954924E+02  0.31937162268E+03  0.20973899757E+03  0.41983075189E+03  0.17268270778E+03 0.  0.
         24    2    5    5    0    0 -0.66740716340E+01  0.27247863064E+03  0.10723131876E+03  0.30361377441E+03  0.79960120691E+02 0.  0.
          5    1    5    5  501    0  0.27884026558E+02  0.46892992040E+02  0.10250767880E+03  0.11621697748E+03  0.47000000000E+01 0. -1.
        -13    1    6    6    0    0  0.18378150937E+02  0.19869313445E+02  0.24819903309E+02  0.36722930832E+02  0.00000000000E+00 0.  1.
         14    1    6    6    0    0 -0.25052222571E+02  0.25260931719E+03  0.82411415456E+02  0.26689084358E+03  0.00000000000E+00 0. -1.
         -5    1    3    3    0  503 -0.30466284561E+02 -0.25686658451E+03 -0.70021226554E+03  0.74647702144E+03  0.47000000000E+01 0.  1.
         13    1    4    4    0    0  0.17889168819E+02 -0.26579178041E+02 -0.20497486152E+03  0.20746365687E+03  0.00000000000E+00 0. -1.
        -14    1    4    4    0    0 -0.86328391831E+01 -0.35925860133E+02 -0.24820659183E+02  0.44511329580E+02  0.00000000000E+00 0.  1.
</event>
<event>
12    1  0.8133506E-002  0.2077245E+03  0.7818608E-02  0.1143992E+00
         21   -1    0    0  501  502  0.00000000000E+00  0.00000000000E+00  0.12286578812E+03  0.12286578812E+03  0.00000000000E+00 0. -1.
         21   -1    0    0  502  503 -0.00000000000E+00 -0.00000000000E+00 -0.37548079675E+03  0.37548079675E+03  0.00000000000E+00 0. -1.
         -6    2    1    2    0  503 -0.92054905969E+02 -0.71513060592E+02 -0.19685251131E+03  0.28618240795E+03  0.17193381244E+03 0.  0.
        -24    2    3    3    0    0 -0.57997837062E+02 -0.81948925068E+02 -0.54569283457E+02  0.13943296795E+03  0.79902255485E+02 0.  0.
          6    2    1    2  501    0  0.92054905969E+02  0.71513060592E+02 -0.55762497316E+02  0.21216417691E+03  0.16827346288E+03 0.  0.
         24    2    5    5    0    0  0.11615890692E+03  0.95960164423E+02 -0.38074402417E+02  0.17325887588E+03  0.76601130138E+02 0.  0.
          5    1    5    5  501    0 -0.24104000950E+02 -0.24447103831E+02 -0.17688094899E+02  0.38905301036E+02  0.47000000000E+01 0. -1.
        -11    1    6    6    0    0  0.18474816643E+01  0.72917847800E+01 -0.27155615820E+02  0.28178196968E+02  0.00000000000E+00 0.  1.
         12    1    6    6    0    0  0.11431142525E+03  0.88668379643E+02 -0.10918786596E+02  0.14508067891E+03  0.00000000000E+00 0. -1.
         -5    1    3    3    0  503 -0.34057068906E+02  0.10435864477E+02 -0.14228322786E+03  0.14674944000E+03  0.47000000000E+01 0.  1.
         13    1    4    4    0    0 -0.48478303061E+02 -0.33075339552E+01 -0.26796794927E+02  0.55490124048E+02  0.00000000000E+00 0. -1.
        -14    1    4    4    0    0 -0.95195340018E+01 -0.78641391113E+02 -0.27772488530E+02  0.83942843906E+02  0.00000000000E+00 0.  1.
</event>
<event>
12    1  0.8133506E-002  0.1951948E+03  0.7818608E-02  0.1154146E+00
         21   -1    0    0  501  502  0.00000000000E+00  0.00000000000E+00  0.19066202263E+03  0.19066202263E+03  0.00000000000E+00 0. -1.
         21   -1    0    0  502  503 -0.00000000000E+00 -0.00000000000E+00 -0.75911755011E+03  0.75911755011E+03  0.00000000000E+00 0. -1.
         -6    2    1    2    0  503  0.89223627904E+02  0.11240523339E+02 -0.69258881929E+03  0.71956950364E+03  0.17324489263E+03 0.  0.
        -24    2    3    3    0    0  0.43892546033E+02 -0.59802298586E+02 -0.42002371400E+03  0.43423493484E+03  0.81468937638E+02 0.  0.
          6    2    1    2  501    0 -0.89223627904E+02 -0.11240523339E+02  0.12413329180E+03  0.23021006910E+03  0.17175679504E+03 0.  0.
         24    2    5    5    0    0 -0.81594820253E+01 -0.58255428900E+02  0.72479762334E+02  0.12310276684E+03  0.80253991251E+02 0.  0.
          5    1    5    5  501    0 -0.81064145879E+02  0.47014905560E+02  0.51653529468E+02  0.10710730226E+03  0.47000000000E+01 0. -1.
        -11    1    6    6    0    0  0.11242923247E+02 -0.64426893889E+02  0.22546075961E+02  0.69177695253E+02  0.00000000000E+00 0.  1.
         12    1    6    6    0    0 -0.19402405272E+02  0.61714649892E+01  0.49933686373E+02  0.53925071584E+02  0.00000000000E+00 0. -1.
         -5    1    3    3    0  503  0.45331081872E+02  0.71042821925E+02 -0.27256510528E+03  0.28533456879E+03  0.47000000000E+01 0.  1.
         13    1    4    4    0    0  0.29342854565E+02 -0.37795358009E+01 -0.29480473620E+03  0.29628553878E+03  0.00000000000E+00 0. -1.
        -14    1    4    4    0    0  0.14549691468E+02 -0.56022762785E+02 -0.12521897780E+03  0.13794939606E+03  0.00000000000E+00 0.  1.
</event>
<event>
12    1  0.8133506E-002  0.2141606E+03  0.7818608E-02  0.1140331E+00
         21   -1    0    0  503  502  0.00000000000E+00  0.00000000000E+00  0.15406354424E+03  0.15406354424E+03  0.00000000000E+00 0. -1.
         21   -1    0    0  501  503 -0.00000000000E+00 -0.00000000000E+00 -0.43567888152E+03  0.43567888152E+03  0.00000000000E+00 0. -1.
          6    2    1    2  501    0  0.58071145763E+02 -0.97301693456E+02 -0.31716180866E+03  0.38269618368E+03  0.18172748447E+03 0.  0.
         24    2    3    3    0    0  0.34885345749E+02 -0.10025838912E+03 -0.32973111965E+03  0.35574435720E+03  0.81010520775E+02 0.  0.
         -6    2    1    2    0  502 -0.58071145763E+02  0.97301693456E+02  0.35546471381E+02  0.20704624208E+03  0.16960164272E+03 0.  0.
        -24    2    5    5    0    0 -0.29735239754E+02  0.12265514075E+03 -0.88079928316E+01  0.14843626550E+03  0.77635534013E+02 0.  0.
          5    1    3    3  501    0  0.23185800013E+02  0.29566956626E+01  0.12569310995E+02  0.26951826476E+02  0.47000000000E+01 0. -1.
        -13    1    4    4    0    0  0.54686483241E+02 -0.93189127311E+02 -0.30329397584E+03  0.32196593093E+03  0.00000000000E+00 0.  1.
         14    1    4    4    0    0 -0.19801137492E+02 -0.70692618075E+01 -0.26437143817E+02  0.33778426276E+02  0.00000000000E+00 0. -1.
         -5    1    5    5    0  502 -0.28335906009E+02 -0.25353447298E+02  0.44354464212E+02  0.58609976581E+02  0.47000000000E+01 0.  1.
         11    1    6    6    0    0 -0.28831261779E+02  0.39240295310E+01  0.22732576095E+01  0.29185739046E+02  0.00000000000E+00 0. -1.
        -12    1    6    6    0    0 -0.90397797571E+00  0.11873111122E+03 -0.11081250441E+02  0.11925052645E+03  0.00000000000E+00 0.  1.
</event>
<event>
12    1  0.8133506E-002  0.1988712E+03  0.7818608E-02  0.1150848E+00
         21   -1    0    0  501  502  0.00000000000E+00  0.00000000000E+00  0.82498545269E+02  0.82498545269E+02  0.00000000000E+00 0.  1.
         21   -1    0    0  502  503 -0.00000000000E+00 -0.00000000000E+00 -0.56059272787E+03  0.56059272787E+03  0.00000000000E+00 0. -1.
         -6    2    1    2    0  503  0.25844655222E+02 -0.94757439139E+02 -0.36308063726E+03  0.41397739768E+03  0.17292431340E+03 0.  0.
        -24    2    3    3    0    0 -0.51792632303E+02 -0.44911697305E+02 -0.19949511667E+03  0.22610920203E+03  0.81409657595E+02 0.  0.
          6    2    1    2  501    0 -0.25844655222E+02  0.94757439139E+02 -0.11501354534E+03  0.22911387546E+03  0.17209919767E+03 0.  0.
         24    2    5    5    0    0  0.49602239739E+01  0.93817619469E+02 -0.14577647074E+02  0.12395074739E+03  0.79529431283E+02 0.  0.
          5    1    5    5  501    0 -0.30804879196E+02  0.93981967019E+00 -0.10043589827E+03  0.10516312806E+03  0.47000000000E+01 0. -1.
        -11    1    6    6    0    0  0.40196284707E+02  0.34722329529E+02 -0.14827614432E+02  0.55147435315E+02  0.00000000000E+00 0.  1.
         12    1    6    6    0    0 -0.35236060733E+02  0.59095289940E+02  0.24996735817E+00  0.68803312077E+02  0.00000000000E+00 0. -1.
         -5    1    3    3    0  503  0.77637287525E+02 -0.49845741834E+02 -0.16358552059E+03  0.18786819566E+03  0.47000000000E+01 0.  1.
         11    1    4    4    0    0 -0.19705208140E+02 -0.65435874521E+02 -0.12833887995E+03  0.14539950828E+03  0.00000000000E+00 0. -1.
        -12    1    4    4    0    0 -0.32087424163E+02  0.20524177216E+02 -0.71156236729E+02  0.80709693750E+02  0.00000000000E+00 0.  1.
</event>
<event>
12    1  0.8133506E-002  0.1877890E+03  0.7818608E-02  0.1160698E+00
         21   -1    0    0  501  502  0.00000000000E+00  0.00000000000E+00  0.30900032168E+02  0.30900032168E+02  0.00000000000E+00 0.  1.
         21   -1    0    0  502  503 -0.00000000000E+00 -0.00000000000E+00 -0.11667809914E+04  0.11667809914E+04  0.00000000000E+00 0.  1.
         -6    2    1    2    0  503  0.73680698896E+02  0.42183365638E+00 -0.66782991213E+03  0.69373012878E+03  0.17273006890E+03 0.  0.
        -24    2    3    3    0    0  0.95081051909E+02 -0.44251453327E+02 -0.39348963410E+03  0.41491413958E+03  0.79505053482E+02 0.  0.
          6    2    1    2  501    0 -0.73680698896E+02 -0.42183365638E+00 -0.46805104711E+03  0.50395089480E+03  0.17165575532E+03 0.  0.
         24    2    5    5    0    0  0.22126332752E+02 -0.21038696371E+02 -0.17058296359E+03  0.19072031989E+03  0.79646039500E+02 0.  0.
          5    1    5    5  501    0 -0.95807031648E+02  0.20616862715E+02 -0.29746808352E+03  0.31323057491E+03  0.47000000000E+01 0. -1.
        -11    1    6    6    0    0 -0.11622752280E+01  0.29562159897E+02 -0.60557243507E+02  0.67397714521E+02  0.00000000000E+00 0.  1.
         12    1    6    6    0    0  0.23288607980E+02 -0.50600856268E+02 -0.11002572008E+03  0.12332260537E+03  0.00000000000E+00 0. -1.
         -5    1    3    3    0  503 -0.21400353013E+02  0.44673286983E+02 -0.27434027804E+03  0.27881598920E+03  0.47000000000E+01 0.  1.
         13    1    4    4    0    0  0.53538712405E+02  0.16473747716E+02 -0.20671888494E+03  0.21417393745E+03  0.00000000000E+00 0. -1.
        -14    1    4    4    0    0  0.41542339504E+02 -0.60725201043E+02 -0.18677074915E+03  0.20074020213E+03  0.00000000000E+00 0.  1.
</event>
<event>
12    1  0.8133506E-002  0.2690252E+03  0.7818608E-02  0.1102253E+00
         21   -1    0    0  501  502  0.00000000000E+00  0.00000000000E+00  0.13823108158E+03  0.13823108158E+03  0.00000000000E+00 0. -1.
         21   -1    0    0  502  503 -0.00000000000E+00 -0.00000000000E+00 -0.55121304194E+03  0.55121304194E+03  0.00000000000E+00 0. -1.
         -6    2    1    2    0  503 -0.16823912563E+03 -0.11988335296E+03 -0.29004497247E+03  0.39366027703E+03  0.16782701197E+03 0.  0.
        -24    2    3    3    0    0 -0.45175591194E+02 -0.21940956967E+02 -0.50500036819E+02  0.10705739387E+03  0.79929920746E+02 0.  0.
          6    2    1    2  501    0  0.16823912563E+03  0.11988335296E+03 -0.12293698789E+03  0.29578384649E+03  0.17233153846E+03 0.  0.
         24    2    5    5    0    0  0.18516840354E+03  0.70205216668E+02 -0.81315642127E+02  0.22863517488E+03  0.80285113327E+02 0.  0.
          5    1    5    5  501    0 -0.16929277914E+02  0.49678136291E+02 -0.41621345761E+02  0.67148671610E+02  0.47000000000E+01 0. -1.
        -13    1    6    6    0    0  0.77843733894E+02  0.10058295225E+02 -0.69853517619E+02  0.10507297528E+03  0.00000000000E+00 0.  1.
         14    1    6    6    0    0  0.10732466964E+03  0.60146921442E+02 -0.11462124509E+02  0.12356219961E+03  0.00000000000E+00 0. -1.
         -5    1    3    3    0  503 -0.12306353443E+03 -0.97942395992E+02 -0.23954493565E+03  0.28660288316E+03  0.47000000000E+01 0.  1.
         13    1    4    4    0    0 -0.50638885442E+02  0.93280820691E+01 -0.54601407796E+02  0.75050806572E+02  0.00000000000E+00 0. -1.
        -14    1    4    4    0    0  0.54632942485E+01 -0.31269039036E+02  0.41013709771E+01  0.32006587294E+02  0.00000000000E+00 0.  1.
</event>
<event>
12    1  0.8133506E-002  0.1792559E+03  0.7818608E-02  0.1168585E+00
         21   -1    0    0  501  502  0.00000000000E+00  0.00000000000E+00  0.25220631520E+03  0.25220631520E+03  0.00000000000E+00 0.  1.
         21   -1    0    0  502  503 -0.00000000000E+00 -0.00000000000E+00 -0.14086048384E+03  0.14086048384E+03  0.00000000000E+00 0.  1.
         -6    2    1    2    0  503  0.20019605439E+02  0.46573990210E+02 -0.54260380141E+01  0.17933796800E+03  0.17193819736E+03 0.  0.
        -24    2    3    3    0    0  0.73094322450E+01 -0.34045193148E+02  0.29421978796E+02  0.90470226360E+02  0.78145416021E+02 0.  0.
          6    2    1    2  501    0 -0.20019605439E+02 -0.46573990210E+02  0.11677186938E+03  0.21372883105E+03  0.17168116547E+03 0.  0.
         24    2    5    5    0    0 -0.79011070031E+02 -0.30292022902E+02  0.76867130829E+02  0.14051972292E+03  0.81712183229E+02 0.  0.
          5    1    5    5  501    0  0.58991464592E+02 -0.16281967308E+02  0.39904738550E+02  0.73209108128E+02  0.47000000000E+01 0. -1.
        -13    1    6    6    0    0  0.23860008614E+01  0.19735039090E+02  0.24559614610E+02  0.31596509899E+02  0.00000000000E+00 0.  1.
         14    1    6    6    0    0 -0.81397070892E+02 -0.50027061991E+02  0.52307516219E+02  0.10892321302E+03  0.00000000000E+00 0. -1.
         -5    1    3    3    0  503  0.12710173194E+02  0.80619183358E+02 -0.34848016810E+02  0.88867741636E+02  0.47000000000E+01 0.  1.
         11    1    4    4    0    0 -0.27784514806E+02  0.54858435680E+01 -0.29665196224E+01  0.28475849089E+02  0.00000000000E+00 0. -1.
        -12    1    4    4    0    0  0.35093947051E+02 -0.39531036716E+02  0.32388498419E+02  0.61994377271E+02  0.00000000000E+00 0.  1.
</event>
<event>
12    1  0.8133506E-002  0.2310463E+03  0.7818608E-02  0.1126010E+00
         21   -1    0    0  501  502  0.00000000000E+00  0.00000000000E+00  0.14307615987E+03  0.14307615987E+03  0.00000000000E+00 0.  1.
         21   -1    0    0  502  503 -0.00000000000E+00 -0.00000000000E+00 -0.78312966285E+03  0.78312966285E+03  0.00000000000E+00 0. -1.
         -6    2    1    2    0  503 -0.10096720246E+03  0.11549677110E+03 -0.65531651544E+03  0.69465590923E+03  0.17196865034E+03 0.  0.
        -24    2    3    3    0    0 -0.12255450222E+03  0.92938373908E+02 -0.38172545474E+03  0.41924884451E+03  0.79988270838E+02 0.  0.
          6    2    1    2  501    0  0.10096720246E+03 -0.11549677110E+03  0.15263012461E+02  0.23154991350E+03  0.17276725032E+03 0.  0.
         24    2    5    5    0    0  0.62310777297E+02 -0.34195354869E+01 -0.28265739742E+02  0.10516768288E+03  0.79793253399E+02 0.  0.
          5    1    5    5  501    0  0.38656425167E+02 -0.11207723561E+03  0.43528752204E+02  0.12638223062E+03  0.47000000000E+01 0. -1.
        -11    1    6    6    0    0  0.14958894875E+02  0.17804138636E+02  0.22655241036E+02  0.32465610034E+02  0.00000000000E+00 0.  1.
         12    1    6    6    0    0  0.47351882421E+02 -0.21223674123E+02 -0.50920980779E+02  0.72702072842E+02  0.00000000000E+00 0. -1.
         -5    1    3    3    0  503  0.21587299761E+02  0.22558397189E+02 -0.27359106071E+03  0.27540706471E+03  0.47000000000E+01 0.  1.
         11    1    4    4    0    0 -0.12786221490E+03  0.62335960327E+02 -0.31736431187E+03  0.34778531366E+03  0.00000000000E+00 0. -1.
        -12    1    4    4    0    0  0.53077126767E+01  0.30602413581E+02 -0.64361142864E+02  0.71463530850E+02  0.00000000000E+00 0.  1.
</event>
<event>
12    1  0.8133506E-002  0.2886716E+03  0.7818608E-02  0.1091096E+00
         21   -1    0    0  501  502  0.00000000000E+00  0.00000000000E+00  0.30956267051E+03  0.30956267051E+03  0.00000000000E+00 0.  1.
         21   -1    0    0  502  503 -0.00000000000E+00 -0.00000000000E+00 -0.28710941676E+03  0.28710941676E+03  0.00000000000E+00 0.  1.
         -6    2    1    2    0  503 -0.20787923706E+03 -0.10449911448E+03  0.86511357352E+02  0.30135607491E+03  0.17087254550E+03 0.  0.
        -24    2    3    3    0    0 -0.17158688197E+03 -0.54358983243E+02  0.21031105954E+01  0.19658007613E+03  0.79008519388E+02 0.  0.
          6    2    1    2  501    0  0.20787923706E+03  0.10449911448E+03 -0.64058103598E+02  0.29531601236E+03  0.17021828453E+03 0.  0.
         24    2    5    5    0    0  0.63642838380E+02  0.99250367961E+02 -0.22767491985E+02  0.14512049760E+03  0.81489592679E+02 0.  0.
          5    1    5    5  501    0  0.14423639868E+03  0.52487465180E+01 -0.41290611613E+02  0.15019551476E+03  0.47000000000E+01 0. -1.
        -11    1    6    6    0    0  0.26446496057E+02  0.60493606457E+02 -0.51929152533E+02  0.83997205065E+02  0.00000000000E+00 0.  1.
         12    1    6    6    0    0  0.37196342322E+02  0.38756761504E+02  0.29161660548E+02  0.61123292535E+02  0.00000000000E+00 0. -1.
         -5    1    3    3    0  503 -0.36292355095E+02 -0.50140131236E+02  0.84408246756E+02  0.10477599877E+03  0.47000000000E+01 0.  1.
         13    1    4    4    0    0 -0.10605014757E+03 -0.60388557775E+02 -0.26396798683E+02  0.12486073318E+03  0.00000000000E+00 0. -1.
        -14    1    4    4    0    0 -0.65536734404E+02  0.60295745325E+01  0.28499909279E+02  0.71719342958E+02  0.00000000000E+00 0.  1.
</event>
<event>
12    1  0.8133506E-002  0.2178173E+03  0.7818608E-02  0.1135655E+00
         21   -1    0    0  503  502  0.00000000000E+00  0.00000000000E+00  0.56423939449E+03  0.56423939449E+03  0.00000000000E+00 0. -1.
         21   -1    0    0  501  503 -0.00000000000E+00 -0.00000000000E+00 -0.19807897922E+03  0.19807897922E+03  0.00000000000E+00 0. -1.
          6    2    1    2  501    0 -0.44716361942E+02  0.12508201866E+03 -0.10654590080E+03  0.24184203454E+03  0.17172791351E+03 0.  0.
         24    2    3    3    0    0 -0.22669636017E+02 -0.57099660824E+01 -0.40951973471E+02  0.93797261929E+02  0.81082341507E+02 0.  0.
         -6    2    1    2    0  502  0.44716361942E+02 -0.12508201866E+03  0.47270631607E+03  0.52047633917E+03  0.17262472004E+03 0.  0.
        -24    2    5    5    0    0  0.50029523235E+02 -0.18889180971E+01  0.19480875761E+03  0.21641398914E+03  0.79862641126E+02 0.  0.
          5    1    3    3  501    0 -0.22046725924E+02  0.13079198474E+03 -0.65593927330E+02  0.14804477262E+03  0.47000000000E+01 0. -1.
        -11    1    4    4    0    0  0.29921404798E+02 -0.20965640944E+01 -0.24027986390E+02  0.38432150291E+02  0.00000000000E+00 0.  1.
         12    1    4    4    0    0 -0.52591040815E+02 -0.36134019880E+01 -0.16923987081E+02  0.55365111637E+02  0.00000000000E+00 0. -1.
         -5    1    5    5    0  502 -0.53131612934E+01 -0.12319310056E+03  0.27789755845E+03  0.30406235002E+03  0.47000000000E+01 0.  1.
         11    1    6    6    0    0  0.56681200579E+02 -0.30588483445E+02  0.14249571146E+03  0.15637596235E+03  0.00000000000E+00 0. -1.
        -12    1    6    6    0    0 -0.66516773444E+01  0.28699565348E+02  0.52313046157E+02  0.60038026790E+02  0.00000000000E+00 0.  1.
</event>
<event>
12    1  0.8133506E-002  0.2439381E+03  0.7818608E-02  0.1117231E+00
         21   -1    0    0  501  502  0.00000000000E+00  0.00000000000E+00  0.15625141093E+03  0.15625141093E+03  0.00000000000E+00 0. -1.
         21   -1    0    0  502  503 -0.00000000000E+00 -0.00000000000E+00 -0.43441863433E+03  0.43441863433E+03  0.00000000000E+00 0.  1.
         -6    2    1    2    0  503 -0.91298952214E+02  0.14797895829E+03 -0.24318013104E+03  0.34444500365E+03  0.17109212033E+03 0.  0.
        -24    2    3    3    0    0 -0.51691046265E+02  0.17206960903E+03 -0.20856111056E+03  0.28639578104E+03  0.79024628715E+02 0.  0.
          6    2    1    2  501    0  0.91298952214E+02 -0.14797895829E+03 -0.34987092368E+02  0.24622504161E+03  0.17079052582E+03 0.  0.
         24    2    5    5    0    0  0.59673821064E+02 -0.51852890718E+02  0.40817037575E+02  0.11969944774E+03  0.80076463690E+02 0.  0.
          5    1    5    5  501    0  0.31625131151E+02 -0.96126067573E+02 -0.75804129943E+02  0.12652559387E+03  0.47000000000E+01 0. -1.
        -13    1    6    6    0    0  0.48077910073E+02 -0.45673852927E+02 -0.10131579179E+02  0.67083792192E+02  0.00000000000E+00 0.  1.
         14    1    6    6    0    0  0.11595910991E+02 -0.61790377910E+01  0.50948616755E+02  0.52615655550E+02  0.00000000000E+00 0. -1.
         -5    1    3    3    0  503 -0.39607905950E+02 -0.24090650743E+02 -0.34619020476E+02  0.58049222610E+02  0.47000000000E+01 0.  1.
         13    1    4    4    0    0 -0.29157794195E+02  0.13188343815E+02 -0.16136300031E+02  0.35839776137E+02  0.00000000000E+00 0. -1.
        -14    1    4    4    0    0 -0.22533252070E+02  0.15888126522E+03 -0.19242481053E+03  0.25055600490E+03  0.00000000000E+00 0.  1.
</event>
<event>
12    1  0.8133506E-002  0.2519018E+03  0.7818608E-02  0.1112428E+00
         21   -1    0    0  501  502  0.00000000000E+00  0.00000000000E+00  0.12511239703E+04  0.12511239703E+04  0.00000000000E+00 0. -1.
         21   -1    0    0  502  503 -0.00000000000E+00 -0.00000000000E+00 -0.22514984569E+03  0.22514984569E+03  0.00000000000E+00 0. -1.
         -6    2    1    2    0  503  0.15716265974E+03  0.94329449287E+02 -0.13793525569E+03  0.28541717149E+03  0.16981955247E+03 0.  0.
        -24    2    3    3    0    0  0.71892709414E+02  0.11095972586E+03 -0.50584733743E+02  0.16212996935E+03  0.79035999668E+02 0.  0.
          6    2    1    2  501    0 -0.15716265974E+03 -0.94329449287E+02  0.11639093803E+04  0.11908566445E+04  0.17278991747E+03 0.  0.
         24    2    5    5    0    0 -0.94540486879E+01 -0.52542615717E+02  0.36375115284E+03  0.37609333395E+03  0.79253953524E+02 0.  0.
          5    1    5    5  501    0 -0.14770861105E+03 -0.41786833571E+02  0.80015822741E+03  0.81476331050E+03  0.47000000000E+01 0. -1.
        -13    1    6    6    0    0  0.54180848143E+01  0.19340905889E+02  0.11486275012E+03  0.11660565016E+03  0.00000000000E+00 0.  1.
         14    1    6    6    0    0 -0.14872133502E+02 -0.71883521605E+02  0.24888840272E+03  0.25948768379E+03  0.00000000000E+00 0. -1.
         -5    1    3    3    0  503  0.85269950328E+02 -0.16630276572E+02 -0.87350521948E+02  0.12328720214E+03  0.47000000000E+01 0.  1.
         13    1    4    4    0    0  0.59108973853E+02  0.35972131739E+02 -0.51167967632E+02  0.86058270743E+02  0.00000000000E+00 0. -1.
        -14    1    4    4    0    0  0.12783735561E+02  0.74987594121E+02  0.58323388907E+00  0.76071698605E+02  0.00000000000E+00 0.  1.
</event>
<event>
12    1  0.8133506E-002  0.2683337E+03  0.7818608E-02  0.1102282E+00
         21   -1    0    0  501  502  0.00000000000E+00  0.00000000000E+00  0.13939197315E+03  0.13939197315E+03  0.00000000000E+00 0. -1.
         21   -1    0    0  502  503 -0.00000000000E+00 -0.00000000000E+00 -0.11591600839E+04  0.11591600839E+04  0.00000000000E+00 0. -1.
         -6    2    1    2    0  503  0.17396619742E+03  0.10788720989E+03 -0.99340550577E+03  0.10289264284E+04  0.17300638199E+03 0.  0.
        -24    2    3    3    0    0  0.12765358308E+03  0.14262677204E+03 -0.70645335204E+03  0.73615463336E+03  0.78800204517E+02 0.  0.
          6    2    1    2  501    0 -0.17396619742E+03 -0.10788720989E+03 -0.26362604962E+02  0.26962562865E+03  0.17349093574E+03 0.  0.
         24    2    5    5    0    0 -0.13337671899E+03 -0.63890963380E+02  0.46699453592E+02  0.17505644833E+03  0.81194314873E+02 0.  0.
          5    1    5    5  501    0 -0.40589478428E+02 -0.43996246506E+02 -0.73062058554E+02  0.94569180317E+02  0.47000000000E+01 0. -1.
        -13    1    6    6    0    0 -0.20204654203E+01  0.91939346932E+01  0.20382088963E+02  0.22450841101E+02  0.00000000000E+00 0.  1.
         14    1    6    6    0    0 -0.13135625357E+03 -0.73084898073E+02  0.26317364630E+02  0.15260560723E+03  0.00000000000E+00 0. -1.
         -5    1    3    3    0  503  0.46312614339E+02 -0.34739562154E+02 -0.28695215373E+03  0.29277179501E+03  0.47000000000E+01 0.  1.
         11    1    4    4    0    0  0.80900242577E+02  0.11911774936E+03 -0.60617738982E+03  0.62304487430E+03  0.00000000000E+00 0. -1.
        -12    1    4    4    0    0  0.46753340500E+02  0.23509022681E+02 -0.10027596222E+03  0.11310975906E+03  0.00000000000E+00 0.  1.
</event>
<event>
12    1  0.8133506E-002  0.1934025E+03  0.7818608E-02  0.1155607E+00
         21   -1    0    0  501  502  0.00000000000E+00  0.00000000000E+00  0.20056363932E+03  0.20056363932E+03  0.00000000000E+00 0. -1.
         21   -1    0    0  502  503 -0.00000000000E+00 -0.00000000000E+00 -0.59992397243E+03  0.59992397243E+03  0.00000000000E+00 0. -1.
         -6    2    1    2    0  503  0.46578527525E+02 -0.74175046545E+02 -0.53238308339E+03  0.56642412349E+03  0.17243272147E+03 0.  0.
        -24    2    3    3    0    0  0.51117905594E+02 -0.11543595679E+03 -0.37607263158E+03  0.40462759691E+03  0.79714287085E+02 0.  0.
          6    2    1    2  501    0 -0.46578527525E+02  0.74175046545E+02  0.13302275028E+03  0.23406348826E+03  0.17152016700E+03 0.  0.
         24    2    5    5    0    0  0.20582529712E+02 -0.63886162030E+01  0.87690049415E+02  0.11970328919E+03  0.78580390236E+02 0.  0.
          5    1    5    5  501    0 -0.67161057237E+02  0.80563662748E+02  0.45332700865E+02  0.11436019907E+03  0.47000000000E+01 0. -1.
        -11    1    6    6    0    0 -0.42425484035E+01 -0.37595338470E+02  0.24804011840E+02  0.45239890528E+02  0.00000000000E+00 0.  1.
         12    1    6    6    0    0  0.24825078116E+02  0.31206722267E+02  0.62886037575E+02  0.74463398660E+02  0.00000000000E+00 0. -1.
         -5    1    3    3    0  503 -0.45393780690E+01  0.41260910248E+02 -0.15631045181E+03  0.16179652658E+03  0.47000000000E+01 0.  1.
         11    1    4    4    0    0  0.12684549764E+02 -0.23116184476E+02 -0.15811506197E+02  0.30745073030E+02  0.00000000000E+00 0. -1.
        -12    1    4    4    0    0  0.38433355830E+02 -0.92319772317E+02 -0.36026112538E+03  0.37388252388E+03  0.00000000000E+00 0.  1.
</event>
<event>
12    1  0.8133506E-002  0.2077091E+03  0.7818608E-02  0.1143698E+00
         21   -1    0    0  503  502  0.00000000000E+00  0.00000000000E+00  0.38555645837E+02  0.38555645837E+02  0.00000000000E+00 0. -1.
         21   -1    0    0  501  503 -0.00000000000E+00 -0.00000000000E+00 -0.11118116473E+04  0.11118116473E+04  0.00000000000E+00 0.  1.
          6    2    1    2  501    0 -0.11552445613E+03  0.14814436702E+02 -0.51778840702E+03  0.55733496955E+03  0.17015306738E+03 0.  0.
         24    2    3    3    0    0  0.31496625957E+01 -0.94904226666E+01 -0.16659370535E+03  0.18580558831E+03  0.81671693308E+02 0.  0.
         -6    2    1    2    0  502  0.11552445613E+03 -0.14814436702E+02 -0.55546759444E+03  0.59303232359E+03  0.17198174568E+03 0.  0.
        -24    2    5    5    0    0  0.57300205324E+02 -0.39212720716E+02 -0.15503995356E+03  0.18763162647E+03  0.79669875450E+02 0.  0.
          5    1    3    3  501    0 -0.11867411872E+03  0.24304859368E+02 -0.35119470167E+03  0.37152938124E+03  0.47000000000E+01 0. -1.
        -13    1    4    4    0    0 -0.17711756650E+02  0.27367588359E+02 -0.11236454009E+03  0.11699778239E+03  0.00000000000E+00 0.  1.
         14    1    4    4    0    0  0.20861419246E+02 -0.36858011026E+02 -0.54229165263E+02  0.68807805915E+02  0.00000000000E+00 0. -1.
         -5    1    5    5    0  502  0.58224250801E+02  0.24398284014E+02 -0.40042764088E+03  0.40540069712E+03  0.47000000000E+01 0.  1.
         11    1    6    6    0    0  0.64149589666E+01  0.59751894344E+01  0.74255261933E+01  0.11488821809E+02  0.00000000000E+00 0. -1.
        -12    1    6    6    0    0  0.50885246357E+02 -0.45187910150E+02 -0.16246547976E+03  0.17614280466E+03  0.00000000000E+00 0.  1.
</event>
<event>
12    1  0.8133506E-002  0.1913824E+03  0.7818608E-02  0.1157287E+00
         21   -1    0    0  503  502  0.00000000000E+00  0.00000000000E+00  0.75313691022E+03  0.75313691022E+03  0.00000000000E+00 0.  1.
         21   -1    0    0  501  503 -0.00000000000E+00 -0.00000000000E+00 -0.60008122614E+02  0.60008122614E+02  0.00000000000E+00 0.  1.
          6    2    1    2  501    0  0.30155221146E+02  0.77131631251E+02  0.16917646322E+03  0.25543669914E+03  0.17253580978E+03 0.  0.
         24    2    3    3    0    0  0.36485512618E+02  0.11301823136E+03  0.16459656750E+03  0.21840986964E+03  0.80663051476E+02 0.  0.
         -6    2    1    2    0  502 -0.30155221146E+02 -0.77131631251E+02  0.52395232439E+03  0.55770833370E+03  0.17220313977E+03 0.  0.
        -24    2    5    5    0    0  0.16266294904E+02 -0.21742704761E+01  0.12006858113E+03  0.14428635659E+03  0.78311996033E+02 0.  0.
          5    1    3    3  501    0 -0.63302914719E+01 -0.35886600109E+02  0.45798957195E+01  0.37026829493E+02  0.47000000000E+01 0. -1.
        -11    1    4    4    0    0 -0.35334338989E+01  0.57082996860E+01 -0.85140605842E+01  0.10842465958E+02  0.00000000000E+00 0.  1.
         12    1    4    4    0    0  0.40018946516E+02  0.10730993167E+03  0.17311062808E+03  0.20756740368E+03  0.00000000000E+00 0. -1.
         -5    1    5    5    0  502 -0.46421516049E+02 -0.74957360775E+02  0.40388374326E+03  0.41342197711E+03  0.47000000000E+01 0.  1.
         11    1    6    6    0    0 -0.12379516093E+01  0.23763094984E+02  0.10825489832E+03  0.11083925396E+03  0.00000000000E+00 0. -1.
        -12    1    6    6    0    0  0.17504246513E+02 -0.25937365460E+02  0.11813682803E+02  0.33447102631E+02  0.00000000000E+00 0.  1.
</event>
<event>
12    1  0.8133506E-002  0.2079506E+03  0.7818608E-02  0.1143297E+00
         21   -1    0    0  501  502  0.00000000000E+00  0.00000000000E+00  0.83980468264E+02  0.83980468264E+02  0.00000000000E+00 0. -1.
         21   -1    0    0  502  503 -0.00000000000E+00 -0.00000000000E+00 -0.79792545721E+03  0.79792545721E+03  0.00000000000E+00 0. -1.
         -6    2    1    2    0  503 -0.10124104563E+03  0.54616147941E+02 -0.62040768517E+03  0.65433106618E+03  0.17323618392E+03 0.  0.
        -24    2    3    3    0    0 -0.12521975612E+03  0.37296928382E+02 -0.59749636664E+03  0.61662228154E+03  0.78422456939E+02 0.  0.
          6    2    1    2  501    0  0.10124104563E+03 -0.54616147941E+02 -0.93537303780E+02  0.22757485929E+03  0.17265114088E+03 0.  0.
         24    2    5    5    0    0  0.53267353971E+02  0.37892539971E+02 -0.49773648160E+02  0.11445244779E+03  0.79678674499E+02 0.  0.
          5    1    5    5  501    0  0.47973691662E+02 -0.92508687911E+02 -0.43763655620E+02  0.11312241150E+03  0.47000000000E+01 0. -1.
        -11    1    6    6    0    0 -0.19438636641E+02  0.56683598972E+01  0.70006871759E+00  0.20260330565E+02  0.00000000000E+00 0.  1.
         12    1    6    6    0    0  0.72705990612E+02  0.32224180073E+02 -0.50473716877E+02  0.94192117227E+02  0.00000000000E+00 0. -1.
         -5    1    3    3    0  503  0.23978710484E+02  0.17319219559E+02 -0.22911318523E+02  0.37708784640E+02  0.47000000000E+01 0.  1.
         11    1    4    4    0    0 -0.87895824410E+02  0.36013166069E+02 -0.53839678074E+03  0.54671173171E+03  0.00000000000E+00 0. -1.
        -12    1    4    4    0    0 -0.37323931707E+02  0.12837623126E+01 -0.59099585908E+02  0.69910549835E+02  0.00000000000E+00 0.  1.
</event>
<event>
12    1  0.8133506E-002  0.2587266E+03  0.7818608E-02  0.1108197E+00
         21   -1    0    0  503  502  0.00000000000E+00  0.00000000000E+00  0.39003897898E+03  0.39003897898E+03  0.00000000000E+00 0. -1.
         21   -1    0    0  501  503 -0.00000000000E+00 -0.00000000000E+00 -0.32763687768E+03  0.32763687768E+03  0.00000000000E+00 0. -1.
          6    2    1    2  501    0 -0.17741229283E+03 -0.71633307826E+02 -0.21746536158E+03  0.33653909495E+03  0.17135030350E+03 0.  0.
         24    2    3    3    0    0 -0.13082561778E+03 -0.32349192048E+02 -0.22668056836E+03  0.27472833472E+03  0.77004969528E+02 0.  0.
         -6    2    1    2    0  502  0.17741229283E+03  0.71633307826E+02  0.27986746287E+03  0.38113676170E+03  0.17416366414E+03 0.  0.
        -24    2    5    5    0    0  0.81308463887E+02  0.58737846492E+02  0.24718268298E+03  0.27870325303E+03  0.80715695980E+02 0.  0.
          5    1    3    3  501    0 -0.46586675048E+02 -0.39284115778E+02  0.92152067836E+01  0.61810760233E+02  0.47000000000E+01 0. -1.
        -11    1    4    4    0    0  0.57166320503E+01  0.10588489861E+00 -0.43952840514E+02  0.44323168692E+02  0.00000000000E+00 0.  1.
         12    1    4    4    0    0 -0.13654224983E+03 -0.32455076947E+02 -0.18272772785E+03  0.23040516603E+03  0.00000000000E+00 0. -1.
         -5    1    5    5    0  502  0.96103828945E+02  0.12895461334E+02  0.32684779899E+02  0.10243350867E+03  0.47000000000E+01 0.  1.
         13    1    6    6    0    0  0.95954797177E+02  0.45766729192E+02  0.18336857988E+03  0.21195743131E+03  0.00000000000E+00 0. -1.
        -14    1    6    6    0    0 -0.14646333290E+02  0.12971117299E+02  0.63814103098E+02  0.66745821719E+02  0.00000000000E+00 0.  1.
</event>
<event>
12    1  0.8133506E-002  0.1821163E+03  0.7818608E-02  0.1166583E+00
         21   -1    0    0  501  502  0.00000000000E+00  0.00000000000E+00  0.11723754431E+04  0.11723754431E+04  0.00000000000E+00 0.  1.
         21   -1    0    0  502  503 -0.00000000000E+00 -0.00000000000E+00 -0.34539815749E+02  0.34539815749E+02  0.00000000000E+00 0.  1.
         -6    2    1    2    0  503  0.43768604945E+02 -0.17563485873E+02  0.29744785786E+03  0.34702111394E+03  0.17240724625E+03 0.  0.
        -24    2    3    3    0    0  0.75258892330E+02  0.13170276279E+02  0.11835944170E+03  0.16254631041E+03  0.81086303003E+02 0.  0.
          6    2    1    2  501    0 -0.43768604945E+02  0.17563485873E+02  0.84038776947E+03  0.85989414489E+03  0.17590386729E+03 0.  0.
         24    2    5    5    0    0 -0.33860402944E+02 -0.22804058452E+02  0.20768714731E+03  0.22581222716E+03  0.78680739771E+02 0.  0.
          5    1    5    5  501    0 -0.99082020006E+01  0.40367544324E+02  0.63270062216E+03  0.63408191772E+03  0.47000000000E+01 0. -1.
        -11    1    6    6    0    0 -0.58388055553E+02 -0.25958034203E+02  0.15146240880E+03  0.16438931185E+03  0.00000000000E+00 0.  1.
         12    1    6    6    0    0  0.24527652609E+02  0.31539757511E+01  0.56224738510E+02  0.61422915317E+02  0.00000000000E+00 0. -1.
         -5    1    3    3    0  503 -0.31490287386E+02 -0.30733762152E+02  0.17908841616E+03  0.18447480353E+03  0.47000000000E+01 0.  1.
         11    1    4    4    0    0  0.98046751402E+01 -0.29342999719E+02  0.49979202648E+02  0.58779792313E+02  0.00000000000E+00 0. -1.
        -12    1    4    4    0    0  0.65454217190E+02  0.42513275998E+02  0.68380239052E+02  0.10376651809E+03  0.00000000000E+00 0.  1.
</event>
<event>
12    1  0.8133506E-002  0.2300950E+03  0.7818608E-02  0.1126738E+00
         21   -1    0    0  501  502  0.00000000000E+00  0.00000000000E+00  0.14545698692E+04  0.14545698692E+04  0.00000000000E+00 0. -1.
         21   -1    0    0  502  503 -0.00000000000E+00 -0.00000000000E+00 -0.87113470063E+02  0.87113470063E+02  0.00000000000E+00 0.  1.
         -6    2    1    2    0  503 -0.37336841713E+02  0.14808956951E+03  0.95295508206E+02  0.24904807744E+03  0.17210215177E+03 0.  0.
        -24    2    3    3    0    0 -0.21920451682E+02  0.54202353543E+02  0.11837155855E+03  0.15103242306E+03  0.73352338826E+02 0.  0.
          6    2    1    2  501    0  0.37336841713E+02 -0.14808956951E+03  0.12721608909E+04  0.12926352618E+04  0.17084503899E+03 0.  0.
         24    2    5    5    0    0  0.45166571049E+02 -0.43280862627E+02  0.90679512617E+03  0.91242426546E+03  0.79544874983E+02 0.  0.
          5    1    5    5  501    0 -0.78297293357E+01 -0.10480870688E+03  0.36536576478E+03  0.38021099638E+03  0.47000000000E+01 0. -1.
        -13    1    6    6    0    0  0.10596115816E+02 -0.17241387749E+02  0.73441978610E+03  0.73469855406E+03  0.00000000000E+00 0.  1.
         14    1    6    6    0    0  0.34570455233E+02 -0.26039474878E+02  0.17237534007E+03  0.17772571140E+03  0.00000000000E+00 0. -1.
         -5    1    3    3    0  503 -0.15416390031E+02  0.93887215969E+02 -0.23076050340E+02  0.98015654379E+02  0.47000000000E+01 0.  1.
         11    1    4    4    0    0 -0.30980461130E+02 -0.56826675683E+01  0.54945327207E+02  0.63333014017E+02  0.00000000000E+00 0. -1.
        -12    1    4    4    0    0  0.90600094479E+01  0.59885021111E+02  0.63426231339E+02  0.87699409044E+02  0.00000000000E+00 0.  1.
</event>
<event>
12    1  0.8133506E-002  0.1951043E+03  0.7818608E-02  0.1154098E+00
         21   -1    0    0  503  502  0.00000000000E+00  0.00000000000E+00  0.24653071928E+03  0.24653071928E+03  0.00000000000E+00 0. -1.
         21   -1    0    0  501  503 -0.00000000000E+00 -0.00000000000E+00 -0.31990529127E+03  0.31990529127E+03  0.00000000000E+00 0. -1.
          6    2    1    2  501    0 -0.50900982209E+02  0.73499044154E+02 -0.24078764948E+03  0.30991030105E+03  0.17341477179E+03 0.  0.
         24    2    3    3    0    0 -0.67018219220E+01  0.10024979409E+03 -0.21813852406E+03  0.25330428305E+03  0.80521478479E+02 0.  0.
         -6    2    1    2    0  502  0.50900982209E+02 -0.73499044154E+02  0.16741307749E+03  0.25652570951E+03  0.17258412917E+03 0.  0.
        -24    2    5    5    0    0  0.32726588818E+02 -0.11966842091E+03  0.12833419948E+03  0.19319192206E+03  0.73904610246E+02 0.  0.
          5    1    3    3  501    0 -0.44199160287E+02 -0.26750749937E+02 -0.22649125415E+02  0.56606018005E+02  0.47000000000E+01 0. -1.
        -11    1    4    4    0    0 -0.14112173017E+02  0.28163038364E+02 -0.10217280766E+02  0.33116506208E+02  0.00000000000E+00 0.  1.
         12    1    4    4    0    0  0.74103510951E+01  0.72086755727E+02 -0.20792124330E+03  0.22018777684E+03  0.00000000000E+00 0. -1.
         -5    1    5    5    0  502  0.18174393391E+02  0.46169376759E+02  0.39078878013E+02  0.63333787446E+02  0.47000000000E+01 0.  1.
         11    1    6    6    0    0 -0.11907390520E+02 -0.86626083880E+02  0.91442920295E+02  0.12652142913E+03  0.00000000000E+00 0. -1.
        -12    1    6    6    0    0  0.44633979337E+02 -0.33042337033E+02  0.36891279181E+02  0.66670492931E+02  0.00000000000E+00 0.  1.
</event>
<event>
12    1  0.8133506E-002  0.1997121E+03  0.7818608E-02  0.1152742E+00
         21   -1    0    0  503  502  0.00000000000E+00  0.00000000000E+00  0.23684017194E+03  0.23684017194E+03  0.00000000000E+00 0.  1.
         21   -1    0    0  501  503 -0.00000000000E+00 -0.00000000000E+00 -0.15865000559E+03  0.15865000559E+03  0.00000000000E+00 0.  1.
          6    2    1    2  501    0  0.50360051894E+02 -0.32082645372E+02  0.53625035002E+02  0.20678632646E+03  0.19057678104E+03 0.  0.
         24    2    3    3    0    0  0.64046197541E+02 -0.12306782738E+02 -0.40783228906E+02  0.10924963788E+03  0.77581178750E+02 0.  0.
         -6    2    1    2    0  502 -0.50360051894E+02  0.32082645372E+02  0.24565131347E+02  0.18870385107E+03  0.17731403433E+03 0.  0.
        -24    2    5    5    0    0 -0.11469000979E+02  0.23454613625E+02 -0.54487639295E+02  0.10005630559E+03  0.79754025407E+02 0.  0.
          5    1    3    3  501    0 -0.13686145647E+02 -0.19775862635E+02  0.94408263908E+02  0.97536688583E+02  0.47000000000E+01 0. -1.
        -13    1    4    4    0    0  0.59712118640E+02 -0.63668802415E+01  0.74033815553E+01  0.60505242210E+02  0.00000000000E+00 0.  1.
         14    1    4    4    0    0  0.43340789016E+01 -0.59399024963E+01 -0.48186610461E+02  0.48744395671E+02  0.00000000000E+00 0. -1.
         -5    1    5    5    0  502 -0.38891050915E+02  0.86280317475E+01  0.79052770642E+02  0.88647545478E+02  0.47000000000E+01 0.  1.
         11    1    6    6    0    0  0.30695539046E+02  0.42212547226E+01 -0.41754342854E+02  0.51994809894E+02  0.00000000000E+00 0. -1.
        -12    1    6    6    0    0 -0.42164540026E+02  0.19233358902E+02 -0.12733296442E+02  0.48061495696E+02  0.00000000000E+00 0.  1.
</event>
<event>
12    1  0.8133506E-002  0.1790669E+03  0.7818608E-02  0.1168958E+00
         21   -1    0    0  503  502  0.00000000000E+00  0.00000000000E+00  0.11910893611E+03  0.11910893611E+03  0.00000000000E+00 0. -1.
         21   -1    0    0  501  503 -0.00000000000E+00 -0.00000000000E+00 -0.27248766849E+03  0.27248766849E+03  0.00000000000E+00 0. -1.
          6    2    1    2  501    0 -0.37697521879E+02 -0.21746765002E+02 -0.10249326626E+03  0.20543997211E+03  0.17264613395E+03 0.  0.
         24    2    3    3    0    0 -0.55054758362E+02  0.45715542716E+02 -0.59490402046E+02  0.12344135657E+03  0.81103164619E+02 0.  0.
         -6    2    1    2    0  502  0.37697521879E+02  0.21746765002E+02 -0.50885466115E+02  0.18615663249E+03  0.17369783019E+03 0.  0.
        -24    2    5    5    0    0 -0.31379577346E+02  0.52105416706E+02 -0.49231267786E+02  0.11053838242E+03  0.78072811762E+02 0.  0.
          5    1    3    3  501    0  0.17357236483E+02 -0.67462307718E+02 -0.43002864212E+02  0.81998615545E+02  0.47000000000E+01 0. -1.
        -11    1    4    4    0    0 -0.56867000096E+02  0.95349881633E+01 -0.64899022221E+02  0.86813908934E+02  0.00000000000E+00 0.  1.
         12    1    4    4    0    0  0.18122417338E+01  0.36180554552E+02  0.54086201754E+01  0.36627447632E+02  0.00000000000E+00 0. -1.
         -5    1    5    5    0  502  0.69077099225E+02 -0.30358651704E+02 -0.16541983289E+01  0.75618250064E+02  0.47000000000E+01 0.  1.
         13    1    6    6    0    0 -0.11406820166E+01  0.43239946027E+02  0.91347810937E+01  0.44209029774E+02  0.00000000000E+00 0. -1.
        -14    1    6    6    0    0 -0.30238895329E+02  0.88654706784E+01 -0.58366048880E+02  0.66329352649E+02  0.00000000000E+00 0.  1.
</event>
<event>
12    1  0.8133506E-002  0.2012948E+03  0.7818608E-02  0.1152794E+00
         21   -1    0    0  501  502  0.00000000000E+00  0.00000000000E+00  0.48637188291E+03  0.48637188291E+03  0.00000000000E+00 0. -1.
         21   -1    0    0  502  503 -0.00000000000E+00 -0.00000000000E+00 -0.77548557862E+02  0.77548557862E+02  0.00000000000E+00 0. -1.
         -6    2    1    2    0  503  0.38591426748E+02 -0.46505757551E+02  0.25752149017E+03  0.32685917491E+03  0.19200916285E+03 0.  0.
        -24    2    3    3    0    0  0.55712985248E+02  0.45657567193E+02  0.14244178468E+03  0.17835781192E+03  0.79582013560E+02 0.  0.
          6    2    1    2  501    0 -0.38591426748E+02  0.46505757551E+02  0.15130183488E+03  0.23706126587E+03  0.17220254015E+03 0.  0.
         24    2    5    5    0    0 -0.57639225452E+02  0.22457584158E+02  0.20866577771E+02  0.10298449840E+03  0.79647783680E+02 0.  0.
          5    1    5    5  501    0  0.19047798704E+02  0.24048173392E+02  0.13043525711E+03  0.13407676747E+03  0.47000000000E+01 0. -1.
        -13    1    6    6    0    0 -0.78686991387E+01 -0.28380359146E+02  0.94459163086E+01  0.30928733345E+02  0.00000000000E+00 0.  1.
         14    1    6    6    0    0 -0.49770526313E+02  0.50837943305E+02  0.11420661462E+02  0.72055765052E+02  0.00000000000E+00 0. -1.
         -5    1    3    3    0  503 -0.17121558500E+02 -0.92163324744E+02  0.11507970549E+03  0.14850136299E+03  0.47000000000E+01 0.  1.
         11    1    4    4    0    0  0.96031396985E+01 -0.22191920388E+02  0.22391019684E+02  0.32955415110E+02  0.00000000000E+00 0. -1.
        -12    1    4    4    0    0  0.46109845549E+02  0.67849487581E+02  0.12005076500E+03  0.14540239681E+03  0.00000000000E+00 0.  1.
</event>
<event>
12    1  0.8133506E-002  0.2632257E+03  0.7818608E-02  0.1105343E+00
         21   -1    0    0  503  502  0.00000000000E+00  0.00000000000E+00  0.19557573682E+03  0.19557573682E+03  0.00000000000E+00 0. -1.
         21   -1    0    0  501  503 -0.00000000000E+00 -0.00000000000E+00 -0.48567187426E+03  0.48567187426E+03  0.00000000000E+00 0.  1.
          6    2    1    2  501    0 -0.97589238463E+02 -0.17319988025E+03 -0.32280259270E+03  0.41599780042E+03  0.17126236633E+03 0.  0.
         24    2    3    3    0    0 -0.14614637852E+02 -0.86590769995E+02 -0.25407089780E+03  0.27767911691E+03  0.69585356012E+02 0.  0.
         -6    2    1    2    0  502  0.97589238463E+02  0.17319988025E+03  0.32706455256E+02  0.26524981067E+03  0.17252794516E+03 0.  0.
        -24    2    5    5    0    0  0.62667551716E+02  0.21566728834E+02  0.44789748600E+01  0.10703787223E+03  0.83932705461E+02 0.  0.
          5    1    3    3  501    0 -0.82974600611E+02 -0.86609110254E+02 -0.68731694900E+02  0.13831868351E+03  0.47000000000E+01 0. -1.
        -11    1    4    4    0    0 -0.19692395668E+02 -0.55133205410E+02 -0.71795219067E+02  0.92639161626E+02  0.00000000000E+00 0.  1.
         12    1    4    4    0    0  0.50777578153E+01 -0.31457564584E+02 -0.18227567873E+03  0.18503995528E+03  0.00000000000E+00 0. -1.
         -5    1    5    5    0  502  0.34921686747E+02  0.15163315141E+03  0.28227480396E+02  0.15821193843E+03  0.47000000000E+01 0.  1.
         13    1    6    6    0    0 -0.55945110957E+01  0.36080670571E+02  0.71215683237E+01  0.37199866648E+02  0.00000000000E+00 0. -1.
        -14    1    6    6    0    0  0.68262062812E+02 -0.14513941737E+02 -0.26425934636E+01  0.69838005586E+02  0.00000000000E+00 0.  1.
</event>
<event>
12    1  0.8133506E-002  0.2078704E+03  0.7818608E-02  0.1147425E+00
         21   -1    0    0  501  502  0.00000000000E+00  0.00000000000E+00  0.74784554352E+03  0.74784554352E+03  0.00000000000E+00 0.  1.
         21   -1    0    0  502  503 -0.00000000000E+00 -0.00000000000E+00 -0.10235736067E+03  0.10235736067E+03  0.00000000000E+00 0.  1.
         -6    2    1    2    0  503 -0.63738458045E+02 -0.41898733220E+02  0.17857790267E+02  0.18904481835E+03  0.17204925978E+03 0.  0.
        -24    2    3    3    0    0 -0.42028047418E+02 -0.57475895232E+02  0.71717704075E+02  0.12873752011E+03  0.79750139203E+02 0.  0.
          6    2    1    2  501    0  0.63738458045E+02  0.41898733220E+02  0.62763039258E+03  0.66115808584E+03  0.19337013706E+03 0.  0.
         24    2    5    5    0    0 -0.16022618737E+02  0.54642707626E+02  0.50388822302E+03  0.51331204166E+03  0.79645219614E+02 0.  0.
          5    1    5    5  501    0  0.79761076782E+02 -0.12743974406E+02  0.12374216956E+03  0.14784604419E+03  0.47000000000E+01 0. -1.
        -13    1    6    6    0    0  0.27468464922E+02  0.32301709266E+02  0.32888191760E+03  0.33160403000E+03  0.00000000000E+00 0.  1.
         14    1    6    6    0    0 -0.43491083659E+02  0.22340998360E+02  0.17500630542E+03  0.18170801166E+03  0.00000000000E+00 0. -1.
         -5    1    3    3    0  503 -0.21710410627E+02  0.15577162012E+02 -0.53859913808E+02  0.60307298243E+02  0.47000000000E+01 0.  1.
         11    1    4    4    0    0 -0.65472135686E+02 -0.49727019114E+02  0.54690554182E+02  0.98744284381E+02  0.00000000000E+00 0. -1.
        -12    1    4    4    0    0  0.23444088268E+02 -0.77488761180E+01  0.17027149893E+02  0.29993235726E+02  0.00000000000E+00 0.  1.
</event>
<event>
12    1  0.8133506E-002  0.1751372E+03  0.7818608E-02  0.1172668E+00
         21   -1    0    0  503  502  0.00000000000E+00  0.00000000000E+00  0.47749473331E+03  0.47749473331E+03  0.00000000000E+00 0. -1.
         21   -1    0    0  501  503 -0.00000000000E+00 -0.00000000000E+00 -0.13973784298E+03  0.13973784298E+03  0.00000000000E+00 0. -1.
          6    2    1    2  501    0  0.29407560369E+02 -0.76672933395E+01 -0.58067545135E+02  0.18451252676E+03  0.17248026188E+03 0.  0.
         24    2    3    3    0    0 -0.34286635742E+02 -0.97711448710E+01 -0.79103569629E+02  0.11723711419E+03  0.78842358876E+02 0.  0.
         -6    2    1    2    0  502 -0.29407560369E+02  0.76672933395E+01  0.39582443546E+03  0.43272004953E+03  0.17218032862E+03 0.  0.
        -24    2    5    5    0    0 -0.70374852083E+02  0.42512545681E+02  0.20618998268E+03  0.23555051262E+03  0.78802275951E+02 0.  0.
          5    1    3    3  501    0  0.63694196111E+02  0.21038515314E+01  0.21036024495E+02  0.67275412567E+02  0.47000000000E+01 0. -1.
        -13    1    4    4    0    0 -0.49881607996E+02 -0.24944615469E+02 -0.29547583056E+02  0.63114723493E+02  0.00000000000E+00 0.  1.
         14    1    4    4    0    0  0.15594972255E+02  0.15173470598E+02 -0.49555986573E+02  0.54122390698E+02  0.00000000000E+00 0. -1.
         -5    1    5    5    0  502  0.40967291714E+02 -0.34845252341E+02  0.18963445279E+03  0.19716953691E+03  0.47000000000E+01 0.  1.
         11    1    6    6    0    0 -0.42631285145E+02  0.29616817311E+02  0.19682501600E+03  0.20355507674E+03  0.00000000000E+00 0. -1.
        -12    1    6    6    0    0 -0.27743566938E+02  0.12895728370E+02  0.93649666702E+01  0.31995435884E+02  0.00000000000E+00 0.  1.
</event>
<event>
12    1  0.8133506E-002  0.2031094E+03  0.7818608E-02  0.1150433E+00
         21   -1    0    0  503  502  0.00000000000E+00  0.00000000000E+00  0.23139787914E+03  0.23139787914E+03  0.00000000000E+00 0. -1.
         21   -1    0    0  501  503 -0.00000000000E+00 -0.00000000000E+00 -0.19594574893E+03  0.19594574893E+03  0.00000000000E+00 0. -1.
          6    2    1    2  501    0 -0.23679724669E+02 -0.70417550906E+02 -0.66375409584E+02  0.21367999557E+03  0.18903461237E+03 0.  0.
         24    2    3    3    0    0  0.57388296898E+02 -0.62220350212E+02 -0.15184312035E+02  0.11733770637E+03  0.79829727562E+02 0.  0.
         -6    2    1    2    0  502  0.23679724669E+02  0.70417550906E+02  0.10182753979E+03  0.21366363250E+03  0.17252228597E+03 0.  0.
        -24    2    5    5    0    0  0.82766630609E+01  0.99129154925E+02  0.12097188373E+03  0.17558205668E+03  0.79371087082E+02 0.  0.
          5    1    3    3  501    0 -0.81068021567E+02 -0.81972006944E+01 -0.51191097548E+02  0.96342289200E+02  0.47000000000E+01 0. -1.
        -11    1    4    4    0    0  0.52423055687E+02  0.13133487779E+01 -0.10140742655E+02  0.53411013042E+02  0.00000000000E+00 0.  1.
         12    1    4    4    0    0  0.49652412111E+01 -0.63533698990E+02 -0.50435693808E+01  0.63926693327E+02  0.00000000000E+00 0. -1.
         -5    1    5    5    0  502  0.15403061608E+02 -0.28711604019E+02 -0.19144343945E+02  0.38081575825E+02  0.47000000000E+01 0.  1.
         11    1    6    6    0    0  0.42222675745E+02  0.39584015637E+02  0.65492505504E+02  0.87400897697E+02  0.00000000000E+00 0. -1.
        -12    1    6    6    0    0 -0.33946012684E+02  0.59545139288E+02  0.55479378229E+02  0.88181158978E+02  0.00000000000E+00 0.  1.
</event>
<event>
12    1  0.8133506E-002  0.1884093E+03  0.7818608E-02  0.1160587E+00
         21   -1    0    0  503  502  0.00000000000E+00  0.00000000000E+00  0.11068750732E+04  0.11068750732E+04  0.00000000000E+00 0. -1.
         21   -1    0    0  501  503 -0.00000000000E+00 -0.00000000000E+00 -0.42809284926E+02  0.42809284926E+02  0.00000000000E+00 0. -1.
          6    2    1    2  501    0  0.64000422080E+02 -0.23773299073E+02  0.24057338027E+03  0.30557098818E+03  0.17560425322E+03 0.  0.
         24    2    3    3    0    0  0.58173180588E+02  0.91835079313E+01  0.50375270019E+02  0.11239355934E+03  0.81401404126E+02 0.  0.
         -6    2    1    2    0  502 -0.64000422080E+02  0.23773299073E+02  0.82349240801E+03  0.84411336995E+03  0.17241348991E+03 0.  0.
        -24    2    5    5    0    0 -0.91025604435E+02 -0.34487729019E+01  0.76058336102E+03  0.77028221205E+03  0.80932579587E+02 0.  0.
          5    1    3    3  501    0  0.58272414919E+01 -0.32956807004E+02  0.19019811025E+03  0.19317742884E+03  0.47000000000E+01 0. -1.
        -13    1    4    4    0    0 -0.17579367736E+02  0.71793631047E+01 -0.36389798736E+01  0.19334414889E+02  0.00000000000E+00 0.  1.
         14    1    4    4    0    0  0.75752548324E+02  0.20041448266E+01  0.54014249893E+02  0.93059144449E+02  0.00000000000E+00 0. -1.
         -5    1    5    5    0  502  0.27025182356E+02  0.27222071974E+02  0.62909046983E+02  0.73831157896E+02  0.47000000000E+01 0.  1.
         13    1    6    6    0    0 -0.17221293409E+02 -0.27188011246E+02  0.40841545438E+03  0.40968151567E+03  0.00000000000E+00 0. -1.
        -14    1    6    6    0    0 -0.73804311027E+02  0.23739238344E+02  0.35216790665E+03  0.36060069639E+03  0.00000000000E+00 0.  1.
</event>
<event>
12    1  0.8133506E-002  0.2321772E+03  0.7818608E-02  0.1125285E+00
         21   -1    0    0  503  502  0.00000000000E+00  0.00000000000E+00  0.45405066458E+02  0.45405066458E+02  0.00000000000E+00 0.  1.
         21   -1    0    0  501  503 -0.00000000000E+00 -0.00000000000E+00 -0.18021039768E+04  0.18021039768E+04  0.00000000000E+00 0.  1.
          6    2    1    2  501    0  0.15276457965E+03  0.27518825581E+02 -0.14212989385E+04  0.14401378080E+04  0.17266131836E+03 0.  0.
         24    2    3    3    0    0  0.16990040084E+03  0.57933287774E+02 -0.12244336539E+04  0.12401460427E+04  0.80635119755E+02 0.  0.
         -6    2    1    2    0  502 -0.15276457965E+03 -0.27518825581E+02 -0.33539997187E+03  0.40737123530E+03  0.17135892057E+03 0.  0.
        -24    2    5    5    0    0 -0.14014450076E+03 -0.66568006726E+01 -0.34542009143E+03  0.38059469201E+03  0.76501542045E+02 0.  0.
          5    1    3    3  501    0 -0.17135821180E+02 -0.30414462194E+02 -0.19686528462E+03  0.19999176525E+03  0.47000000000E+01 0. -1.
        -11    1    4    4    0    0  0.13117635547E+03  0.71521919542E+02 -0.10688085393E+04  0.10792007760E+04  0.00000000000E+00 0.  1.
         12    1    4    4    0    0  0.38724045368E+02 -0.13588631768E+02 -0.15562511458E+03  0.16094526676E+03  0.00000000000E+00 0. -1.
         -5    1    5    5    0  502 -0.12620078900E+02 -0.20862024908E+02  0.10020119557E+02  0.26776543291E+02  0.47000000000E+01 0.  1.
         13    1    6    6    0    0 -0.85946906274E+02 -0.36547247910E+02 -0.24982989026E+03  0.26671622766E+03  0.00000000000E+00 0. -1.
        -14    1    6    6    0    0 -0.54197594481E+02  0.29890447238E+02 -0.95590201165E+02  0.11387846435E+03  0.00000000000E+00 0.  1.
</event>
<event>
12    1  0.8133506E-002  0.2172940E+03  0.7818608E-02  0.1136349E+00
         21   -1    0    0  501  502  0.00000000000E+00  0.00000000000E+00  0.53707187444E+03  0.53707187444E+03  0.00000000000E+00 0.  1.
         21   -1    0    0  502  503 -0.00000000000E+00 -0.00000000000E+00 -0.11950189097E+03  0.11950189097E+03  0.00000000000E+00 0.  1.
         -6    2    1    2    0  503  0.13175456801E+03 -0.10779833216E+02  0.38375208207E+02  0.22065663980E+03  0.17245644403E+03 0.  0.
        -24    2    3    3    0    0  0.12207920459E+03 -0.45895144366E+02  0.73194681336E+02  0.17004850366E+03  0.80927966440E+02 0.  0.
          6    2    1    2  501    0 -0.13175456801E+03  0.10779833216E+02  0.37919477527E+03  0.43591712561E+03  0.16958653193E+03 0.  0.
         24    2    5    5    0    0 -0.42363708942E+01 -0.10061219076E+02  0.19795366805E+03  0.21328363980E+03  0.78645288129E+02 0.  0.
          5    1    5    5  501    0 -0.12751819712E+03  0.20841052292E+02  0.18124110722E+03  0.22263348580E+03  0.47000000000E+01 0. -1.
        -13    1    6    6    0    0 -0.30910999879E+02 -0.31544167657E+02  0.12779554221E+03  0.13521177847E+03  0.00000000000E+00 0.  1.
         14    1    6    6    0    0  0.26674628985E+02  0.21482948581E+02  0.70158125837E+02  0.78071861334E+02  0.00000000000E+00 0. -1.
         -5    1    3    3    0  503  0.96753634234E+01  0.35115311150E+02 -0.34819473130E+02  0.50608136140E+02  0.47000000000E+01 0.  1.
         13    1    4    4    0    0  0.42572515461E+02  0.73981316373E+01  0.59234167335E+02  0.73320106412E+02  0.00000000000E+00 0. -1.
        -14    1    4    4    0    0  0.79506689126E+02 -0.53293276004E+02  0.13960514001E+02  0.96728397248E+02  0.00000000000E+00 0.  1.
</event>
<event>
12    1  0.8133506E-002  0.2027708E+03  0.7818608E-02  0.1147512E+00
         21   -1    0    0  501  502  0.00000000000E+00  0.00000000000E+00  0.49528860844E+03  0.49528860844E+03  0.00000000000E+00 0.  1.
         21   -1    0    0  502  503 -0.00000000000E+00 -0.00000000000E+00 -0.89779404982E+02  0.89779404982E+02  0.00000000000E+00 0. -1.
         -6    2    1    2    0  503  0.10678021995E+03 -0.10020472488E+02  0.28430128917E+03  0.34920371886E+03  0.17208599303E+03 0.  0.
        -24    2    3    3    0    0  0.63997954398E+02  0.40503353668E+02  0.25279330447E+03  0.27573384506E+03  0.79927709221E+02 0.  0.
          6    2    1    2  501    0 -0.10678021995E+03  0.10020472488E+02  0.12120791429E+03  0.23586429457E+03  0.17157558604E+03 0.  0.
         24    2    5    5    0    0 -0.34715453683E+02  0.30853028823E+02  0.13007456138E+03  0.16018052239E+03  0.81125434507E+02 0.  0.
          5    1    5    5  501    0 -0.72064766269E+02 -0.20832556335E+02 -0.88666470859E+01  0.75683772180E+02  0.47000000000E+01 0. -1.
        -13    1    6    6    0    0  0.23887294718E+02 -0.33821990708E+01  0.22524171537E+02  0.33005763480E+02  0.00000000000E+00 0.  1.
         14    1    6    6    0    0 -0.58602748401E+02  0.34235227894E+02  0.10755038984E+03  0.12717475891E+03  0.00000000000E+00 0. -1.
         -5    1    3    3    0  503  0.42782265555E+02 -0.50523826156E+02  0.31507984699E+02  0.73469873794E+02  0.47000000000E+01 0.  1.
         11    1    4    4    0    0  0.43598425904E+01 -0.10333654419E+02  0.15089018156E+00  0.11216746806E+02  0.00000000000E+00 0. -1.
        -12    1    4    4    0    0  0.59638111808E+02  0.50837008087E+02  0.25264241429E+03  0.26451709826E+03  0.00000000000E+00 0.  1.
</event>
<event>
12    1  0.8133506E-002  0.3716211E+03  0.7818608E-02  0.1054134E+00
         21   -1    0    0  503  502  0.00000000000E+00  0.00000000000E+00  0.26772869533E+03  0.26772869533E+03  0.00000000000E+00 0.  1.
         21   -1    0    0  501  503 -0.00000000000E+00 -0.00000000000E+00 -0.66202399247E+03  0.66202399247E+03  0.00000000000E+00 0. -1.
          6    2    1    2  501    0  0.39082427768E+02 -0.32699432480E+03 -0.41611879456E+03  0.55749135196E+03  0.17084797835E+03 0.  0.
         24    2    3    3    0    0 -0.37710300402E+02 -0.18279009754E+03 -0.21542533943E+03  0.29866334885E+03  0.89204442502E+02 0.  0.
         -6    2    1    2    0  502 -0.39082427768E+02  0.32699432480E+03  0.21823497430E+02  0.37226133584E+03  0.17219033803E+03 0.  0.
        -24    2    5    5    0    0 -0.66834249527E+02  0.21245232606E+03  0.63878247865E+02  0.24703863374E+03  0.85702090139E+02 0.  0.
          5    1    3    3  501    0  0.76792728170E+02 -0.14420422726E+03 -0.20069345513E+03  0.25882800311E+03  0.47000000000E+01 0. -1.
        -13    1    4    4    0    0 -0.13701821554E+02 -0.14466527351E+03 -0.10464278770E+03  0.17906952362E+03  0.00000000000E+00 0.  1.
         14    1    4    4    0    0 -0.24008478847E+02 -0.38124824028E+02 -0.11078255173E+03  0.11959382523E+03  0.00000000000E+00 0. -1.
         -5    1    5    5    0  502  0.27751821759E+02  0.11454199874E+03 -0.42054750435E+02  0.12522270210E+03  0.47000000000E+01 0.  1.
         13    1    6    6    0    0  0.22674316134E+00 -0.76880011635E+01 -0.14297251316E+01  0.78230996608E+01  0.00000000000E+00 0. -1.
        -14    1    6    6    0    0 -0.67060992689E+02  0.22014032722E+03  0.65307972997E+02  0.23921553408E+03  0.00000000000E+00 0.  1.
</event>
<event>
12    1  0.8133506E-002  0.2888735E+03  0.7818608E-02  0.1092437E+00
         21   -1    0    0  503  502  0.00000000000E+00  0.00000000000E+00  0.10629350705E+04  0.10629350705E+04  0.00000000000E+00 0.  1.
         21   -1    0    0  501  503 -0.00000000000E+00 -0.00000000000E+00 -0.78570483291E+02  0.78570483291E+02  0.00000000000E+00 0.  1.
          6    2    1    2  501    0  0.80193032465E+02  0.20380128287E+03  0.38867362364E+03  0.48426757260E+03  0.18836669241E+03 0.  0.
         24    2    3    3    0    0  0.12740967996E+03  0.12293634353E+03  0.25482773797E+03  0.32084982165E+03  0.81614097507E+02 0.  0.
         -6    2    1    2    0  502 -0.80193032465E+02 -0.20380128287E+03  0.59569096357E+03  0.65723798119E+03  0.17072830603E+03 0.  0.
        -24    2    5    5    0    0 -0.10090092055E+03 -0.15482881966E+03  0.33282804646E+03  0.38901023845E+03  0.80009361594E+02 0.  0.
          5    1    3    3  501    0 -0.47216647490E+02  0.80864939341E+02  0.13384588567E+03  0.16341775095E+03  0.47000000000E+01 0. -1.
        -11    1    4    4    0    0  0.81547749500E+02  0.12337477678E+03  0.17853073205E+03  0.23182880166E+03  0.00000000000E+00 0.  1.
         12    1    4    4    0    0  0.45861930455E+02 -0.43843324956E+00  0.76297005912E+02  0.89021019989E+02  0.00000000000E+00 0. -1.
         -5    1    5    5    0  502  0.20707888084E+02 -0.48972463210E+02  0.26286291711E+03  0.26822774274E+03  0.47000000000E+01 0.  1.
         13    1    6    6    0    0 -0.27340197318E+02  0.16299525574E+01  0.32776774048E+02  0.42713698642E+02  0.00000000000E+00 0. -1.
        -14    1    6    6    0    0 -0.73560723232E+02 -0.15645877222E+03  0.30005127241E+03  0.34629653980E+03  0.00000000000E+00 0.  1.
</event>
<event>
12    1  0.8133506E-002  0.2151335E+03  0.7818608E-02  0.1137709E+00
         21   -1    0    0  501  502  0.00000000000E+00  0.00000000000E+00  0.16881507244E+03  0.16881507244E+03  0.00000000000E+00 0.  1.
         21   -1    0    0  502  503 -0.00000000000E+00 -0.00000000000E+00 -0.34805517156E+03  0.34805517156E+03  0.00000000000E+00 0. -1.
         -6    2    1    2    0  503  0.24962147327E+02 -0.12196495105E+03 -0.20934809913E+03  0.29964011928E+03  0.17452511679E+03 0.  0.
        -24    2    3    3    0    0 -0.70889417789E+01 -0.11828278184E+03 -0.75142295245E+02  0.16153103747E+03  0.80030256505E+02 0.  0.
          6    2    1    2  501    0 -0.24962147327E+02  0.12196495105E+03  0.30108000008E+02  0.21723012472E+03  0.17545334805E+03 0.  0.
         24    2    5    5    0    0 -0.82674915566E+02  0.62491060563E+02  0.30341991946E+02  0.13422378750E+03  0.79718971029E+02 0.  0.
          5    1    5    5  501    0  0.57712768239E+02  0.59473890483E+02 -0.23399193737E+00  0.83006337223E+02  0.47000000000E+01 0. -1.
        -13    1    6    6    0    0 -0.39438321994E+02  0.60282506988E+02  0.48956921331E+02  0.87098461735E+02  0.00000000000E+00 0.  1.
         14    1    6    6    0    0 -0.43236593572E+02  0.22085535752E+01 -0.18614929385E+02  0.47125325766E+02  0.00000000000E+00 0. -1.
         -5    1    3    3    0  503  0.32051089106E+02 -0.36821692095E+01 -0.13420580389E+03  0.13810908181E+03  0.47000000000E+01 0.  1.
         13    1    4    4    0    0  0.10336920019E+02 -0.34414116711E+02 -0.66305972957E+02  0.75416612190E+02  0.00000000000E+00 0. -1.
        -14    1    4    4    0    0 -0.17425861798E+02 -0.83868665125E+02 -0.88363222879E+01  0.86114425277E+02  0.00000000000E+00 0.  1.
</event>
<event>
12    1  0.8133506E-002  0.1860209E+03  0.7818608E-02  0.1162291E+00
         21   -1    0    0  501  502  0.00000000000E+00  0.00000000000E+00  0.89335726272E+03  0.89335726272E+03  0.00000000000E+00 0.  1.
         21   -1    0    0  502  503 -0.00000000000E+00 -0.00000000000E+00 -0.45118113041E+02  0.45118113041E+02  0.00000000000E+00 0.  1.
         -6    2    1    2    0  503  0.72280284626E+02 -0.44971602450E+01  0.24607358441E+03  0.30847365446E+03  0.17134503948E+03 0.  0.
        -24    2    3    3    0    0  0.17524801506E+02 -0.27881345120E+01  0.32216256278E+02  0.87661221619E+02  0.79572044371E+02 0.  0.
          6    2    1    2  501    0 -0.72280284626E+02  0.44971602450E+01  0.60216556527E+03  0.63000172130E+03  0.17045274082E+03 0.  0.
         24    2    5    5    0    0 -0.84784649128E+02  0.79551956883E+01  0.25166970166E+03  0.27923433749E+03  0.85921211774E+02 0.  0.
          5    1    5    5  501    0  0.12504364502E+02 -0.34580354433E+01  0.35049586360E+03  0.35076738381E+03  0.47000000000E+01 0. -1.
        -11    1    6    6    0    0 -0.49993482865E+02 -0.23216403995E+02  0.20837905972E+03  0.21554624161E+03  0.00000000000E+00 0.  1.
         12    1    6    6    0    0 -0.34791166263E+02  0.31171599684E+02  0.43290641942E+02  0.63688095878E+02  0.00000000000E+00 0. -1.
         -5    1    3    3    0  503  0.54755483120E+02 -0.17090257330E+01  0.21385732814E+03  0.22081243284E+03  0.47000000000E+01 0.  1.
         13    1    4    4    0    0 -0.55911483932E+01 -0.13607519803E+02  0.52838563967E+02  0.54848330673E+02  0.00000000000E+00 0. -1.
        -14    1    4    4    0    0  0.23115949899E+02  0.10819385291E+02 -0.20622307689E+02  0.32812890946E+02  0.00000000000E+00 0.  1.
</event>
<event>
12    1  0.8133506E-002  0.2523757E+03  0.7818608E-02  0.1111854E+00
         21   -1    0    0  501  502  0.00000000000E+00  0.00000000000E+00  0.10148988969E+03  0.10148988969E+03  0.00000000000E+00 0.  1.
         21   -1    0    0  502  503 -0.00000000000E+00 -0.00000000000E+00 -0.63135501518E+03  0.63135501518E+03  0.00000000000E+00 0. -1.
         -6    2    1    2    0  503 -0.74450509055E+01  0.18405747647E+03 -0.29548909561E+03  0.38842419370E+03  0.17212485353E+03 0.  0.
        -24    2    3    3    0    0 -0.60765387772E+02  0.15949720609E+03 -0.25273761355E+03  0.31565026690E+03  0.81406379278E+02 0.  0.
          6    2    1    2  501    0  0.74450509055E+01 -0.18405747647E+03 -0.23437602988E+03  0.34442071117E+03  0.17251353417E+03 0.  0.
         24    2    5    5    0    0 -0.12110156279E+00 -0.20803312075E+03 -0.22674580717E+03  0.31773010457E+03  0.79126255342E+02 0.  0.
          5    1    5    5  501    0  0.75661524682E+01  0.23975644284E+02 -0.76302227059E+01  0.26690606597E+02  0.47000000000E+01 0. -1.
        -13    1    6    6    0    0 -0.29922607186E+02 -0.53321920171E+02 -0.38520269749E+02  0.72266180009E+02  0.00000000000E+00 0.  1.
         14    1    6    6    0    0  0.29801505623E+02 -0.15471120058E+03 -0.18822553742E+03  0.24546392456E+03  0.00000000000E+00 0. -1.
         -5    1    3    3    0  503  0.53320336866E+02  0.24560270373E+02 -0.42751482059E+02  0.72773926805E+02  0.47000000000E+01 0.  1.
         11    1    4    4    0    0 -0.97617259659E+01  0.86964044144E+01  0.39048526855E+01  0.13644288844E+02  0.00000000000E+00 0. -1.
        -12    1    4    4    0    0 -0.51003661806E+02  0.15080080168E+03 -0.25664246624E+03  0.30200597806E+03  0.00000000000E+00 0.  1.
</event>
<event>
12    1  0.8133506E-002  0.2083342E+03  0.7818608E-02  0.1142983E+00
         21   -1    0    0  503  502  0.00000000000E+00  0.00000000000E+00  0.16481075423E+04  0.16481075423E+04  0.00000000000E+00 0. -1.
         21   -1    0    0  501  503 -0.00000000000E+00 -0.00000000000E+00 -0.70637327022E+02  0.70637327022E+02  0.00000000000E+00 0. -1.
          6    2    1    2  501    0  0.47184223702E+02  0.10393269316E+03  0.10803800902E+03  0.23468137649E+03  0.17428362346E+03 0.  0.
         24    2    3    3    0    0  0.77333262062E+02  0.12036609966E+02  0.58895449659E+02  0.12609530113E+03  0.79410563383E+02 0.  0.
         -6    2    1    2    0  502 -0.47184223702E+02 -0.10393269316E+03  0.14694322063E+04  0.14840634929E+04  0.17373855730E+03 0.  0.
        -24    2    5    5    0    0  0.14274899029E+02 -0.98625679674E+02  0.65998696055E+03  0.67225742981E+03  0.80102848924E+02 0.  0.
          5    1    3    3  501    0 -0.30149038360E+02  0.91896083199E+02  0.49142559366E+02  0.10858607536E+03  0.47000000000E+01 0. -1.
        -11    1    4    4    0    0  0.82685181059E+02 -0.13483465004E+02  0.35234701085E+02  0.90885241684E+02  0.00000000000E+00 0.  1.
         12    1    4    4    0    0 -0.53519189971E+01  0.25520074970E+02  0.23660748574E+02  0.35210059450E+02  0.00000000000E+00 0. -1.
         -5    1    5    5    0  502 -0.61459122731E+02 -0.53070134911E+01  0.80944524573E+03  0.81180606304E+03  0.47000000000E+01 0.  1.
         13    1    6    6    0    0  0.26621467143E+02 -0.10352975817E+03  0.63522601495E+03  0.64415774730E+03  0.00000000000E+00 0. -1.
        -14    1    6    6    0    0 -0.12346568114E+02  0.49040784986E+01  0.24760945608E+02  0.28099682516E+02  0.00000000000E+00 0.  1.
</event>
<event>
12    1  0.8133506E-002  0.1765513E+03  0.7818608E-02  0.1171609E+00
         21   -1    0    0  501  502  0.00000000000E+00  0.00000000000E+00  0.17609008281E+03  0.17609008281E+03  0.00000000000E+00 0.  1.
         21   -1    0    0  502  503 -0.00000000000E+00 -0.00000000000E+00 -0.21604854271E+03  0.21604854271E+03  0.00000000000E+00 0.  1.
         -6    2    1    2    0  503  0.26221281546E+02  0.22140095545E+02 -0.10520292221E+03  0.20551889136E+03  0.17318377646E+03 0.  0.
        -24    2    3    3    0    0  0.24742349222E+02 -0.40385456981E+02 -0.14431032085E+02  0.95186402964E+02  0.81295926352E+02 0.  0.
          6    2    1    2  501    0 -0.26221281546E+02 -0.22140095545E+02  0.65244462309E+02  0.18661973416E+03  0.17144196067E+03 0.  0.
         24    2    5    5    0    0 -0.83393026351E+02 -0.17174684508E+02  0.46674366348E+02  0.12612012941E+03  0.80488657189E+02 0.  0.
          5    1    5    5  501    0  0.57171744805E+02 -0.49654110371E+01  0.18570095961E+02  0.60499604750E+02  0.47000000000E+01 0. -1.
        -11    1    6    6    0    0 -0.14156287088E+02  0.61838788188E+01  0.50637932748E+02  0.52941864855E+02  0.00000000000E+00 0.  1.
         12    1    6    6    0    0 -0.69236739263E+02 -0.23358563327E+02 -0.39635663998E+01  0.73178264554E+02  0.00000000000E+00 0. -1.
         -5    1    3    3    0  503  0.14789323240E+01  0.62525552526E+02 -0.90771890127E+02  0.11033248840E+03  0.47000000000E+01 0.  1.
         11    1    4    4    0    0 -0.39124276659E+01 -0.56712130970E+02  0.47320038233E+01  0.57043533810E+02  0.00000000000E+00 0. -1.
        -12    1    4    4    0    0  0.28654776888E+02  0.16326673989E+02 -0.19163035909E+02  0.38142869153E+02  0.00000000000E+00 0.  1.
</event>
<event>
12    1  0.8133506E-002  0.2154530E+03  0.7818608E-02  0.1137449E+00
         21   -1    0    0  501  502  0.00000000000E+00  0.00000000000E+00  0.25854457661E+03  0.25854457661E+03  0.00000000000E+00 0. -1.
         21   -1    0    0  502  503 -0.00000000000E+00 -0.00000000000E+00 -0.20023790199E+03  0.20023790199E+03  0.00000000000E+00 0. -1.
         -6    2    1    2    0  503 -0.10671457651E+03  0.73217431255E+02 -0.45544240707E+02  0.22021411156E+03  0.17225325539E+03 0.  0.
        -24    2    3    3    0    0 -0.11080607762E+03  0.11034826384E+03 -0.48201836426E+02  0.18247034486E+03  0.80729694335E+02 0.  0.
          6    2    1    2  501    0  0.10671457651E+03 -0.73217431255E+02  0.10385091533E+03  0.23856836704E+03  0.17140904310E+03 0.  0.
         24    2    5    5    0    0  0.10792583225E+03 -0.69601360796E+01  0.10754441187E+03  0.17203094733E+03  0.79576488702E+02 0.  0.
          5    1    5    5  501    0 -0.12112557427E+01 -0.66257295175E+02 -0.36934965352E+01  0.66537419705E+02  0.47000000000E+01 0. -1.
        -11    1    6    6    0    0 -0.91984192609E+01  0.56633912242E+01 -0.22070840156E+01  0.11025249970E+02  0.00000000000E+00 0.  1.
         12    1    6    6    0    0  0.11712425151E+03 -0.12623527304E+02  0.10975149588E+03  0.16100569736E+03  0.00000000000E+00 0. -1.
         -5    1    3    3    0  503  0.40915011122E+01 -0.37130832587E+02  0.26575957190E+01  0.37743766704E+02  0.47000000000E+01 0.  1.
         11    1    4    4    0    0 -0.30873554102E+02  0.12339903074E+02  0.19981701899E+02  0.38790694265E+02  0.00000000000E+00 0. -1.
        -12    1    4    4    0    0 -0.79932523519E+02  0.98008360768E+02 -0.68183538324E+02  0.14367965059E+03  0.00000000000E+00 0.  1.
</event>
<event>
12    1  0.8133506E-002  0.2263732E+03  0.7818608E-02  0.1129269E+00
         21   -1    0    0  503  502  0.00000000000E+00  0.00000000000E+00  0.12156416952E+03  0.12156416952E+03  0.00000000000E+00 0.  1.
         21   -1    0    0  501  503 -0.00000000000E+00 -0.00000000000E+00 -0.46799792994E+03  0.46799792994E+03  0.00000000000E+00 0. -1.
          6    2    1    2  501    0  0.14301529613E+03  0.27138127742E+02 -0.26669672109E+03  0.34981701799E+03  0.17336364133E+03 0.  0.
         24    2    3    3    0    0  0.17336340166E+03  0.13552317660E+02 -0.23361199486E+03  0.30267605009E+03  0.82460249871E+02 0.  0.
         -6    2    1    2    0  502 -0.14301529613E+03 -0.27138127742E+02 -0.79737039329E+02  0.23974508147E+03  0.17300247323E+03 0.  0.
        -24    2    5    5    0    0 -0.96737024316E+02 -0.33370602068E+02 -0.12068677472E+03  0.17745950523E+03  0.80342575572E+02 0.  0.
          5    1    3    3  501    0 -0.30348105532E+02  0.13585810081E+02 -0.33084726229E+02  0.47140967900E+02  0.47000000000E+01 0. -1.
        -11    1    4    4    0    0  0.81017105170E+02 -0.19391558001E+02 -0.15888211110E+03  0.17939712673E+03  0.00000000000E+00 0.  1.
         12    1    4    4    0    0  0.92346296488E+02  0.32943875661E+02 -0.74729883762E+02  0.12327892336E+03  0.00000000000E+00 0. -1.
         -5    1    5    5    0  502 -0.46278271810E+02  0.62324743263E+01  0.40949735391E+02  0.62285576232E+02  0.47000000000E+01 0.  1.
         13    1    6    6    0    0 -0.95824074087E+02  0.78976166579E+00 -0.92015126685E+02  0.13285202459E+03  0.00000000000E+00 0. -1.
        -14    1    6    6    0    0 -0.91295022893E+00 -0.34160363734E+02 -0.28671648036E+02  0.44607480647E+02  0.00000000000E+00 0.  1.
</event>
<event>
12    1  0.8133506E-002  0.2696874E+03  0.7818608E-02  0.1101813E+00
         21   -1    0    0  501  502  0.00000000000E+00  0.00000000000E+00  0.20073893061E+04  0.20073893061E+04  0.00000000000E+00 0.  1.
         21   -1    0    0  502  503 -0.00000000000E+00 -0.00000000000E+00 -0.49236167011E+02  0.49236167011E+02  0.00000000000E+00 0.  1.
         -6    2    1    2    0  503 -0.53614917531E+02  0.19764090994E+03  0.44067610673E+03  0.51537019608E+03  0.17168144717E+03 0.  0.
        -24    2    3    3    0    0 -0.73303429947E+02  0.20712505630E+03  0.34230557446E+03  0.41449186257E+03  0.79725880609E+02 0.  0.
          6    2    1    2  501    0  0.53614917531E+02 -0.19764090994E+03  0.15174770323E+04  0.15412552770E+04  0.17548446248E+03 0.  0.
         24    2    5    5    0    0  0.60165202175E+02 -0.21207201502E+03  0.14955829610E+04  0.15138216593E+04  0.79329891579E+02 0.  0.
          5    1    5    5  501    0 -0.65502846444E+01  0.14431105081E+02  0.21894071299E+02  0.27433617713E+02  0.47000000000E+01 0. -1.
        -13    1    6    6    0    0  0.37726407585E+02 -0.18486939942E+03  0.10478064533E+04  0.10646587905E+04  0.00000000000E+00 0.  1.
         14    1    6    6    0    0  0.22438794590E+02 -0.27202615604E+02  0.44777650772E+03  0.44916286875E+03  0.00000000000E+00 0. -1.
         -5    1    3    3    0  503  0.19688512417E+02 -0.94841463592E+01  0.98370532268E+02  0.10087833351E+03  0.47000000000E+01 0.  1.
         13    1    4    4    0    0 -0.97140249727E+01 -0.59211920141E+01  0.15487262578E+02  0.19216609956E+02  0.00000000000E+00 0. -1.
        -14    1    4    4    0    0 -0.63589404975E+02  0.21304624831E+03  0.32681831188E+03  0.39527525261E+03  0.00000000000E+00 0.  1.
</event>
<event>
12    1  0.8133506E-002  0.1734621E+03  0.7818608E-02  0.1174543E+00
         21   -1    0    0  503  502  0.00000000000E+00  0.00000000000E+00  0.93330650735E+02  0.93330650735E+02  0.00000000000E+00 0. -1.
         21   -1    0    0  501  503 -0.00000000000E+00 -0.00000000000E+00 -0.47454556775E+03  0.47454556775E+03  0.00000000000E+00 0. -1.
          6    2    1    2  501    0 -0.25952178294E+02  0.72742896064E+01 -0.35275434936E+03  0.39309635434E+03  0.17135542580E+03 0.  0.
         24    2    3    3    0    0  0.46621685541E+01 -0.32128382994E+02 -0.32350158383E+03  0.33506512884E+03  0.81002450685E+02 0.  0.
         -6    2    1    2    0  502  0.25952178294E+02 -0.72742896064E+01 -0.28460567647E+02  0.17477986414E+03  0.17032781966E+03 0.  0.
        -24    2    5    5    0    0 -0.38781480134E+02  0.38158131614E+02 -0.68943596206E+01  0.92671747856E+02  0.74702573225E+02 0.  0.
          5    1    3    3  501    0 -0.30614346848E+02  0.39402672601E+02 -0.29252765535E+02  0.58031225495E+02  0.47000000000E+01 0. -1.
        -11    1    4    4    0    0 -0.16189322243E+02 -0.41286614398E+02 -0.88766601881E+02  0.99227961243E+02  0.00000000000E+00 0.  1.
         12    1    4    4    0    0  0.20851490797E+02  0.91582314034E+01 -0.23473498195E+03  0.23583716760E+03  0.00000000000E+00 0. -1.
         -5    1    5    5    0  502  0.64733658428E+02 -0.45432421221E+02 -0.21566208026E+02  0.82108116286E+02  0.47000000000E+01 0.  1.
         11    1    6    6    0    0  0.16207484375E+02  0.26902085977E+02  0.11740921447E+02  0.33529897347E+02  0.00000000000E+00 0. -1.
        -12    1    6    6    0    0 -0.54988964509E+02  0.11256045638E+02 -0.18635281067E+02  0.59141850509E+02  0.00000000000E+00 0.  1.
</event>
<event>
12    1  0.8133506E-002  0.2358779E+03  0.7818608E-02  0.1122909E+00
         21   -1    0    0  501  502  0.00000000000E+00  0.00000000000E+00  0.20861543672E+03  0.20861543672E+03  0.00000000000E+00 0. -1.
         21   -1    0    0  502  503 -0.00000000000E+00 -0.00000000000E+00 -0.28328831888E+03  0.28328831888E+03  0.00000000000E+00 0. -1.
         -6    2    1    2    0  503  0.13929633043E+03  0.74299397781E+02 -0.10059240759E+03  0.25460605123E+03  0.17257329074E+03 0.  0.
        -24    2    3    3    0    0  0.15115786265E+03  0.88331338842E+02 -0.46472559654E+02  0.19725939258E+03  0.78105341041E+02 0.  0.
          6    2    1    2  501    0 -0.13929633043E+03 -0.74299397781E+02  0.25919525437E+02  0.23729770437E+03  0.17525555774E+03 0.  0.
         24    2    5    5    0    0 -0.10724978198E+03 -0.10606164436E+03 -0.21727296764E+02  0.17150917010E+03  0.78687558526E+02 0.  0.
          5    1    5    5  501    0 -0.32046548448E+02  0.31762246576E+02  0.47646822201E+02  0.65788534266E+02  0.47000000000E+01 0. -1.
        -11    1    6    6    0    0 -0.24770586582E+01  0.14099922219E+00 -0.22184623243E+02  0.22322930113E+02  0.00000000000E+00 0.  1.
         12    1    6    6    0    0 -0.10477272332E+03 -0.10620264358E+03  0.45732647873E+00  0.14918623999E+03  0.00000000000E+00 0. -1.
         -5    1    3    3    0  503 -0.11861532225E+02 -0.14031941061E+02 -0.54119847938E+02  0.57346658643E+02  0.47000000000E+01 0.  1.
         11    1    4    4    0    0  0.90338007628E+02  0.14643251265E+02 -0.44332989762E+02  0.10168969668E+03  0.00000000000E+00 0. -1.
        -12    1    4    4    0    0  0.60819855023E+02  0.73688087577E+02 -0.21395698924E+01  0.95569695904E+02  0.00000000000E+00 0.  1.
</event>
<event>
12    1  0.8133506E-002  0.1912339E+03  0.7818608E-02  0.1157949E+00
         21   -1    0    0  501  502  0.00000000000E+00  0.00000000000E+00  0.13803627014E+03  0.13803627014E+03  0.00000000000E+00 0. -1.
         21   -1    0    0  502  503 -0.00000000000E+00 -0.00000000000E+00 -0.30979135490E+03  0.30979135490E+03  0.00000000000E+00 0. -1.
         -6    2    1    2    0  503 -0.15133982346E+02 -0.76810158092E+02 -0.17498641078E+03  0.25921157150E+03  0.17447509001E+03 0.  0.
        -24    2    3    3    0    0 -0.34776568419E+02 -0.13577116985E+02 -0.17181293433E+03  0.19275549858E+03  0.79001582351E+02 0.  0.
          6    2    1    2  501    0  0.15133982346E+02  0.76810158092E+02  0.32313260282E+01  0.18861605354E+03  0.17157137400E+03 0.  0.
         24    2    5    5    0    0 -0.68931543518E+01 -0.11389574960E+02 -0.40299753347E+02  0.87712968685E+02  0.76761036738E+02 0.  0.
          5    1    5    5  501    0  0.22027136698E+02  0.88199733051E+02  0.43531079375E+02  0.10090308485E+03  0.47000000000E+01 0. -1.
        -13    1    6    6    0    0 -0.37137815829E+02  0.11254016279E+02 -0.28446974188E+02  0.48115492176E+02  0.00000000000E+00 0.  1.
         14    1    6    6    0    0  0.30244661477E+02 -0.22643591239E+02 -0.11852779159E+02  0.39597476508E+02  0.00000000000E+00 0. -1.
         -5    1    3    3    0  503  0.19642586073E+02 -0.63233041107E+02 -0.31734764547E+01  0.66456072921E+02  0.47000000000E+01 0.  1.
         11    1    4    4    0    0 -0.12458325276E+02 -0.45973131117E+02 -0.84764427128E+02  0.97230379819E+02  0.00000000000E+00 0. -1.
        -12    1    4    4    0    0 -0.22318243143E+02  0.32396014132E+02 -0.87048507200E+02  0.95525118762E+02  0.00000000000E+00 0.  1.
</event>
<event>
12    1  0.8133506E-002  0.2034404E+03  0.7818608E-02  0.1146879E+00
         21   -1    0    0  501  502  0.00000000000E+00  0.00000000000E+00  0.14293487607E+03  0.14293487607E+03  0.00000000000E+00 0.  1.
         21   -1    0    0  502  503 -0.00000000000E+00 -0.00000000000E+00 -0.30699549114E+03  0.30699549114E+03  0.00000000000E+00 0.  1.
         -6    2    1    2    0  503  0.97951682748E+02  0.46937866429E+02 -0.13574699212E+03  0.24452913104E+03  0.17195800243E+03 0.  0.
        -24    2    3    3    0    0  0.13668703364E+02 -0.27225777116E+02 -0.54221793001E+02  0.10570436838E+03  0.85471248185E+02 0.  0.
          6    2    1    2  501    0 -0.97951682748E+02 -0.46937866429E+02 -0.28313622952E+02  0.20540123617E+03  0.17201834529E+03 0.  0.
         24    2    5    5    0    0 -0.84715121596E+02 -0.97108901707E+02 -0.19051426316E+02  0.15248415369E+03  0.79256984946E+02 0.  0.
          5    1    5    5  501    0 -0.13236561152E+02  0.50171035278E+02 -0.92621966364E+01  0.52917082483E+02  0.47000000000E+01 0. -1.
        -11    1    6    6    0    0 -0.57979365599E+02 -0.30064954595E+02  0.22648031112E+02  0.69126273177E+02  0.00000000000E+00 0.  1.
         12    1    6    6    0    0 -0.26735755997E+02 -0.67043947112E+02 -0.41699457428E+02  0.83357880508E+02  0.00000000000E+00 0. -1.
         -5    1    3    3    0  503  0.84282979384E+02  0.74163643545E+02 -0.81525199123E+02  0.13882476267E+03  0.47000000000E+01 0.  1.
         11    1    4    4    0    0 -0.16715899555E+02  0.10602035292E+02  0.12347097651E+02  0.23329707899E+02  0.00000000000E+00 0. -1.
        -12    1    4    4    0    0  0.30384602919E+02 -0.37827812407E+02 -0.66568890651E+02  0.82374660477E+02  0.00000000000E+00 0.  1.
</event>
<event>
12    1  0.8133506E-002  0.2150994E+03  0.7818608E-02  0.1137883E+00
         21   -1    0    0  501  502  0.00000000000E+00  0.00000000000E+00  0.35505891027E+03  0.35505891027E+03  0.00000000000E+00 0.  1.
         21   -1    0    0  502  503 -0.00000000000E+00 -0.00000000000E+00 -0.44331313459E+03  0.44331313459E+03  0.00000000000E+00 0.  1.
         -6    2    1    2    0  503  0.12579748958E+03  0.37825254766E+02 -0.38008833961E+03  0.43673204808E+03  0.17032902756E+03 0.  0.
        -24    2    3    3    0    0  0.10220186595E+03 -0.28158364183E+02 -0.17301386454E+03  0.21807130709E+03  0.79894823204E+02 0.  0.
          6    2    1    2  501    0 -0.12579748958E+03 -0.37825254766E+02  0.29183411529E+03  0.36163999678E+03  0.16840599201E+03 0.  0.
         24    2    5    5    0    0 -0.10671530277E+03  0.28105402228E+02  0.23903203217E+03  0.27491554022E+03  0.79146524683E+02 0.  0.
          5    1    5    5  501    0 -0.19082186810E+02 -0.65930656994E+02  0.52802083120E+02  0.86724456568E+02  0.47000000000E+01 0. -1.
        -13    1    6    6    0    0 -0.11147875062E+03  0.54245755313E+01  0.18402714527E+03  0.21522761917E+03  0.00000000000E+00 0.  1.
         14    1    6    6    0    0  0.47634478541E+01  0.22680826697E+02  0.55004886904E+02  0.59687921043E+02  0.00000000000E+00 0. -1.
         -5    1    3    3    0  503  0.23595623625E+02  0.65983618949E+02 -0.20707447507E+03  0.21866074099E+03  0.47000000000E+01 0.  1.
         13    1    4    4    0    0  0.19490358300E+01 -0.29897433117E+02 -0.23635155072E+02  0.38161181886E+02  0.00000000000E+00 0. -1.
        -14    1    4    4    0    0  0.10025283012E+03  0.17390689335E+01 -0.14937870947E+03  0.17991012520E+03  0.00000000000E+00 0.  1.
</event>
<event>
12    1  0.8133506E-002  0.2367701E+03  0.7818608E-02  0.1121989E+00
         21   -1    0    0  503  502  0.00000000000E+00  0.00000000000E+00  0.37038485051E+03  0.37038485051E+03  0.00000000000E+00 0.  1.
         21   -1    0    0  501  503 -0.00000000000E+00 -0.00000000000E+00 -0.15331913895E+03  0.15331913895E+03  0.00000000000E+00 0. -1.
          6    2    1    2  501    0 -0.15718513921E+03  0.40566586362E+02  0.13891348029E+03  0.27451233592E+03  0.17235791728E+03 0.  0.
         24    2    3    3    0    0 -0.12099060324E+03 -0.31288928238E+02  0.12385442463E+03  0.19252377227E+03  0.78152167503E+02 0.  0.
         -6    2    1    2    0  502  0.15718513921E+03 -0.40566586362E+02  0.78152231264E+02  0.24919165353E+03  0.17215078571E+03 0.  0.
        -24    2    5    5    0    0  0.19882562213E+01  0.26361327541E+01  0.14813507079E+02  0.76025746350E+02  0.74495447897E+02 0.  0.
          5    1    3    3  501    0 -0.36194535977E+02  0.71855514600E+02  0.15059055662E+02  0.81988563656E+02  0.47000000000E+01 0. -1.
        -11    1    4    4    0    0 -0.25768686715E+02  0.25487152498E+02  0.25449027012E+02  0.44286263483E+02  0.00000000000E+00 0.  1.
         12    1    4    4    0    0 -0.95221916522E+02 -0.56776080736E+02  0.98405397621E+02  0.14823750879E+03  0.00000000000E+00 0. -1.
         -5    1    5    5    0  502  0.15519688299E+03 -0.43202719116E+02  0.63338724185E+02  0.17316590718E+03  0.47000000000E+01 0.  1.
         11    1    6    6    0    0  0.17743356433E+02 -0.31743473579E+02  0.34061809420E+01  0.36525017193E+02  0.00000000000E+00 0. -1.
        -12    1    6    6    0    0 -0.15755100212E+02  0.34379606333E+02  0.11407326137E+02  0.39500729157E+02  0.00000000000E+00 0.  1.
</event>
<event>
12    1  0.8133506E-002  0.2220815E+03  0.7818608E-02  0.1132351E+00
         21   -1    0    0  503  502  0.00000000000E+00  0.00000000000E+00  0.12741567916E+04  0.12741567916E+04  0.00000000000E+00 0. -1.
         21   -1    0    0  501  503 -0.00000000000E+00 -0.00000000000E+00 -0.46275303415E+02  0.46275303415E+02  0.00000000000E+00 0.  1.
          6    2    1    2  501    0  0.13282661948E+03  0.47127473247E+02  0.88103071406E+03  0.90857576915E+03  0.17155436337E+03 0.  0.
         24    2    3    3    0    0  0.39797684383E+02  0.58359514219E+02  0.28162535156E+03  0.30187203576E+03  0.82608708703E+02 0.  0.
         -6    2    1    2    0  502 -0.13282661948E+03 -0.47127473247E+02  0.34685077408E+03  0.41185632582E+03  0.17162827291E+03 0.  0.
        -24    2    5    5    0    0 -0.68267299790E+02  0.30030158307E+02  0.25002114797E+03  0.27214493631E+03  0.77395460456E+02 0.  0.
          5    1    3    3  501    0  0.93028935097E+02 -0.11232040971E+02  0.59940536250E+03  0.60670373338E+03  0.47000000000E+01 0. -1.
        -11    1    4    4    0    0  0.47480533679E+02 -0.63065169607E+00  0.15207875919E+03  0.15931964033E+03  0.00000000000E+00 0.  1.
         12    1    4    4    0    0 -0.76828492958E+01  0.58990165915E+02  0.12954659237E+03  0.14255239543E+03  0.00000000000E+00 0. -1.
         -5    1    5    5    0  502 -0.64559319690E+02 -0.77157631554E+02  0.96829626113E+02  0.13971138951E+03  0.47000000000E+01 0.  1.
         11    1    6    6    0    0 -0.35247072277E+02  0.20760247878E+02  0.33356437348E+02  0.52782534125E+02  0.00000000000E+00 0. -1.
        -12    1    6    6    0    0 -0.33020227513E+02  0.92699104291E+01  0.21666471062E+03  0.21936240219E+03  0.00000000000E+00 0.  1.
</event>
<event>
12    1  0.8133506E-002  0.2787401E+03  0.7818608E-02  0.1096474E+00
         21   -1    0    0  501  502  0.00000000000E+00  0.00000000000E+00  0.12129786861E+04  0.12129786861E+04  0.00000000000E+00 0.  1.
         21   -1    0    0  502  503 -0.00000000000E+00 -0.00000000000E+00 -0.78679120366E+02  0.78679120366E+02  0.00000000000E+00 0. -1.
         -6    2    1    2    0  503  0.62969047831E+02 -0.20871216736E+03  0.28777026147E+03  0.40063423743E+03  0.17369570814E+03 0.  0.
        -24    2    3    3    0    0  0.81707712769E+02 -0.95749277868E+02  0.95903337810E+02  0.17714652332E+03  0.79620135528E+02 0.  0.
          6    2    1    2  501    0 -0.62969047831E+02  0.20871216736E+03  0.84652930429E+03  0.89102356906E+03  0.17258408911E+03 0.  0.
         24    2    5    5    0    0 -0.72503887277E+02  0.48439534964E+02  0.32074189608E+03  0.34124841640E+03  0.77278170098E+02 0.  0.
          5    1    5    5  501    0  0.95348394453E+01  0.16027263239E+03  0.52578740820E+03  0.54977515266E+03  0.47000000000E+01 0. -1.
        -13    1    6    6    0    0  0.29781938107E+01  0.33450729733E+02  0.53676842125E+02  0.63316856670E+02  0.00000000000E+00 0.  1.
         14    1    6    6    0    0 -0.75482081087E+02  0.14988805231E+02  0.26706505396E+03  0.27793155973E+03  0.00000000000E+00 0. -1.
         -5    1    3    3    0  503 -0.18738664938E+02 -0.11296288949E+03  0.19186692366E+03  0.22348771412E+03  0.47000000000E+01 0.  1.
         11    1    4    4    0    0  0.47071207964E+02 -0.22046849668E+02  0.78054842211E+02  0.93778038965E+02  0.00000000000E+00 0. -1.
        -12    1    4    4    0    0  0.34636504805E+02 -0.73702428201E+02  0.17848495599E+02  0.83368484351E+02  0.00000000000E+00 0.  1.
</event>
<event>
12    1  0.8133506E-002  0.2629454E+03  0.7818608E-02  0.1105395E+00
         21   -1    0    0  501  502  0.00000000000E+00  0.00000000000E+00  0.22311589803E+03  0.22311589803E+03  0.00000000000E+00 0. -1.
         21   -1    0    0  502  503 -0.00000000000E+00 -0.00000000000E+00 -0.31170452160E+03  0.31170452160E+03  0.00000000000E+00 0.  1.
         -6    2    1    2    0  503 -0.63342332385E+02 -0.18908426621E+03 -0.65127614839E+02  0.27089091620E+03  0.17139186523E+03 0.  0.
        -24    2    3    3    0    0 -0.49109109532E+02 -0.10140479416E+03  0.29111820395E+02  0.14130142741E+03  0.80149600024E+02 0.  0.
          6    2    1    2  501    0  0.63342332385E+02  0.18908426621E+03 -0.23461008730E+02  0.26392950342E+03  0.17129872459E+03 0.  0.
         24    2    5    5    0    0 -0.14738806421E+02  0.73365407913E+02 -0.52358429893E+02  0.12129476238E+03  0.79820415350E+02 0.  0.
          5    1    5    5  501    0  0.78081138806E+02  0.11571885830E+03  0.28897421163E+02  0.14263474105E+03  0.47000000000E+01 0. -1.
        -11    1    6    6    0    0 -0.26402610115E+02  0.83874538507E+02 -0.57159398733E+02  0.10487722772E+03  0.00000000000E+00 0.  1.
         12    1    6    6    0    0  0.11663803694E+02 -0.10509130594E+02  0.48009688401E+01  0.16417534658E+02  0.00000000000E+00 0. -1.
         -5    1    3    3    0  503 -0.14233222853E+02 -0.87679472047E+02 -0.94239435234E+02  0.12958948879E+03  0.47000000000E+01 0.  1.
         11    1    4    4    0    0 -0.35753406636E+02 -0.53146767305E+02 -0.23912189023E+02  0.68371615053E+02  0.00000000000E+00 0. -1.
        -12    1    4    4    0    0 -0.13355702896E+02 -0.48258026860E+02  0.53024009418E+02  0.72929812361E+02  0.00000000000E+00 0.  1.
</event>
<event>
12    1  0.8133506E-002  0.1825134E+03  0.7818608E-02  0.1165717E+00
         21   -1    0    0  503  502  0.00000000000E+00  0.00000000000E+00  0.70784522706E+03  0.70784522706E+03  0.00000000000E+00 0.  1.
         21   -1    0    0  501  503 -0.00000000000E+00 -0.00000000000E+00 -0.47383348918E+02  0.47383348918E+02  0.00000000000E+00 0.  1.
          6    2    1    2  501    0  0.62514846911E+02 -0.21241063621E+02  0.28643693865E+03  0.33964282709E+03  0.17015240610E+03 0.  0.
         24    2    3    3    0    0  0.71319100325E+01  0.40334323255E+02  0.19749671228E+03  0.21802353654E+03  0.82774327855E+02 0.  0.
         -6    2    1    2    0  502 -0.62514846911E+02  0.21241063621E+02  0.37402493949E+03  0.41558574889E+03  0.16869371788E+03 0.  0.
        -24    2    5    5    0    0 -0.25004044779E+02 -0.24143128008E+02  0.32932251382E+03  0.34151023345E+03  0.83473520108E+02 0.  0.
          5    1    3    3  501    0  0.55382936879E+02 -0.61575386876E+02  0.88940226377E+02  0.12161929055E+03  0.47000000000E+01 0. -1.
        -11    1    4    4    0    0  0.41698559658E+02  0.36420568971E+01  0.94319187564E+02  0.10318984252E+03  0.00000000000E+00 0.  1.
         12    1    4    4    0    0 -0.34566649626E+02  0.36692266358E+02  0.10317752471E+03  0.11483369402E+03  0.00000000000E+00 0. -1.
         -5    1    5    5    0  502 -0.37510802133E+02  0.45384191629E+02  0.44702425671E+02  0.74075515438E+02  0.47000000000E+01 0.  1.
         11    1    6    6    0    0  0.83392324365E+01 -0.31510871871E+02  0.47392726896E+02  0.57519982669E+02  0.00000000000E+00 0. -1.
        -12    1    6    6    0    0 -0.33343277215E+02  0.73677438626E+01  0.28192978692E+03  0.28399025078E+03  0.00000000000E+00 0.  1.
</event>
<event>
12    1  0.8133506E-002  0.1770496E+03  0.7818608E-02  0.1170890E+00
         21   -1    0    0  501  502  0.00000000000E+00  0.00000000000E+00  0.15197152306E+04  0.15197152306E+04  0.00000000000E+00 0. -1.
         21   -1    0    0  502  503 -0.00000000000E+00 -0.00000000000E+00 -0.26558807647E+02  0.26558807647E+02  0.00000000000E+00 0. -1.
         -6    2    1    2    0  503 -0.22236713918E+02 -0.34444117875E+02  0.37961717464E+03  0.41887440254E+03  0.17223732790E+03 0.  0.
        -24    2    3    3    0    0  0.32112932427E+02  0.36757350757E+00  0.10176685552E+03  0.13358748074E+03  0.80360105711E+02 0.  0.
          6    2    1    2  501    0  0.22236713918E+02  0.34444117875E+02  0.11135392483E+04  0.11273996357E+04  0.17140423667E+03 0.  0.
         24    2    5    5    0    0  0.65410879383E+02  0.45566460481E+02  0.98124599287E+03  0.98771674304E+03  0.79911078627E+02 0.  0.
          5    1    5    5  501    0 -0.43174165465E+02 -0.11122342606E+02  0.13229325548E+03  0.13968289270E+03  0.47000000000E+01 0. -1.
        -13    1    6    6    0    0 -0.32034924905E+01 -0.12224076661E+02  0.34703939504E+02  0.36933099403E+02  0.00000000000E+00 0.  1.
         14    1    6    6    0    0  0.68614371873E+02  0.57790537142E+02  0.94654205337E+03  0.95078364363E+03  0.00000000000E+00 0. -1.
         -5    1    3    3    0  503 -0.54349646345E+02 -0.34811691382E+02  0.27785031912E+03  0.28528692180E+03  0.47000000000E+01 0.  1.
         13    1    4    4    0    0  0.20351677313E+01 -0.32301995236E+02  0.14077328332E+02  0.35294928487E+02  0.00000000000E+00 0. -1.
        -14    1    4    4    0    0  0.30077764696E+02  0.32669568743E+02  0.87689527184E+02  0.98292552255E+02  0.00000000000E+00 0.  1.
</event>
<event>
12    1  0.8133506E-002  0.2065457E+03  0.7818608E-02  0.1144537E+00
         21   -1    0    0  503  502  0.00000000000E+00  0.00000000000E+00  0.10102384192E+04  0.10102384192E+04  0.00000000000E+00 0.  1.
         21   -1    0    0  501  503 -0.00000000000E+00 -0.00000000000E+00 -0.42126969134E+02  0.42126969134E+02  0.00000000000E+00 0.  1.
          6    2    1    2  501    0 -0.10827379622E+03  0.30606810226E+02  0.51156454760E+03  0.55168777212E+03  0.17320831322E+03 0.  0.
         24    2    3    3    0    0 -0.12777373048E+03  0.51129319379E+02  0.48923381709E+03  0.51532608427E+03  0.85269642010E+02 0.  0.
         -6    2    1    2    0  502  0.10827379622E+03 -0.30606810226E+02  0.45654690244E+03  0.50067761619E+03  0.17199712045E+03 0.  0.
        -24    2    5    5    0    0  0.27565626517E+02 -0.35312796518E+02  0.11553765754E+03  0.15018460617E+03  0.84850505345E+02 0.  0.
          5    1    3    3  501    0  0.19499934258E+02 -0.20522509154E+02  0.22330730512E+02  0.36361687849E+02  0.47000000000E+01 0. -1.
        -13    1    4    4    0    0 -0.76952150684E+02  0.63684598845E+01  0.14284244609E+03  0.16237658446E+03  0.00000000000E+00 0.  1.
         14    1    4    4    0    0 -0.50821579793E+02  0.44760859495E+02  0.34639137099E+03  0.35294949981E+03  0.00000000000E+00 0. -1.
         -5    1    5    5    0  502  0.80708169701E+02  0.47059862919E+01  0.34100924490E+03  0.35049301002E+03  0.47000000000E+01 0.  1.
         11    1    6    6    0    0 -0.46334810232E+01 -0.48749532018E+02  0.10127313509E+03  0.11249103924E+03  0.00000000000E+00 0. -1.
        -12    1    6    6    0    0  0.32199107541E+02  0.13436735500E+02  0.14264522455E+02  0.37693566934E+02  0.00000000000E+00 0.  1.
</event>
<event>
12    1  0.8133506E-002  0.2130689E+03  0.7818608E-02  0.1140040E+00
         21   -1    0    0  503  502  0.00000000000E+00  0.00000000000E+00  0.57771808383E+03  0.57771808383E+03  0.00000000000E+00 0. -1.
         21   -1    0    0  501  503 -0.00000000000E+00 -0.00000000000E+00 -0.85938143962E+02  0.85938143962E+02  0.00000000000E+00 0.  1.
          6    2    1    2  501    0  0.11823791524E+03  0.40560993292E+02  0.13616415855E+03  0.24909507277E+03  0.16697987432E+03 0.  0.
         24    2    3    3    0    0  0.54959904603E+01  0.16896825978E+02  0.20832467658E+02  0.86017718911E+02  0.81543532047E+02 0.  0.
         -6    2    1    2    0  502 -0.11823791524E+03 -0.40560993292E+02  0.35561578132E+03  0.41456115502E+03  0.17254845277E+03 0.  0.
        -24    2    5    5    0    0 -0.54845318957E+02  0.37523106973E+02  0.23750172637E+03  0.25935558826E+03  0.80263681480E+02 0.  0.
          5    1    3    3  501    0  0.11274192478E+03  0.23664167315E+02  0.11533169089E+03  0.16307735386E+03  0.47000000000E+01 0. -1.
        -11    1    4    4    0    0  0.38985711455E+02 -0.83501193950E+01  0.16634890188E+01  0.39904603585E+02  0.00000000000E+00 0.  1.
         12    1    4    4    0    0 -0.33489720995E+02  0.25246945373E+02  0.19168978639E+02  0.46113115326E+02  0.00000000000E+00 0. -1.
         -5    1    5    5    0  502 -0.63392596282E+02 -0.78084100265E+02  0.11811405495E+03  0.15520556676E+03  0.47000000000E+01 0.  1.
         11    1    6    6    0    0 -0.10034478318E+02  0.10343958539E+02  0.18363683332E+03  0.18420145163E+03  0.00000000000E+00 0. -1.
        -12    1    6    6    0    0 -0.44810840639E+02  0.27179148434E+02  0.53864893050E+02  0.75154136623E+02  0.00000000000E+00 0.  1.
</event>
<event>
12    1  0.8133506E-002  0.2389514E+03  0.7818608E-02  0.1120746E+00
         21   -1    0    0  503  502  0.00000000000E+00  0.00000000000E+00  0.93974617777E+02  0.93974617777E+02  0.00000000000E+00 0. -1.
         21   -1    0    0  501  503 -0.00000000000E+00 -0.00000000000E+00 -0.83790118694E+03  0.83790118694E+03  0.00000000000E+00 0. -1.
          6    2    1    2  501    0 -0.15995090430E+03  0.76344219180E+01 -0.61910632124E+03  0.66361917190E+03  0.17735611670E+03 0.  0.
         24    2    3    3    0    0 -0.36415040076E+02 -0.51619489298E+02 -0.31802861643E+03  0.33279896382E+03  0.74982148733E+02 0.  0.
         -6    2    1    2    0  502  0.15995090430E+03 -0.76344219180E+01 -0.12482024792E+03  0.26825663282E+03  0.17532527078E+03 0.  0.
        -24    2    5    5    0    0  0.52295978195E+02 -0.32226810096E+02 -0.14506255119E+01  0.10261689602E+03  0.82186899264E+02 0.  0.
          5    1    3    3  501    0 -0.12353586422E+03  0.59253911216E+02 -0.30107770481E+03  0.33082020808E+03  0.47000000000E+01 0. -1.
        -11    1    4    4    0    0 -0.41150139395E+02 -0.61463995258E+02 -0.18378039192E+03  0.19810701436E+03  0.00000000000E+00 0.  1.
         12    1    4    4    0    0  0.47350993191E+01  0.98445059597E+01 -0.13424822451E+03  0.13469194946E+03  0.00000000000E+00 0. -1.
         -5    1    5    5    0  502  0.10765492611E+03  0.24592388178E+02 -0.12336962241E+03  0.16563973679E+03  0.47000000000E+01 0.  1.
         11    1    6    6    0    0  0.73116402114E+02 -0.35473175019E+02  0.18485177693E+01  0.81288199771E+02  0.00000000000E+00 0. -1.
        -12    1    6    6    0    0 -0.20820423919E+02  0.32463649236E+01 -0.32991432813E+01  0.21328696252E+02  0.00000000000E+00 0.  1.
</event>
<event>
12    1  0.8133506E-002  0.2262085E+03  0.7818608E-02  0.1129442E+00
         21   -1    0    0  501  502  0.00000000000E+00  0.00000000000E+00  0.24509144849E+03  0.24509144849E+03  0.00000000000E+00 0.  1.
         21   -1    0    0  502  503 -0.00000000000E+00 -0.00000000000E+00 -0.20936865496E+03  0.20936865496E+03  0.00000000000E+00 0.  1.
         -6    2    1    2    0  503  0.12044003105E+03 -0.83210087069E+02  0.34544999493E+02  0.22883102052E+03  0.17245451369E+03 0.  0.
        -24    2    3    3    0    0  0.54018491901E+02 -0.13825216581E+02  0.76956618937E+02  0.12372670767E+03  0.79226529089E+02 0.  0.
          6    2    1    2  501    0 -0.12044003105E+03  0.83210087069E+02  0.11777940305E+01  0.22562908293E+03  0.17168976730E+03 0.  0.
         24    2    5    5    0    0 -0.48730334649E+02  0.46671697825E+02 -0.63285210000E+02  0.12240649173E+03  0.80158833069E+02 0.  0.
          5    1    5    5  501    0 -0.71709696403E+02  0.36538389244E+02  0.64463004030E+02  0.10322259121E+03  0.47000000000E+01 0. -1.
        -13    1    6    6    0    0 -0.10618549379E+02  0.39722278645E+02  0.74223928685E+01  0.41781633854E+02  0.00000000000E+00 0.  1.
         14    1    6    6    0    0 -0.38111785270E+02  0.69494191802E+01 -0.70707602868E+02  0.80624857871E+02  0.00000000000E+00 0. -1.
         -5    1    3    3    0  503  0.66421539151E+02 -0.69384870488E+02 -0.42411619444E+02  0.10510431285E+03  0.47000000000E+01 0.  1.
         11    1    4    4    0    0  0.27473329314E+01 -0.10072911884E+02  0.71240593717E+02  0.72001622101E+02  0.00000000000E+00 0. -1.
        -12    1    4    4    0    0  0.51271158970E+02 -0.37523046965E+01  0.57160252203E+01  0.51725085567E+02  0.00000000000E+00 0.  1.
</event>
<event>
12    1  0.8133506E-002  0.3467781E+03  0.7818608E-02  0.1063962E+00
         21   -1    0    0  503  502  0.00000000000E+00  0.00000000000E+00  0.26762491286E+03  0.26762491286E+03  0.00000000000E+00 0.  1.
         21   -1    0    0  501  503 -0.00000000000E+00 -0.00000000000E+00 -0.45493846134E+03  0.45493846134E+03  0.00000000000E+00 0. -1.
          6    2    1    2  501    0 -0.21373230007E+03  0.21178248716E+03 -0.13443267551E+03  0.37177653949E+03  0.17208234400E+03 0.  0.
         24    2    3    3    0    0 -0.23431109117E+03  0.20630258533E+03 -0.11274102521E+03  0.34101725374E+03  0.78229051027E+02 0.  0.
         -6    2    1    2    0  502  0.21373230007E+03 -0.21178248716E+03 -0.52880872977E+02  0.35078683470E+03  0.17239982226E+03 0.  0.
        -24    2    5    5    0    0  0.52708266636E+02 -0.66241411537E+02 -0.65421650082E+02  0.13332349268E+03  0.79555486458E+02 0.  0.
          5    1    3    3  501    0  0.20578791106E+02  0.54799018301E+01 -0.21691650292E+02  0.30759285750E+02  0.47000000000E+01 0. -1.
        -13    1    4    4    0    0 -0.27339751679E+02  0.54735911544E+00  0.20234832583E+01  0.27419994682E+02  0.00000000000E+00 0.  1.
         14    1    4    4    0    0 -0.20697133949E+03  0.20575522621E+03 -0.11476450847E+03  0.31359725906E+03  0.00000000000E+00 0. -1.
         -5    1    5    5    0  502  0.16102403343E+03 -0.14554107562E+03  0.12540777105E+02  0.21746334203E+03  0.47000000000E+01 0.  1.
         13    1    6    6    0    0  0.71751976301E+02 -0.56510148793E+02 -0.38947981034E+02  0.99290927311E+02  0.00000000000E+00 0. -1.
        -14    1    6    6    0    0 -0.19043709665E+02 -0.97312627436E+01 -0.26473669048E+02  0.34032565364E+02  0.00000000000E+00 0.  1.
</event>
<event>
12    1  0.8133506E-002  0.2057877E+03  0.7818608E-02  0.1145010E+00
         21   -1    0    0  501  502  0.00000000000E+00  0.00000000000E+00  0.19127631641E+04  0.19127631641E+04  0.00000000000E+00 0. -1.
         21   -1    0    0  502  503 -0.00000000000E+00 -0.00000000000E+00 -0.46600873296E+02  0.46600873296E+02  0.00000000000E+00 0. -1.
         -6    2    1    2    0  503  0.93462382532E+02 -0.62872882400E+02  0.22314851341E+03  0.30355203802E+03  0.17222184663E+03 0.  0.
        -24    2    3    3    0    0  0.96189644554E+01  0.57842151907E+01  0.15863824215E+03  0.17734910262E+03  0.78489685349E+02 0.  0.
          6    2    1    2  501    0 -0.93462382532E+02  0.62872882400E+02  0.16430137773E+04  0.16558119993E+04  0.17184553614E+03 0.  0.
         24    2    5    5    0    0 -0.10847293495E+02  0.69568516863E+02  0.59153557429E+03  0.60106151416E+03  0.80019784079E+02 0.  0.
          5    1    5    5  501    0 -0.82615089037E+02 -0.66956344623E+01  0.10514782031E+04  0.10547504852E+04  0.47000000000E+01 0. -1.
        -11    1    6    6    0    0 -0.18820668353E+02  0.17889511856E+02  0.44419899909E+02  0.51452693804E+02  0.00000000000E+00 0.  1.
         12    1    6    6    0    0  0.79733748584E+01  0.51679005007E+02  0.54711567438E+03  0.54960882036E+03  0.00000000000E+00 0. -1.
         -5    1    3    3    0  503  0.83843418077E+02 -0.68657097591E+02  0.64510271263E+02  0.12620293540E+03  0.47000000000E+01 0.  1.
         11    1    4    4    0    0  0.39507491910E+02 -0.64328207849E+01  0.50195271769E+02  0.64201155817E+02  0.00000000000E+00 0. -1.
        -12    1    4    4    0    0 -0.29888527454E+02  0.12217035976E+02  0.10844297038E+03  0.11314794681E+03  0.00000000000E+00 0.  1.
</event>
<event>
12    1  0.8133506E-002  0.1770813E+03  0.7818608E-02  0.1170718E+00
         21   -1    0    0  501  502  0.00000000000E+00  0.00000000000E+00  0.30822203779E+04  0.30822203779E+04  0.00000000000E+00 0.  1.
         21   -1    0    0  502  503 -0.00000000000E+00 -0.00000000000E+00 -0.14779303080E+02  0.14779303080E+02  0.00000000000E+00 0. -1.
         -6    2    1    2    0  503  0.41876698821E+00  0.40719815373E+02  0.66727398732E+03  0.69030904383E+03  0.17208638268E+03 0.  0.
        -24    2    3    3    0    0 -0.17466820213E+02  0.55216698967E+02  0.65727672202E+03  0.66477300700E+03  0.80972142566E+02 0.  0.
          6    2    1    2  501    0 -0.41876698821E+00 -0.40719815373E+02  0.24001670875E+04  0.24066906371E+04  0.17233541807E+03 0.  0.
         24    2    5    5    0    0 -0.59838945667E+02 -0.52769289561E+02  0.16737778777E+04  0.16777603787E+04  0.83559603773E+02 0.  0.
          5    1    5    5  501    0  0.59420178679E+02  0.12049474188E+02  0.72638920982E+03  0.72893025840E+03  0.47000000000E+01 0. -1.
        -13    1    6    6    0    0 -0.13432321448E+02 -0.32630559229E+01  0.10845656725E+04  0.10846537570E+04  0.00000000000E+00 0.  1.
         14    1    6    6    0    0 -0.46406624219E+02 -0.49506233638E+02  0.58921220521E+03  0.59310662170E+03  0.00000000000E+00 0. -1.
         -5    1    3    3    0  503  0.17885587201E+02 -0.14496883594E+02  0.99972653038E+01  0.25536036830E+02  0.47000000000E+01 0.  1.
         13    1    4    4    0    0 -0.46151132632E+02  0.13835186995E+02  0.36899514555E+03  0.37212733960E+03  0.00000000000E+00 0. -1.
        -14    1    4    4    0    0  0.28684312419E+02  0.41381511972E+02  0.28828157647E+03  0.29264566739E+03  0.00000000000E+00 0.  1.
</event>
<event>
12    1  0.8133506E-002  0.1840999E+03  0.7818608E-02  0.1164119E+00
         21   -1    0    0  501  502  0.00000000000E+00  0.00000000000E+00  0.44305865975E+03  0.44305865975E+03  0.00000000000E+00 0.  1.
         21   -1    0    0  502  503 -0.00000000000E+00 -0.00000000000E+00 -0.20484744432E+03  0.20484744432E+03  0.00000000000E+00 0.  1.
         -6    2    1    2    0  503 -0.11889292448E+02  0.63171301845E+02 -0.13760316049E+03  0.22984214951E+03  0.17251323215E+03 0.  0.
        -24    2    3    3    0    0  0.24302699420E+02  0.31612749955E+02 -0.15475884060E+03  0.17863463217E+03  0.79812567346E+02 0.  0.
          6    2    1    2  501    0  0.11889292448E+02 -0.63171301845E+02  0.37581437591E+03  0.41806395456E+03  0.17149068869E+03 0.  0.
         24    2    5    5    0    0 -0.24883861943E+02 -0.88885046519E+02  0.18143504250E+03  0.21851727629E+03  0.79444114388E+02 0.  0.
          5    1    5    5  501    0  0.36773154391E+02  0.25713744674E+02  0.19437933342E+03  0.19954667827E+03  0.47000000000E+01 0. -1.
        -13    1    6    6    0    0 -0.32048477327E+02 -0.34867363586E+02  0.14607204428E+03  0.15355741618E+03  0.00000000000E+00 0.  1.
         14    1    6    6    0    0  0.71646153842E+01 -0.54017682932E+02  0.35362998218E+02  0.64959860113E+02  0.00000000000E+00 0. -1.
         -5    1    3    3    0  503 -0.36191991867E+02  0.31558551890E+02  0.17155680114E+02  0.51207517347E+02  0.47000000000E+01 0.  1.
         13    1    4    4    0    0  0.21218164388E+02 -0.24352249872E+02 -0.44988753237E+02  0.55382582926E+02  0.00000000000E+00 0. -1.
        -14    1    4    4    0    0  0.30845350318E+01  0.55964999827E+02 -0.10977008736E+03  0.12325204924E+03  0.00000000000E+00 0.  1.
</event>
<event>
12    1  0.8133506E-002  0.2659027E+03  0.7818608E-02  0.1103859E+00
         21   -1    0    0  503  502  0.00000000000E+00  0.00000000000E+00  0.30879598692E+03  0.30879598692E+03  0.00000000000E+00 0. -1.
         21   -1    0    0  501  503 -0.00000000000E+00 -0.00000000000E+00 -0.23750538816E+03  0.23750538816E+03  0.00000000000E+00 0. -1.
          6    2    1    2  501    0 -0.13282158290E+03  0.15193313292E+03 -0.19692839206E+02  0.26663097102E+03  0.17314449753E+03 0.  0.
         24    2    3    3    0    0 -0.63898243227E+02  0.15384768679E+03 -0.46070198216E+02  0.19265835894E+03  0.85103959300E+02 0.  0.
         -6    2    1    2    0  502  0.13282158290E+03 -0.15193313292E+03  0.90983437966E+02  0.27967040406E+03  0.17091605880E+03 0.  0.
        -24    2    5    5    0    0  0.15881717801E+03 -0.11043298237E+03  0.96202365373E+02  0.23019959788E+03  0.79489748627E+02 0.  0.
          5    1    3    3  501    0 -0.68923339677E+02 -0.19145538692E+01  0.26377359010E+02  0.73972612074E+02  0.47000000000E+01 0. -1.
        -11    1    4    4    0    0 -0.45205041555E+02  0.14844227339E+03 -0.14865116967E+02  0.15588321273E+03  0.00000000000E+00 0.  1.
         12    1    4    4    0    0 -0.18693201672E+02  0.54054134031E+01 -0.31205081249E+02  0.36775146207E+02  0.00000000000E+00 0. -1.
         -5    1    5    5    0  502 -0.25995595103E+02 -0.41500150546E+02 -0.52189274074E+01  0.49470806172E+02  0.47000000000E+01 0.  1.
         13    1    6    6    0    0  0.80933731358E+02 -0.10277464677E+03  0.57551306963E+02  0.14291623359E+03  0.00000000000E+00 0. -1.
        -14    1    6    6    0    0  0.77883446649E+02 -0.76583356007E+01  0.38651058410E+02  0.87283364293E+02  0.00000000000E+00 0.  1.
</event>
<event>
12    1  0.8133506E-002  0.2323904E+03  0.7818608E-02  0.1125944E+00
         21   -1    0    0  501  502  0.00000000000E+00  0.00000000000E+00  0.62162338625E+03  0.62162338625E+03  0.00000000000E+00 0.  1.
         21   -1    0    0  502  503 -0.00000000000E+00 -0.00000000000E+00 -0.86452693103E+02  0.86452693103E+02  0.00000000000E+00 0.  1.
         -6    2    1    2    0  503 -0.11802377184E+03  0.87056953392E+02  0.22204782273E+03  0.32141952652E+03  0.18026855688E+03 0.  0.
        -24    2    3    3    0    0 -0.72985799621E+01  0.63002057257E+01  0.14272895433E+03  0.16300458627E+03  0.78140763250E+02 0.  0.
          6    2    1    2  501    0  0.11802377184E+03 -0.87056953392E+02  0.31312287042E+03  0.38665655283E+03  0.17305731424E+03 0.  0.
         24    2    5    5    0    0  0.13915202901E+03 -0.38708658399E+02  0.27170240126E+03  0.31941292008E+03  0.85678300942E+02 0.  0.
          5    1    5    5  501    0 -0.21128257165E+02 -0.48348294993E+02  0.41420469159E+02  0.67243632746E+02  0.47000000000E+01 0. -1.
        -11    1    6    6    0    0  0.92227997085E+02 -0.66221466435E+02  0.18419266366E+03  0.21637519130E+03  0.00000000000E+00 0.  1.
         12    1    6    6    0    0  0.46924031922E+02  0.27512808037E+02  0.87509737601E+02  0.10303772878E+03  0.00000000000E+00 0. -1.
         -5    1    3    3    0  503 -0.11072519188E+03  0.80756747666E+02  0.79318868398E+02  0.15841494025E+03  0.47000000000E+01 0.  1.
         11    1    4    4    0    0 -0.29231873907E+02 -0.17772242667E+02  0.11579734851E+03  0.12074510749E+03  0.00000000000E+00 0. -1.
        -12    1    4    4    0    0  0.21933293945E+02  0.24072448393E+02  0.26931605817E+02  0.42259478781E+02  0.00000000000E+00 0.  1.
</event>
<event>
12    1  0.8133506E-002  0.1975591E+03  0.7818608E-02  0.1151878E+00
         21   -1    0    0  501  502  0.00000000000E+00  0.00000000000E+00  0.14350204987E+04  0.14350204987E+04  0.00000000000E+00 0.  1.
         21   -1    0    0  502  503 -0.00000000000E+00 -0.00000000000E+00 -0.27466303185E+02  0.27466303185E+02  0.00000000000E+00 0.  1.
         -6    2    1    2    0  503  0.87724465622E+02  0.39391647451E+02  0.62568022402E+03  0.65603995040E+03  0.17223643640E+03 0.  0.
        -24    2    3    3    0    0  0.46136372608E+02 -0.41840985447E+02  0.39702154293E+03  0.40979780826E+03  0.80180453715E+02 0.  0.
          6    2    1    2  501    0 -0.87724465622E+02 -0.39391647451E+02  0.78187397144E+03  0.80644685144E+03  0.17257558697E+03 0.  0.
         24    2    5    5    0    0 -0.25905515701E+02  0.10940042960E+02  0.19761926691E+03  0.21676006051E+03  0.84503070323E+02 0.  0.
          5    1    5    5  501    0 -0.61818949920E+02 -0.50331690411E+02  0.58425470453E+03  0.58968679093E+03  0.47000000000E+01 0. -1.
        -11    1    6    6    0    0 -0.36048428464E+02  0.34597159512E+02  0.17658874264E+03  0.18352121586E+03  0.00000000000E+00 0.  1.
         12    1    6    6    0    0  0.10142912763E+02 -0.23657116553E+02  0.21030524268E+02  0.33238844653E+02  0.00000000000E+00 0. -1.
         -5    1    3    3    0  503  0.41588093014E+02  0.81232632899E+02  0.22865868109E+03  0.24624214214E+03  0.47000000000E+01 0.  1.
         13    1    4    4    0    0 -0.20074320772E+02 -0.57193587821E+01  0.42587617460E+02  0.47427782789E+02  0.00000000000E+00 0. -1.
        -14    1    4    4    0    0  0.66210693381E+02 -0.36121626665E+02  0.35443392547E+03  0.36237002547E+03  0.00000000000E+00 0.  1.
</event>
<event>
12    1  0.8133506E-002  0.2280653E+03  0.7818608E-02  0.1128152E+00
         21   -1    0    0  503  502  0.00000000000E+00  0.00000000000E+00  0.11216558813E+04  0.11216558813E+04  0.00000000000E+00 0.  1.
         21   -1    0    0  501  503 -0.00000000000E+00 -0.00000000000E+00 -0.10505643982E+03  0.10505643982E+03  0.00000000000E+00 0. -1.
          6    2    1    2  501    0  0.81518787225E+02  0.12407078191E+03  0.48852423809E+02  0.23245477405E+03  0.17207495772E+03 0.  0.
         24    2    3    3    0    0  0.77953735276E+02  0.94523789311E+02 -0.29310366667E+02  0.14868576915E+03  0.78973595368E+02 0.  0.
         -6    2    1    2    0  502 -0.81518787225E+02 -0.12407078191E+03  0.96774701770E+03  0.99425754709E+03  0.17313263147E+03 0.  0.
        -24    2    5    5    0    0 -0.10045732400E+03 -0.57369132846E+02  0.43154070870E+03  0.45356625442E+03  0.78179745007E+02 0.  0.
          5    1    3    3  501    0  0.35650519487E+01  0.29546992598E+02  0.78162790477E+02  0.83769004901E+02  0.47000000000E+01 0. -1.
        -11    1    4    4    0    0 -0.14838780655E+02  0.23901643782E+02  0.11708953715E+01  0.28157574164E+02  0.00000000000E+00 0.  1.
         12    1    4    4    0    0  0.92792515932E+02  0.70622145529E+02 -0.30481262039E+02  0.12052819499E+03  0.00000000000E+00 0. -1.
         -5    1    5    5    0  502  0.18938536772E+02 -0.66701649064E+02  0.53620630900E+03  0.54069129267E+03  0.47000000000E+01 0.  1.
         13    1    6    6    0    0 -0.42713045904E+02 -0.13992859220E+02  0.59434429891E+02  0.74516144935E+02  0.00000000000E+00 0. -1.
        -14    1    6    6    0    0 -0.57744278092E+02 -0.43376273626E+02  0.37210627881E+03  0.37905010948E+03  0.00000000000E+00 0.  1.
</event>
<event>
12    1  0.8133506E-002  0.2023339E+03  0.7818608E-02  0.1147809E+00
         21   -1    0    0  501  502  0.00000000000E+00  0.00000000000E+00  0.90723576041E+03  0.90723576041E+03  0.00000000000E+00 0. -1.
         21   -1    0    0  502  503 -0.00000000000E+00 -0.00000000000E+00 -0.12345858962E+03  0.12345858962E+03  0.00000000000E+00 0. -1.
         -6    2    1    2    0  503  0.24379162572E+02  0.10334443020E+03 -0.18638072425E+02  0.20319046627E+03  0.17223406462E+03 0.  0.
        -24    2    3    3    0    0 -0.23430110054E+02 -0.58738960394E+00 -0.25781445809E+02  0.88470513774E+02  0.81320561826E+02 0.  0.
          6    2    1    2  501    0 -0.24379162572E+02 -0.10334443020E+03  0.80241524322E+03  0.82750388377E+03  0.17209892586E+03 0.  0.
         24    2    5    5    0    0 -0.67378387795E+01  0.16398473470E+02  0.27272966870E+03  0.28414536755E+03  0.77735508699E+02 0.  0.
          5    1    5    5  501    0 -0.17641323792E+02 -0.11974290367E+03  0.52968557452E+03  0.54335851621E+03  0.47000000000E+01 0. -1.
        -13    1    6    6    0    0 -0.20266804669E+01  0.40611354775E+02  0.23857093265E+03  0.24201132096E+03  0.00000000000E+00 0.  1.
         14    1    6    6    0    0 -0.47111583126E+01 -0.24212881305E+02  0.34158736047E+02  0.42134046591E+02  0.00000000000E+00 0. -1.
         -5    1    3    3    0  503  0.47809272626E+02  0.10393181980E+03  0.71433733839E+01  0.11471995249E+03  0.47000000000E+01 0.  1.
         13    1    4    4    0    0  0.52516794801E+01  0.33857388461E+02 -0.27013659138E+02  0.43630730807E+02  0.00000000000E+00 0. -1.
        -14    1    4    4    0    0 -0.28681789534E+02 -0.34444778065E+02  0.12322133291E+01  0.44839782967E+02  0.00000000000E+00 0.  1.
</event>
<event>
12    1  0.8133506E-002  0.2786810E+03  0.7818608E-02  0.1096460E+00
         21   -1    0    0  503  502  0.00000000000E+00  0.00000000000E+00  0.22642543124E+03  0.22642543124E+03  0.00000000000E+00 0. -1.
         21   -1    0    0  501  503 -0.00000000000E+00 -0.00000000000E+00 -0.42030015211E+03  0.42030015211E+03  0.00000000000E+00 0.  1.
          6    2    1    2  501    0  0.21194156241E+03  0.51833041998E+02  0.42183133104E+02  0.28150452819E+03  0.17279899466E+03 0.  0.
         24    2    3    3    0    0  0.64886399670E+02  0.56280459751E+02 -0.26043031283E+02  0.11926427449E+03  0.78536569062E+02 0.  0.
         -6    2    1    2    0  502 -0.21194156241E+03 -0.51833041998E+02 -0.23605785397E+03  0.36522105515E+03  0.17337017790E+03 0.  0.
        -24    2    5    5    0    0 -0.13911451981E+03  0.23535759021E+02 -0.19271727794E+03  0.25171013131E+03  0.79443435316E+02 0.  0.
          5    1    3    3  501    0  0.14705516274E+03 -0.44474177524E+01  0.68226164387E+02  0.16224025369E+03  0.47000000000E+01 0. -1.
        -11    1    4    4    0    0  0.50743261555E+02  0.20570638413E+02 -0.49873526789E+02  0.74063475697E+02  0.00000000000E+00 0.  1.
         12    1    4    4    0    0  0.14143138115E+02  0.35709821338E+02  0.23830495506E+02  0.45200798796E+02  0.00000000000E+00 0. -1.
         -5    1    5    5    0  502 -0.72827042592E+02 -0.75368801019E+02 -0.43340576039E+02  0.11351092384E+03  0.47000000000E+01 0.  1.
         13    1    6    6    0    0 -0.52902429487E+02 -0.12536115177E+02 -0.25279238314E+02  0.59957160699E+02  0.00000000000E+00 0. -1.
        -14    1    6    6    0    0 -0.86212090327E+02  0.36071874199E+02 -0.16743803962E+03  0.19175297061E+03  0.00000000000E+00 0.  1.
</event>
<event>
12    1  0.8133506E-002  0.2049628E+03  0.7818608E-02  0.1145761E+00
         21   -1    0    0  501  502  0.00000000000E+00  0.00000000000E+00  0.10974613792E+03  0.10974613792E+03  0.00000000000E+00 0. -1.
         21   -1    0    0  502  503 -0.00000000000E+00 -0.00000000000E+00 -0.44377797644E+03  0.44377797644E+03  0.00000000000E+00 0. -1.
         -6    2    1    2    0  503 -0.77239502609E+02  0.80014738257E+02 -0.27095048691E+03  0.33974096738E+03  0.17216695228E+03 0.  0.
        -24    2    3    3    0    0 -0.57047328324E+02  0.12240837421E+03 -0.21663864951E+03  0.26779091558E+03  0.80879306748E+02 0.  0.
          6    2    1    2  501    0  0.77239502609E+02 -0.80014738257E+02 -0.63081351614E+02  0.21378314699E+03  0.17133498742E+03 0.  0.
         24    2    5    5    0    0  0.68651951805E+02  0.63691009078E+00 -0.75858243089E+02  0.13154098405E+03  0.82674429529E+02 0.  0.
          5    1    5    5  501    0  0.85875508040E+01 -0.80651648348E+02  0.12776891475E+02  0.82242162945E+02  0.47000000000E+01 0. -1.
        -13    1    6    6    0    0  0.71068259674E+02 -0.94452152600E+01 -0.89330111078E+02  0.11454160104E+03  0.00000000000E+00 0.  1.
         14    1    6    6    0    0 -0.24163078694E+01  0.10082125351E+02  0.13471867989E+02  0.16999383001E+02  0.00000000000E+00 0. -1.
         -5    1    3    3    0  503 -0.20192174284E+02 -0.42393635956E+02 -0.54311837394E+02  0.71950051793E+02  0.47000000000E+01 0.  1.
         11    1    4    4    0    0 -0.21974416596E+02  0.19806123825E+01 -0.76956721708E+02  0.80057072306E+02  0.00000000000E+00 0. -1.
        -12    1    4    4    0    0 -0.35072911729E+02  0.12042776183E+03 -0.13968192781E+03  0.18773384328E+03  0.00000000000E+00 0.  1.
</event>
<event>
12    1  0.8133506E-002  0.2099290E+03  0.7818608E-02  0.1142138E+00
         21   -1    0    0  503  502  0.00000000000E+00  0.00000000000E+00  0.10989495646E+03  0.10989495646E+03  0.00000000000E+00 0.  1.
         21   -1    0    0  501  503 -0.00000000000E+00 -0.00000000000E+00 -0.43874351595E+03  0.43874351595E+03  0.00000000000E+00 0.  1.
          6    2    1    2  501    0 -0.76083187457E+02 -0.87541997510E+02 -0.25087485354E+03  0.32712134782E+03  0.17497980260E+03 0.  0.
         24    2    3    3    0    0 -0.71617587942E+01 -0.98095579563E+02 -0.21428707622E+03  0.24823981086E+03  0.77653197901E+02 0.  0.
         -6    2    1    2    0  502  0.76083187457E+02  0.87541997510E+02 -0.77973705953E+02  0.22151712459E+03  0.17186531041E+03 0.  0.
        -24    2    5    5    0    0  0.16123462323E+02 -0.19734261759E+02 -0.22538097513E+02  0.86615081889E+02  0.79654249395E+02 0.  0.
          5    1    3    3  501    0 -0.68921428663E+02  0.10553582053E+02 -0.36587777324E+02  0.78881536956E+02  0.47000000000E+01 0. -1.
        -11    1    4    4    0    0  0.29553278883E+02 -0.14515328301E+02 -0.43151583862E+02  0.54278450957E+02  0.00000000000E+00 0.  1.
         12    1    4    4    0    0 -0.36715037678E+02 -0.83580251262E+02 -0.17113549236E+03  0.19396135991E+03  0.00000000000E+00 0. -1.
         -5    1    5    5    0  502  0.59959725134E+02  0.10727625927E+03 -0.55435608439E+02  0.13490204270E+03  0.47000000000E+01 0.  1.
         11    1    6    6    0    0  0.38053546559E+02  0.15296659323E+02 -0.36518674429E+01  0.41175190685E+02  0.00000000000E+00 0. -1.
        -12    1    6    6    0    0 -0.21930084235E+02 -0.35030921081E+02 -0.18886230070E+02  0.45439891204E+02  0.00000000000E+00 0.  1.
</event>
<event>
12    1  0.8133506E-002  0.2171774E+03  0.7818608E-02  0.1136281E+00
         21   -1    0    0  503  502  0.00000000000E+00  0.00000000000E+00  0.19642196167E+03  0.19642196167E+03  0.00000000000E+00 0. -1.
         21   -1    0    0  501  503 -0.00000000000E+00 -0.00000000000E+00 -0.56874561968E+03  0.56874561968E+03  0.00000000000E+00 0. -1.
          6    2    1    2  501    0 -0.13065534132E+03 -0.69512611345E+00 -0.47794325620E+03  0.52497216229E+03  0.17347827995E+03 0.  0.
         24    2    3    3    0    0 -0.12575266724E+02 -0.22277191492E+02 -0.10822290398E+03  0.13622556307E+03  0.78681614706E+02 0.  0.
         -6    2    1    2    0  502  0.13065534132E+03  0.69512611345E+00  0.10561959819E+03  0.24019541907E+03  0.17165965865E+03 0.  0.
        -24    2    5    5    0    0  0.29611240024E+02 -0.50358355862E+02  0.25453145843E+02  0.10139657718E+03  0.78870867183E+02 0.  0.
          5    1    3    3  501    0 -0.11808007460E+03  0.21582065378E+02 -0.36972035222E+03  0.38874659922E+03  0.47000000000E+01 0. -1.
        -13    1    4    4    0    0 -0.14034278166E+01 -0.29154508780E+01 -0.11326424833E+03  0.11331045589E+03  0.00000000000E+00 0.  1.
         14    1    4    4    0    0 -0.11171838907E+02 -0.19361740614E+02  0.50413443501E+01  0.22915107179E+02  0.00000000000E+00 0. -1.
         -5    1    5    5    0  502  0.10104410130E+03  0.51053481976E+02  0.80166452343E+02  0.13879884189E+03  0.47000000000E+01 0.  1.
         13    1    6    6    0    0  0.47135882998E+02 -0.41143765107E+02 -0.74364550460E+01  0.63007156234E+02  0.00000000000E+00 0. -1.
        -14    1    6    6    0    0 -0.17524642973E+02 -0.92145907557E+01  0.32889600889E+02  0.38389420948E+02  0.00000000000E+00 0.  1.
</event>
<event>
12    1  0.8133506E-002  0.2052776E+03  0.7818608E-02  0.1145424E+00
         21   -1    0    0  501  502  0.00000000000E+00  0.00000000000E+00  0.15956605391E+04  0.15956605391E+04  0.00000000000E+00 0.  1.
         21   -1    0    0  502  503 -0.00000000000E+00 -0.00000000000E+00 -0.15285082181E+03  0.15285082181E+03  0.00000000000E+00 0.  1.
         -6    2    1    2    0  503  0.36998143711E+02 -0.10599362523E+03 -0.73779341783E+02  0.21813366910E+03  0.17185864858E+03 0.  0.
        -24    2    3    3    0    0  0.71621386806E+02 -0.75885924477E+02 -0.95059198418E+02  0.16733834544E+03  0.89875325144E+02 0.  0.
          6    2    1    2  501    0 -0.36998143711E+02  0.10599362523E+03  0.15165890590E+04  0.15303776918E+04  0.17149342334E+03 0.  0.
         24    2    5    5    0    0 -0.34083747082E+02  0.13910400428E+03  0.13398327052E+04  0.13504619073E+04  0.89911395859E+02 0.  0.
          5    1    5    5  501    0 -0.29143966290E+01 -0.33110379051E+02  0.17675635379E+03  0.17991578451E+03  0.47000000000E+01 0. -1.
        -13    1    6    6    0    0 -0.32248343242E+02  0.77426929512E+02  0.10861136163E+04  0.10893473609E+04  0.00000000000E+00 0.  1.
         14    1    6    6    0    0 -0.18354038407E+01  0.61677074768E+02  0.25371908892E+03  0.26111454640E+03  0.00000000000E+00 0. -1.
         -5    1    3    3    0  503 -0.34623243094E+02 -0.30107700752E+02  0.21279856636E+02  0.50795323656E+02  0.47000000000E+01 0.  1.
         13    1    4    4    0    0  0.84082638178E+02 -0.28726217722E+02 -0.58556085783E+02  0.10641381870E+03  0.00000000000E+00 0. -1.
        -14    1    4    4    0    0 -0.12461251372E+02 -0.47159706756E+02 -0.36503112635E+02  0.60924526745E+02  0.00000000000E+00 0.  1.
</event>
<event>
12    1  0.8133506E-002  0.3033074E+03  0.7818608E-02  0.1083695E+00
         21   -1    0    0  503  502  0.00000000000E+00  0.00000000000E+00  0.22420939194E+04  0.22420939194E+04  0.00000000000E+00 0. -1.
         21   -1    0    0  501  503 -0.00000000000E+00 -0.00000000000E+00 -0.44609557258E+02  0.44609557258E+02  0.00000000000E+00 0.  1.
          6    2    1    2  501    0 -0.24606091910E+03  0.44957276918E+02  0.77148558927E+03  0.82896647040E+03  0.17154667571E+03 0.  0.
         24    2    3    3    0    0 -0.75202672618E+02  0.57604516087E+02  0.23430424807E+03  0.26510622497E+03  0.80056902332E+02 0.  0.
         -6    2    1    2    0  502  0.24606091910E+03 -0.44957276918E+02  0.14259987728E+04  0.14577370062E+04  0.17016917027E+03 0.  0.
        -24    2    5    5    0    0  0.24284191649E+03 -0.12758231144E+02  0.13625470807E+04  0.13863553016E+04  0.79444988058E+02 0.  0.
          5    1    3    3  501    0 -0.17085824648E+03 -0.12647239169E+02  0.53718134120E+03  0.56386024543E+03  0.47000000000E+01 0. -1.
        -13    1    4    4    0    0 -0.57613018891E+02  0.99530862163E+00  0.71394489682E+02  0.91746518963E+02  0.00000000000E+00 0.  1.
         14    1    4    4    0    0 -0.17589653727E+02  0.56609207465E+02  0.16290975839E+03  0.17335970601E+03  0.00000000000E+00 0. -1.
         -5    1    5    5    0  502  0.32190026092E+01 -0.32199045774E+02  0.63451692092E+02  0.71381704631E+02  0.47000000000E+01 0.  1.
         13    1    6    6    0    0  0.16660503246E+03  0.20198915730E+02  0.77469245840E+03  0.79266237336E+03  0.00000000000E+00 0. -1.
        -14    1    6    6    0    0  0.76236884034E+02 -0.32957146874E+02  0.58785462234E+03  0.59369292822E+03  0.00000000000E+00 0.  1.
</event>
<event>
12    1  0.8133506E-002  0.2069046E+03  0.7818608E-02  0.1144425E+00
         21   -1    0    0  503  502  0.00000000000E+00  0.00000000000E+00  0.57640441148E+03  0.57640441148E+03  0.00000000000E+00 0. -1.
         21   -1    0    0  501  503 -0.00000000000E+00 -0.00000000000E+00 -0.76566454072E+02  0.76566454072E+02  0.00000000000E+00 0. -1.
          6    2    1    2  501    0  0.80384906516E+02 -0.82387115098E+02  0.31537259128E+03  0.37718615500E+03  0.17193066703E+03 0.  0.
         24    2    3    3    0    0  0.22090736909E+02  0.20032462196E+02  0.17870408194E+03  0.19666371466E+03  0.76499461183E+02 0.  0.
         -6    2    1    2    0  502 -0.80384906516E+02  0.82387115098E+02  0.18446536612E+03  0.27578471054E+03  0.16964776846E+03 0.  0.
        -24    2    5    5    0    0 -0.35344350024E+02  0.11473010288E+03  0.15859036046E+03  0.21441430640E+03  0.80064803564E+02 0.  0.
          5    1    3    3  501    0  0.58294169607E+02 -0.10241957729E+03  0.13666850934E+03  0.18052244035E+03  0.47000000000E+01 0. -1.
        -13    1    4    4    0    0 -0.27701359173E+02  0.15706705952E+02  0.77631501229E+02  0.83908973864E+02  0.00000000000E+00 0.  1.
         14    1    4    4    0    0  0.49792096082E+02  0.43257562434E+01  0.10107258071E+03  0.11275474079E+03  0.00000000000E+00 0. -1.
         -5    1    5    5    0  502 -0.45040556492E+02 -0.32342987780E+02  0.25875005656E+02  0.61370404148E+02  0.47000000000E+01 0.  1.
         13    1    6    6    0    0 -0.50596350337E+02  0.31444077380E+02  0.68505384124E+02  0.90783854972E+02  0.00000000000E+00 0. -1.
        -14    1    6    6    0    0  0.15252000312E+02  0.83286025498E+02  0.90084976341E+02  0.12363045142E+03  0.00000000000E+00 0.  1.
</event>
<event>
12    1  0.8133506E-002  0.1742717E+03  0.7818608E-02  0.1173715E+00
         21   -1    0    0  503  502  0.00000000000E+00  0.00000000000E+00  0.41590955734E+03  0.41590955734E+03  0.00000000000E+00 0. -1.
         21   -1    0    0  501  503 -0.00000000000E+00 -0.00000000000E+00 -0.19973833347E+03  0.19973833347E+03  0.00000000000E+00 0. -1.
          6    2    1    2  501    0  0.62408577988E+01  0.17869717280E+02 -0.13738354989E+03  0.22191182460E+03  0.17324070831E+03 0.  0.
         24    2    3    3    0    0  0.39589505591E+02 -0.21204019850E+02 -0.19152429674E+02  0.92917340106E+02  0.79056164334E+02 0.  0.
         -6    2    1    2    0  502 -0.62408577988E+01 -0.17869717280E+02  0.35355477375E+03  0.39373606621E+03  0.17224644172E+03 0.  0.
        -24    2    5    5    0    0  0.26367536869E+02 -0.56417410934E+02  0.13382349624E+03  0.16822962194E+03  0.80711252588E+02 0.  0.
          5    1    3    3  501    0 -0.33348647793E+02  0.39073737130E+02 -0.11823112021E+03  0.12899448449E+03  0.47000000000E+01 0. -1.
        -11    1    4    4    0    0 -0.14584961709E+02  0.86112249920E+01  0.14694367618E+02  0.22423174254E+02  0.00000000000E+00 0.  1.
         12    1    4    4    0    0  0.54174467301E+02 -0.29815244842E+02 -0.33846797292E+02  0.70494165853E+02  0.00000000000E+00 0. -1.
         -5    1    5    5    0  502 -0.32608394668E+02  0.38547693654E+02  0.21973127751E+03  0.22550644427E+03  0.47000000000E+01 0.  1.
         11    1    6    6    0    0  0.53483080511E+02 -0.24609843051E+02  0.91045502918E+02  0.10842217429E+03  0.00000000000E+00 0. -1.
        -12    1    6    6    0    0 -0.27115543642E+02 -0.31807567882E+02  0.42777993323E+02  0.59807447649E+02  0.00000000000E+00 0.  1.
</event>
<event>
12    1  0.8133506E-002  0.2606562E+03  0.7818608E-02  0.1106819E+00
         21   -1    0    0  503  502  0.00000000000E+00  0.00000000000E+00  0.78846476864E+03  0.78846476864E+03  0.00000000000E+00 0. -1.
         21   -1    0    0  501  503 -0.00000000000E+00 -0.00000000000E+00 -0.86291437161E+02  0.86291437161E+02  0.00000000000E+00 0. -1.
          6    2    1    2  501    0 -0.13638322669E+03  0.13966750689E+03  0.32672223652E+03  0.41795824154E+03  0.17272601087E+03 0.  0.
         24    2    3    3    0    0 -0.16998282963E+03  0.10874691681E+03  0.27337276817E+03  0.34757875602E+03  0.73200184280E+02 0.  0.
         -6    2    1    2    0  502  0.13638322669E+03 -0.13966750689E+03  0.37545109496E+03  0.45679796426E+03  0.17202749327E+03 0.  0.
        -24    2    5    5    0    0  0.25012543015E+02 -0.55861953525E+02  0.74684685862E+02  0.12527221443E+03  0.79806893476E+02 0.  0.
          5    1    3    3  501    0  0.33599602937E+02  0.30920590081E+02  0.53349468348E+02  0.70379485516E+02  0.47000000000E+01 0. -1.
        -13    1    4    4    0    0 -0.10496610476E+03  0.27421385420E+02  0.11548784864E+03  0.15845270181E+03  0.00000000000E+00 0.  1.
         14    1    4    4    0    0 -0.65016724868E+02  0.81325531392E+02  0.15788491953E+03  0.18912605422E+03  0.00000000000E+00 0. -1.
         -5    1    5    5    0  502  0.11137068367E+03 -0.83805553368E+02  0.30076640910E+03  0.33152574983E+03  0.47000000000E+01 0.  1.
         11    1    6    6    0    0  0.48573466646E+02 -0.32802394873E+02  0.71048603627E+02  0.92104738471E+02  0.00000000000E+00 0. -1.
        -12    1    6    6    0    0 -0.23560923631E+02 -0.23059558652E+02  0.36360822356E+01  0.33167475960E+02  0.00000000000E+00 0.  1.
</event>
<event>
12    1  0.8133506E-002  0.1815767E+03  0.7818608E-02  0.1167349E+00
         21   -1    0    0  501  502  0.00000000000E+00  0.00000000000E+00  0.10764220942E+03  0.10764220942E+03  0.00000000000E+00 0. -1.
         21   -1    0    0  502  503 -0.00000000000E+00 -0.00000000000E+00 -0.39417532439E+03  0.39417532439E+03  0.00000000000E+00 0. -1.
         -6    2    1    2    0  503 -0.39792382948E+02 -0.14416419856E+02 -0.26526339565E+03  0.31899933707E+03  0.17205999268E+03 0.  0.
        -24    2    3    3    0    0 -0.22499186195E+02  0.26832041883E+02 -0.51510444317E+02  0.10056649968E+03  0.78956463528E+02 0.  0.
          6    2    1    2  501    0  0.39792382948E+02  0.14416419856E+02 -0.21269719321E+02  0.18281819674E+03  0.17657526780E+03 0.  0.
         24    2    5    5    0    0  0.58004065165E+02  0.17075000396E+02  0.46610763983E+02  0.11233001736E+03  0.82398071982E+02 0.  0.
          5    1    5    5  501    0 -0.18211682218E+02 -0.26585805398E+01 -0.67880483303E+02  0.70488179386E+02  0.47000000000E+01 0. -1.
        -11    1    6    6    0    0  0.39873811472E+02  0.46199360322E+02  0.94493605047E+01  0.61754288510E+02  0.00000000000E+00 0.  1.
         12    1    6    6    0    0  0.18130253694E+02 -0.29124359926E+02  0.37161403478E+02  0.50575728848E+02  0.00000000000E+00 0. -1.
         -5    1    3    3    0  503 -0.17293196753E+02 -0.41248461739E+02 -0.21375295133E+03  0.21843283740E+03  0.47000000000E+01 0.  1.
         13    1    4    4    0    0 -0.31927368290E+02  0.33498858114E+02 -0.66888131600E+02  0.81336046682E+02  0.00000000000E+00 0. -1.
        -14    1    4    4    0    0  0.94281820953E+01 -0.66668162311E+01  0.15377687283E+02  0.19230452997E+02  0.00000000000E+00 0.  1.
</event>
<event>
12    1  0.8133506E-002  0.2344244E+03  0.7818608E-02  0.1123615E+00
         21   -1    0    0  501  502  0.00000000000E+00  0.00000000000E+00  0.53892299890E+02  0.53892299890E+02  0.00000000000E+00 0. -1.
         21   -1    0    0  502  503 -0.00000000000E+00 -0.00000000000E+00 -0.10193055232E+04  0.10193055232E+04  0.00000000000E+00 0. -1.
         -6    2    1    2    0  503 -0.15654784072E+03 -0.23404695050E+02 -0.46670608823E+03  0.52214102991E+03  0.17251572721E+03 0.  0.
        -24    2    3    3    0    0 -0.17905160295E+03  0.50618538509E+01 -0.40362338750E+03  0.44921448568E+03  0.82442199908E+02 0.  0.
          6    2    1    2  501    0  0.15654784072E+03  0.23404695050E+02 -0.49870713506E+03  0.55105679316E+03  0.17291551853E+03 0.  0.
         24    2    5    5    0    0  0.95088247724E+02  0.78868825033E+02 -0.26241681720E+03  0.30063963001E+03  0.79117221697E+02 0.  0.
          5    1    5    5  501    0  0.61459592994E+02 -0.55464129982E+02 -0.23629031786E+03  0.25041716315E+03  0.47000000000E+01 0. -1.
        -13    1    6    6    0    0  0.32229143449E+02  0.57021789139E+02 -0.19585462607E+03  0.20651691620E+03  0.00000000000E+00 0.  1.
         14    1    6    6    0    0  0.62859104275E+02  0.21847035894E+02 -0.66562191126E+02  0.94122713810E+02  0.00000000000E+00 0. -1.
         -5    1    3    3    0  503  0.22503762234E+02 -0.28466548901E+02 -0.63082700737E+02  0.72926544230E+02  0.47000000000E+01 0.  1.
         13    1    4    4    0    0 -0.70920626848E+02  0.15997004132E+02 -0.81322277891E+02  0.10908231908E+03  0.00000000000E+00 0. -1.
        -14    1    4    4    0    0 -0.10813097610E+03 -0.10935150282E+02 -0.32230110961E+03  0.34013216660E+03  0.00000000000E+00 0.  1.
</event>
<event>
12    1  0.8133506E-002  0.1746045E+03  0.7818608E-02  0.1173817E+00
         21   -1    0    0  501  502  0.00000000000E+00  0.00000000000E+00  0.80617685407E+03  0.80617685407E+03  0.00000000000E+00 0. -1.
         21   -1    0    0  502  503 -0.00000000000E+00 -0.00000000000E+00 -0.50443929692E+02  0.50443929692E+02  0.00000000000E+00 0. -1.
         -6    2    1    2    0  503 -0.44961633218E+00 -0.88317001882E+01  0.16085570214E+03  0.23740530756E+03  0.17438039473E+03 0.  0.
        -24    2    3    3    0    0 -0.29197885375E+02 -0.37749172721E+02  0.24629484308E+02  0.95129675024E+02  0.78520869974E+02 0.  0.
          6    2    1    2  501    0  0.44961633218E+00  0.88317001882E+01  0.59487722224E+03  0.61921547619E+03  0.17167031001E+03 0.  0.
         24    2    5    5    0    0 -0.35595494288E+02 -0.35771721338E+02  0.49483751579E+03  0.50380859564E+03  0.80076705443E+02 0.  0.
          5    1    5    5  501    0  0.36045110620E+02  0.44603421527E+02  0.10003970645E+03  0.11540688055E+03  0.47000000000E+01 0. -1.
        -13    1    6    6    0    0 -0.28638727676E+02  0.20443991225E+02  0.13355815324E+03  0.13811558130E+03  0.00000000000E+00 0.  1.
         14    1    6    6    0    0 -0.69567666120E+01 -0.56215712564E+02  0.36127936254E+03  0.36569301435E+03  0.00000000000E+00 0. -1.
         -5    1    3    3    0  503  0.28748269043E+02  0.28917472533E+02  0.13622621783E+03  0.14227563254E+03  0.47000000000E+01 0.  1.
         13    1    4    4    0    0 -0.22130134473E+02  0.21592491141E+02  0.12069862489E+01  0.30942452089E+02  0.00000000000E+00 0. -1.
        -14    1    4    4    0    0 -0.70677509020E+01 -0.59341663862E+02  0.23422498059E+02  0.64187222935E+02  0.00000000000E+00 0.  1.
</event>
<event>
12    1  0.8133506E-002  0.2048033E+03  0.7818608E-02  0.1145837E+00
         21   -1    0    0  501  502  0.00000000000E+00  0.00000000000E+00  0.18601173460E+03  0.18601173460E+03  0.00000000000E+00 0.  1.
         21   -1    0    0  502  503 -0.00000000000E+00 -0.00000000000E+00 -0.22617081799E+03  0.22617081799E+03  0.00000000000E+00 0.  1.
         -6    2    1    2    0  503  0.28654098098E+02 -0.10537384549E+03 -0.34826034644E+02  0.20774326520E+03  0.17326196033E+03 0.  0.
        -24    2    3    3    0    0  0.31776945567E+02 -0.64309502691E+02  0.41619045161E+02  0.12078366164E+03  0.87812650524E+02 0.  0.
          6    2    1    2  501    0 -0.28654098098E+02  0.10537384549E+03 -0.53330487404E+01  0.20443928739E+03  0.17274917126E+03 0.  0.
         24    2    5    5    0    0 -0.49282864794E+01  0.50702462030E+02 -0.69234881168E+02  0.11693266768E+03  0.79276429891E+02 0.  0.
          5    1    5    5  501    0 -0.23725811618E+02  0.54671383461E+02  0.63901832427E+02  0.87506619715E+02  0.47000000000E+01 0. -1.
        -13    1    6    6    0    0  0.34056912975E+02  0.42362187422E+02 -0.39073340370E+02  0.66941423441E+02  0.00000000000E+00 0.  1.
         14    1    6    6    0    0 -0.38985199454E+02  0.83402746073E+01 -0.30161540798E+02  0.49991244236E+02  0.00000000000E+00 0. -1.
         -5    1    3    3    0  503 -0.31228474693E+01 -0.41064342799E+02 -0.76445079805E+02  0.86959603566E+02  0.47000000000E+01 0.  1.
         11    1    4    4    0    0  0.60614952678E+02 -0.44323428485E+02  0.14596139488E+02  0.76496967840E+02  0.00000000000E+00 0. -1.
        -12    1    4    4    0    0 -0.28838007111E+02 -0.19986074206E+02  0.27022905673E+02  0.44286693795E+02  0.00000000000E+00 0.  1.
</event>
<event>
12    1  0.8133506E-002  0.1955190E+03  0.7818608E-02  0.1153947E+00
         21   -1    0    0  501  502  0.00000000000E+00  0.00000000000E+00  0.70368592061E+03  0.70368592061E+03  0.00000000000E+00 0. -1.
         21   -1    0    0  502  503 -0.00000000000E+00 -0.00000000000E+00 -0.49336805412E+03  0.49336805412E+03  0.00000000000E+00 0. -1.
         -6    2    1    2    0  503  0.90545324967E+02  0.72546722497E+01 -0.45980828522E+03  0.49898753536E+03  0.17121277740E+03 0.  0.
        -24    2    3    3    0    0  0.12665580987E+03  0.18162120023E+02 -0.40698109723E+03  0.43390496221E+03  0.79172886438E+02 0.  0.
          6    2    1    2  501    0 -0.90545324967E+02 -0.72546722497E+01  0.67012615171E+03  0.69806643937E+03  0.17313754193E+03 0.  0.
         24    2    5    5    0    0 -0.12519107782E+03  0.19763475778E+02  0.53379775120E+03  0.55475617701E+03  0.82164321930E+02 0.  0.
          5    1    5    5  501    0  0.34645752852E+02 -0.27018148027E+02  0.13632840051E+03  0.14331026236E+03  0.47000000000E+01 0. -1.
        -11    1    6    6    0    0 -0.43353496002E+02  0.14658528123E+01  0.62637098402E+02  0.76191078456E+02  0.00000000000E+00 0.  1.
         12    1    6    6    0    0 -0.81837581817E+02  0.18297622965E+02  0.47116065280E+03  0.47856509855E+03  0.00000000000E+00 0. -1.
         -5    1    3    3    0  503 -0.36110484908E+02 -0.10907447773E+02 -0.52827187988E+02  0.65082573151E+02  0.47000000000E+01 0.  1.
         13    1    4    4    0    0  0.46694467769E+02 -0.21787833028E+02 -0.81918763327E+02  0.96776891732E+02  0.00000000000E+00 0. -1.
        -14    1    4    4    0    0  0.79961342106E+02  0.39949953050E+02 -0.32506233390E+03  0.33712807048E+03  0.00000000000E+00 0.  1.
</event>
<event>
12    1  0.8133506E-002  0.2630503E+03  0.7818608E-02  0.1105327E+00
         21   -1    0    0  503  502  0.00000000000E+00  0.00000000000E+00  0.50121337404E+03  0.50121337404E+03  0.00000000000E+00 0. -1.
         21   -1    0    0  501  503 -0.00000000000E+00 -0.00000000000E+00 -0.20889216377E+03  0.20889216377E+03  0.00000000000E+00 0.  1.
          6    2    1    2  501    0 -0.18075760124E+03  0.89030429878E+02 -0.60611420659E+02  0.26992724979E+03  0.16907763901E+03 0.  0.
         24    2    3    3    0    0 -0.10386799769E+03  0.12121431859E+03 -0.53006915086E+02  0.18609567858E+03  0.79626607136E+02 0.  0.
         -6    2    1    2    0  502  0.18075760124E+03 -0.89030429878E+02  0.35293263093E+03  0.44017828803E+03  0.16910279545E+03 0.  0.
        -24    2    5    5    0    0  0.54990037646E+02 -0.97103551571E+02  0.18577461262E+03  0.23078261369E+03  0.79343582738E+02 0.  0.
          5    1    3    3  501    0 -0.76889603544E+02 -0.32183888711E+02 -0.76045055733E+01  0.83831571205E+02  0.47000000000E+01 0. -1.
        -11    1    4    4    0    0 -0.10671254473E+03  0.72799295355E+02 -0.31051330221E+02  0.13285890906E+03  0.00000000000E+00 0.  1.
         12    1    4    4    0    0  0.28445470389E+01  0.48415023234E+02 -0.21955584865E+02  0.53236769524E+02  0.00000000000E+00 0. -1.
         -5    1    5    5    0  502  0.12576756359E+03  0.80731216932E+01  0.16715801831E+03  0.20939567434E+03  0.47000000000E+01 0.  1.
         11    1    6    6    0    0  0.69528447340E+02 -0.45001337212E+02  0.11381841443E+03  0.14076205740E+03  0.00000000000E+00 0. -1.
        -12    1    6    6    0    0 -0.14538409694E+02 -0.52102214359E+02  0.71956198189E+02  0.90020556294E+02  0.00000000000E+00 0.  1.
</event>
<event>
12    1  0.8133506E-002  0.1853673E+03  0.7818608E-02  0.1162863E+00
         21   -1    0    0  503  502  0.00000000000E+00  0.00000000000E+00  0.28011322450E+02  0.28011322450E+02  0.00000000000E+00 0.  1.
         21   -1    0    0  501  503 -0.00000000000E+00 -0.00000000000E+00 -0.12500949137E+04  0.12500949137E+04  0.00000000000E+00 0.  1.
          6    2    1    2  501    0 -0.28624276368E+01  0.67684904681E+02 -0.51465320604E+03  0.54679319275E+03  0.17182966372E+03 0.  0.
         24    2    3    3    0    0 -0.16012373079E+01 -0.77158864190E+01 -0.40862273019E+03  0.41659556716E+03  0.80729375606E+02 0.  0.
         -6    2    1    2    0  502  0.28624276368E+01 -0.67684904681E+02 -0.70743038519E+03  0.73131304338E+03  0.17254442244E+03 0.  0.
        -24    2    5    5    0    0  0.62987464195E+02 -0.55630146099E+02 -0.56394123433E+03  0.57519909897E+03  0.75908852426E+02 0.  0.
          5    1    3    3  501    0 -0.12611903289E+01  0.75400791100E+02 -0.10603047585E+03  0.13019762559E+03  0.47000000000E+01 0. -1.
        -11    1    4    4    0    0 -0.25646601639E+02  0.27863258723E+01 -0.43815529959E+02  0.50845967914E+02  0.00000000000E+00 0.  1.
         12    1    4    4    0    0  0.24045364331E+02 -0.10502212291E+02 -0.36480720023E+03  0.36574959925E+03  0.00000000000E+00 0. -1.
         -5    1    5    5    0  502 -0.60125036558E+02 -0.12054758582E+02 -0.14348915087E+03  0.15611394442E+03  0.47000000000E+01 0.  1.
         13    1    6    6    0    0 -0.10012808135E+02  0.10487435188E+02 -0.60413524771E+02  0.62129192807E+02  0.00000000000E+00 0. -1.
        -14    1    6    6    0    0  0.73000272330E+02 -0.66117581288E+02 -0.50352770956E+03  0.51306990616E+03  0.00000000000E+00 0.  1.
</event>
<event>
12    1  0.8133506E-002  0.2295801E+03  0.7818608E-02  0.1127177E+00
         21   -1    0    0  501  502  0.00000000000E+00  0.00000000000E+00  0.49241783210E+03  0.49241783210E+03  0.00000000000E+00 0. -1.
         21   -1    0    0  502  503 -0.00000000000E+00 -0.00000000000E+00 -0.10779711661E+03  0.10779711661E+03  0.00000000000E+00 0.  1.
         -6    2    1    2    0  503  0.38322079310E+02 -0.14649211105E+03  0.15874926269E+03  0.27912064074E+03  0.17256443237E+03 0.  0.
        -24    2    3    3    0    0  0.27383116234E+02 -0.53526212337E+02  0.15651130364E+03  0.18536874637E+03  0.79062592309E+02 0.  0.
          6    2    1    2  501    0 -0.38322079310E+02  0.14649211105E+03  0.22587145279E+03  0.32109430797E+03  0.17074870735E+03 0.  0.
         24    2    5    5    0    0 -0.89430402789E+02  0.10231675784E+03  0.14337360416E+03  0.21436330222E+03  0.83241330426E+02 0.  0.
          5    1    5    5  501    0  0.51108323479E+02  0.44175353215E+02  0.82497848625E+02  0.10673100575E+03  0.47000000000E+01 0. -1.
        -13    1    6    6    0    0  0.95140441277E+01  0.31990410331E+02  0.11936014517E+02  0.35445335820E+02  0.00000000000E+00 0.  1.
         14    1    6    6    0    0 -0.98944446917E+02  0.70326347505E+02  0.13143758965E+03  0.17891796640E+03  0.00000000000E+00 0. -1.
         -5    1    3    3    0  503  0.10938963077E+02 -0.92965898714E+02  0.22379590509E+01  0.93751894368E+02  0.47000000000E+01 0.  1.
         13    1    4    4    0    0  0.22152311510E+02  0.11226888404E+02  0.85906144414E+02  0.89423898240E+02  0.00000000000E+00 0. -1.
        -14    1    4    4    0    0  0.52308047238E+01 -0.64753100741E+02  0.70605159230E+02  0.95944848135E+02  0.00000000000E+00 0.  1.
</event>
<event>
12    1  0.8133506E-002  0.2009379E+03  0.7818608E-02  0.1149103E+00
         21   -1    0    0  501  502  0.00000000000E+00  0.00000000000E+00  0.58822248028E+02  0.58822248028E+02  0.00000000000E+00 0. -1.
         21   -1    0    0  502  503 -0.00000000000E+00 -0.00000000000E+00 -0.70301602297E+03  0.70301602297E+03  0.00000000000E+00 0. -1.
         -6    2    1    2    0  503  0.10046622010E+03 -0.31100358145E+02 -0.38430802932E+03  0.43333158366E+03  0.17036110571E+03 0.  0.
        -24    2    3    3    0    0  0.13336982892E+03 -0.39211174241E+02 -0.34989502835E+03  0.38480553451E+03  0.79521953406E+02 0.  0.
          6    2    1    2  501    0 -0.10046622010E+03  0.31100358145E+02 -0.25988574562E+03  0.32850668734E+03  0.17121725727E+03 0.  0.
         24    2    5    5    0    0  0.13059937241E+01  0.53647140508E+02 -0.11617314549E+03  0.15090786319E+03  0.79982886509E+02 0.  0.
          5    1    5    5  501    0 -0.10177221383E+03 -0.22546782363E+02 -0.14371260013E+03  0.17759882415E+03  0.47000000000E+01 0. -1.
        -11    1    6    6    0    0 -0.79589732051E+01  0.47933681626E+02 -0.12674145246E+03  0.13573643159E+03  0.00000000000E+00 0.  1.
         12    1    6    6    0    0  0.92649669292E+01  0.57134588819E+01  0.10568306968E+02  0.15171431599E+02  0.00000000000E+00 0. -1.
         -5    1    3    3    0  503 -0.32903608813E+02  0.81108160963E+01 -0.34413000970E+02  0.48526049153E+02  0.47000000000E+01 0.  1.
         13    1    4    4    0    0  0.83527688890E+02 -0.50378840364E+02 -0.15345304608E+03  0.18183162464E+03  0.00000000000E+00 0. -1.
        -14    1    4    4    0    0  0.49842140027E+02  0.11167666123E+02 -0.19644198227E+03  0.20297390987E+03  0.00000000000E+00 0.  1.
</event>
<event>
12    1  0.8133506E-002  0.2057476E+03  0.7818608E-02  0.1146640E+00
         21   -1    0    0  503  502  0.00000000000E+00  0.00000000000E+00  0.16459818608E+04  0.16459818608E+04  0.00000000000E+00 0. -1.
         21   -1    0    0  501  503 -0.00000000000E+00 -0.00000000000E+00 -0.39883959707E+02  0.39883959707E+02  0.00000000000E+00 0. -1.
          6    2    1    2  501    0  0.91356064741E+02 -0.29984717309E+02  0.27362030488E+03  0.33759707898E+03  0.17279670905E+03 0.  0.
         24    2    3    3    0    0  0.96854762293E+01 -0.57231607640E+02  0.20897085200E+03  0.22982825317E+03  0.76045667885E+02 0.  0.
         -6    2    1    2    0  502 -0.91356064741E+02  0.29984717309E+02  0.13324775962E+04  0.13482687415E+04  0.18189843628E+03 0.  0.
        -24    2    5    5    0    0  0.22124695601E+02  0.38156119229E+02  0.59425253295E+03  0.60131292703E+03  0.80596350439E+02 0.  0.
          5    1    3    3  501    0  0.81670588511E+02  0.27246890331E+02  0.64649452875E+02  0.10776882581E+03  0.47000000000E+01 0. -1.
        -11    1    4    4    0    0 -0.19055596105E+02  0.10534742632E+02  0.40601719560E+02  0.46071641782E+02  0.00000000000E+00 0.  1.
         12    1    4    4    0    0  0.28741072334E+02 -0.67766350272E+02  0.16836913244E+03  0.18375661139E+03  0.00000000000E+00 0. -1.
         -5    1    5    5    0  502 -0.11348076034E+03 -0.81714019195E+01  0.73822506325E+03  0.74695581448E+03  0.47000000000E+01 0.  1.
         13    1    6    6    0    0  0.87836744937E+00  0.11113924431E+02  0.51250368987E+03  0.51262493402E+03  0.00000000000E+00 0. -1.
        -14    1    6    6    0    0  0.21246328152E+02  0.27042194798E+02  0.81748843076E+02  0.88687993008E+02  0.00000000000E+00 0.  1.
</event>
<event>
12    1  0.8133506E-002  0.2045767E+03  0.7818608E-02  0.1146051E+00
         21   -1    0    0  501  502  0.00000000000E+00  0.00000000000E+00  0.48145965861E+03  0.48145965861E+03  0.00000000000E+00 0.  1.
         21   -1    0    0  502  503 -0.00000000000E+00 -0.00000000000E+00 -0.10790572099E+03  0.10790572099E+03  0.00000000000E+00 0.  1.
         -6    2    1    2    0  503  0.11106205086E+03 -0.96841022801E+01  0.55887937718E+02  0.21152504961E+03  0.17085322371E+03 0.  0.
        -24    2    3    3    0    0  0.15751211116E+02  0.89089448377E+01 -0.27066750568E+02  0.83722749624E+02  0.77132482578E+02 0.  0.
          6    2    1    2  501    0 -0.11106205086E+03  0.96841022801E+01  0.31766599990E+03  0.37784032999E+03  0.17153153206E+03 0.  0.
         24    2    5    5    0    0 -0.40002867408E+02 -0.56182225390E+02  0.15300924764E+03  0.18673377138E+03  0.81859633899E+02 0.  0.
          5    1    5    5  501    0 -0.71059183450E+02  0.65866327670E+02  0.16465675227E+03  0.19110655860E+03  0.47000000000E+01 0. -1.
        -11    1    6    6    0    0  0.53655680324E+01 -0.30868576058E+02  0.74838287454E+01  0.32212823547E+02  0.00000000000E+00 0.  1.
         12    1    6    6    0    0 -0.45368435440E+02 -0.25313649332E+02  0.14552541889E+03  0.15452094784E+03  0.00000000000E+00 0. -1.
         -5    1    3    3    0  503  0.95310839742E+02 -0.18593047118E+02  0.82954688286E+02  0.12780229999E+03  0.47000000000E+01 0.  1.
         13    1    4    4    0    0 -0.28996399119E+01 -0.33080373809E+02 -0.95687009968E+01  0.34558343157E+02  0.00000000000E+00 0. -1.
        -14    1    4    4    0    0  0.18650851028E+02  0.41989318647E+02 -0.17498049571E+02  0.49164406467E+02  0.00000000000E+00 0.  1.
</event>
<event>
12    1  0.8133506E-002  0.2032004E+03  0.7818608E-02  0.1147098E+00
         21   -1    0    0  501  502  0.00000000000E+00  0.00000000000E+00  0.74465431996E+03  0.74465431996E+03  0.00000000000E+00 0.  1.
         21   -1    0    0  502  503 -0.00000000000E+00 -0.00000000000E+00 -0.11955192781E+03  0.11955192781E+03  0.00000000000E+00 0.  1.
         -6    2    1    2    0  503 -0.10728666946E+03 -0.57066226925E+01 -0.39047862772E+01  0.20323796079E+03  0.17247442235E+03 0.  0.
        -24    2    3    3    0    0 -0.49780738300E+02 -0.12911690533E+02  0.59066950496E+02  0.11752696527E+03  0.87629043509E+02 0.  0.
          6    2    1    2  501    0  0.10728666946E+03  0.57066226925E+01  0.62900717843E+03  0.66096828698E+03  0.17229640420E+03 0.  0.
         24    2    5    5    0    0  0.10033810210E+03 -0.57136105693E+02  0.45013622017E+03  0.47119368171E+03  0.77901217362E+02 0.  0.
          5    1    5    5  501    0  0.69485673564E+01  0.62842728386E+02  0.17887095825E+03  0.18977460527E+03  0.47000000000E+01 0. -1.
        -11    1    6    6    0    0 -0.29137962487E+01 -0.28481335804E+01  0.13658030935E+03  0.13664107353E+03  0.00000000000E+00 0.  1.
         12    1    6    6    0    0  0.10325189835E+03 -0.54287972113E+02  0.31355591082E+03  0.33455260818E+03  0.00000000000E+00 0. -1.
         -5    1    3    3    0  503 -0.57505931156E+02  0.72050678407E+01 -0.62971736773E+02  0.85710995519E+02  0.47000000000E+01 0.  1.
         11    1    4    4    0    0 -0.64469654812E+02 -0.32175456058E+02  0.26138434774E+02  0.76647336135E+02  0.00000000000E+00 0. -1.
        -12    1    4    4    0    0  0.14688916512E+02  0.19263765525E+02  0.32928515721E+02  0.40879629134E+02  0.00000000000E+00 0.  1.
</event>
<event>
12    1  0.8133506E-002  0.2303301E+03  0.7818608E-02  0.1126577E+00
         21   -1    0    0  503  502  0.00000000000E+00  0.00000000000E+00  0.32867657693E+03  0.32867657693E+03  0.00000000000E+00 0. -1.
         21   -1    0    0  501  503 -0.00000000000E+00 -0.00000000000E+00 -0.17017553805E+03  0.17017553805E+03  0.00000000000E+00 0. -1.
          6    2    1    2  501    0  0.14758254055E+01 -0.15194815650E+03  0.13814496748E+03  0.26858140736E+03  0.17309396297E+03 0.  0.
         24    2    3    3    0    0 -0.55091779579E+02 -0.49312565969E+02  0.93547277187E+02  0.14310231605E+03  0.79122351139E+02 0.  0.
         -6    2    1    2    0  502 -0.14758254055E+01  0.15194815650E+03  0.20356071397E+02  0.23027070762E+03  0.17181329641E+03 0.  0.
        -24    2    5    5    0    0  0.13382275639E+02  0.12639936915E+03 -0.45557152275E+02  0.15788184967E+03  0.81825048167E+02 0.  0.
          5    1    3    3  501    0  0.56567604985E+02 -0.10263559053E+03  0.44597690297E+02  0.12547909131E+03  0.47000000000E+01 0. -1.
        -13    1    4    4    0    0  0.15030420637E+02 -0.31489019985E+02  0.21433875426E+02  0.40949761170E+02  0.00000000000E+00 0.  1.
         14    1    4    4    0    0 -0.70122200216E+02 -0.17823545984E+02  0.72113401762E+02  0.10215255488E+03  0.00000000000E+00 0. -1.
         -5    1    5    5    0  502 -0.14858101045E+02  0.25548787343E+02  0.65913223672E+02  0.72388857956E+02  0.47000000000E+01 0.  1.
         13    1    6    6    0    0 -0.27222398340E+02  0.71602910354E+02 -0.13659373378E+01  0.76615282597E+02  0.00000000000E+00 0. -1.
        -14    1    6    6    0    0  0.40604673980E+02  0.54796458799E+02 -0.44191214937E+02  0.81266567071E+02  0.00000000000E+00 0.  1.
</event>
<event>
12    1  0.8133506E-002  0.2473264E+03  0.7818608E-02  0.1115215E+00
         21   -1    0    0  501  502  0.00000000000E+00  0.00000000000E+00  0.23282131978E+04  0.23282131978E+04  0.00000000000E+00 0. -1.
         21   -1    0    0  502  503 -0.00000000000E+00 -0.00000000000E+00 -0.22638227259E+03  0.22638227259E+03  0.00000000000E+00 0.  1.
         -6    2    1    2    0  503  0.10755358467E+03  0.13903230367E+03 -0.15006999989E+03  0.28929458857E+03  0.17399022694E+03 0.  0.
        -24    2    3    3    0    0  0.15604760778E+02  0.40272200874E+02 -0.75118716555E+01  0.92945272186E+02  0.81957529756E+02 0.  0.
          6    2    1    2  501    0 -0.10755358467E+03 -0.13903230367E+03  0.22519009251E+04  0.22653008819E+04  0.17214108655E+03 0.  0.
         24    2    5    5    0    0  0.11652419848E+02 -0.31724484210E+02  0.58913254350E+03  0.59480819388E+03  0.74682072181E+02 0.  0.
          5    1    5    5  501    0 -0.11920600451E+03 -0.10730781946E+03  0.16627683816E+04  0.16704926880E+04  0.47000000000E+01 0. -1.
        -11    1    6    6    0    0 -0.71724834526E+00  0.23111103016E+02  0.24794970344E+03  0.24902548657E+03  0.00000000000E+00 0.  1.
         12    1    6    6    0    0  0.12369668193E+02 -0.54835587226E+02  0.34118284007E+03  0.34578270731E+03  0.00000000000E+00 0. -1.
         -5    1    3    3    0  503  0.91948823888E+02  0.98760102797E+02 -0.14255812824E+03  0.19634931639E+03  0.47000000000E+01 0.  1.
         11    1    4    4    0    0  0.32578201891E+02  0.38848820778E+02  0.24783097337E+02  0.56433784455E+02  0.00000000000E+00 0. -1.
        -12    1    4    4    0    0 -0.16973441113E+02  0.14233800960E+01 -0.32294968992E+02  0.36511487731E+02  0.00000000000E+00 0.  1.
</event>
<event>
12    1  0.8133506E-002  0.2220445E+03  0.7818608E-02  0.1132389E+00
         21   -1    0    0  503  502  0.00000000000E+00  0.00000000000E+00  0.46599278636E+02  0.46599278636E+02  0.00000000000E+00 0.  1.
         21   -1    0    0  501  503 -0.00000000000E+00 -0.00000000000E+00 -0.10763605747E+04  0.10763605747E+04  0.00000000000E+00 0. -1.
          6    2    1    2  501    0  0.12844582047E+03  0.56750956117E+02 -0.58908443843E+03  0.62950282712E+03  0.17185556127E+03 0.  0.
         24    2    3    3    0    0  0.10625215235E+03  0.55996979225E+02 -0.58990799765E+03  0.60678949104E+03  0.76005652315E+02 0.  0.
         -6    2    1    2    0  502 -0.12844582047E+03 -0.56750956117E+02 -0.44067685765E+03  0.49345702623E+03  0.17200216292E+03 0.  0.
        -24    2    5    5    0    0 -0.96412152959E+02  0.28212721196E+02 -0.28421066535E+03  0.31249089224E+03  0.82362579852E+02 0.  0.
          5    1    3    3  501    0  0.22193668127E+02  0.75397689177E+00  0.82355922478E+00  0.22713336080E+02  0.47000000000E+01 0. -1.
        -11    1    4    4    0    0  0.44963697276E+02  0.45825080441E+02 -0.15974234709E+03  0.17216065034E+03  0.00000000000E+00 0.  1.
         12    1    4    4    0    0  0.61288455069E+02  0.10171898784E+02 -0.43016565056E+03  0.43462884070E+03  0.00000000000E+00 0. -1.
         -5    1    5    5    0  502 -0.32033667513E+02 -0.84963677313E+02 -0.15646619230E+03  0.18096613399E+03  0.47000000000E+01 0.  1.
         13    1    6    6    0    0 -0.50618800532E+02  0.56595307572E+02 -0.17219018240E+03  0.18818807274E+03  0.00000000000E+00 0. -1.
        -14    1    6    6    0    0 -0.45793352426E+02 -0.28382586376E+02 -0.11202048295E+03  0.12430281950E+03  0.00000000000E+00 0.  1.
</event>
<event>
12    1  0.8133506E-002  0.1854958E+03  0.7818608E-02  0.1162831E+00
         21   -1    0    0  501  502  0.00000000000E+00  0.00000000000E+00  0.76099957776E+03  0.76099957776E+03  0.00000000000E+00 0. -1.
         21   -1    0    0  502  503 -0.00000000000E+00 -0.00000000000E+00 -0.91219601825E+02  0.91219601825E+02  0.00000000000E+00 0. -1.
         -6    2    1    2    0  503 -0.53588463134E+02  0.42984665964E+02  0.30988280240E+02  0.18703985244E+03  0.17118477736E+03 0.  0.
        -24    2    3    3    0    0 -0.94276421296E+02  0.59144977578E+02  0.85881220549E+01  0.13763820574E+03  0.80525448479E+02 0.  0.
          6    2    1    2  501    0  0.53588463134E+02 -0.42984665964E+02  0.63879169570E+03  0.66517932714E+03  0.17230583820E+03 0.  0.
         24    2    5    5    0    0  0.30171135288E+02 -0.21987919760E+02  0.14320842738E+03  0.16857676933E+03  0.80719932259E+02 0.  0.
          5    1    5    5  501    0  0.23417327846E+02 -0.20996746204E+02  0.49558326831E+03  0.49660255781E+03  0.47000000000E+01 0. -1.
        -11    1    6    6    0    0  0.34853943565E+02 -0.71802340897E+01  0.14808334295E+03  0.15229914512E+03  0.00000000000E+00 0.  1.
         12    1    6    6    0    0 -0.46828082770E+01 -0.14807685670E+02 -0.48749155665E+01  0.16277624214E+02  0.00000000000E+00 0. -1.
         -5    1    3    3    0  503  0.40687958162E+02 -0.16160311614E+02  0.22400158185E+02  0.49401646709E+02  0.47000000000E+01 0.  1.
         13    1    4    4    0    0 -0.40141979441E+02  0.28163914407E+02  0.44026563976E+02  0.65900856775E+02  0.00000000000E+00 0. -1.
        -14    1    4    4    0    0 -0.54134441855E+02  0.30981063171E+02 -0.35438441921E+02  0.71737348961E+02  0.00000000000E+00 0.  1.
</event>
<event>
12    1  0.8133506E-002  0.1853019E+03  0.7818608E-02  0.1162809E+00
         21   -1    0    0  503  502  0.00000000000E+00  0.00000000000E+00  0.20731482490E+04  0.20731482490E+04  0.00000000000E+00 0.  1.
         21   -1    0    0  501  503 -0.00000000000E+00 -0.00000000000E+00 -0.16667448256E+02  0.16667448256E+02  0.00000000000E+00 0.  1.
          6    2    1    2  501    0  0.22425102201E+02 -0.65462979459E+02  0.93983988375E+03  0.95793308194E+03  0.17189675823E+03 0.  0.
         24    2    3    3    0    0 -0.12274996520E+02 -0.10512012687E+03  0.66410987200E+03  0.67717354858E+03  0.79505824885E+02 0.  0.
         -6    2    1    2    0  502 -0.22425102201E+02  0.65462979459E+02  0.11166409170E+04  0.11318826153E+04  0.17170623305E+03 0.  0.
        -24    2    5    5    0    0 -0.13799237149E+02  0.41265407937E+02  0.10923528359E+04  0.10962185031E+04  0.81037248535E+02 0.  0.
          5    1    3    3  501    0  0.34700098722E+02  0.39657147413E+02  0.27573001175E+03  0.28075953336E+03  0.47000000000E+01 0. -1.
        -13    1    4    4    0    0 -0.45116599087E+02 -0.66357094854E+02  0.45173433745E+03  0.45880571398E+03  0.00000000000E+00 0.  1.
         14    1    4    4    0    0  0.32841602566E+02 -0.38763032019E+02  0.21237553455E+03  0.21836783460E+03  0.00000000000E+00 0. -1.
         -5    1    5    5    0  502 -0.86258650526E+01  0.24197571522E+02  0.24288081086E+02  0.35664112190E+02  0.47000000000E+01 0.  1.
         13    1    6    6    0    0  0.96777660737E+00 -0.24491781957E+02  0.31118652695E+03  0.31215034603E+03  0.00000000000E+00 0. -1.
        -14    1    6    6    0    0 -0.14767013756E+02  0.65757189895E+02  0.78116630894E+03  0.78406815707E+03  0.00000000000E+00 0.  1.
</event>
<event>
12    1  0.8133506E-002  0.2109864E+03  0.7818608E-02  0.1141135E+00
         21   -1    0    0  501  502  0.00000000000E+00  0.00000000000E+00  0.11326049115E+04  0.11326049115E+04  0.00000000000E+00 0.  1.
         21   -1    0    0  502  503 -0.00000000000E+00 -0.00000000000E+00 -0.51244641509E+02  0.51244641509E+02  0.00000000000E+00 0.  1.
         -6    2    1    2    0  503 -0.38051154963E+02 -0.11463687591E+03  0.24933574558E+03  0.32549060154E+03  0.17084002446E+03 0.  0.
        -24    2    3    3    0    0 -0.37960783499E+02 -0.82503675533E+02  0.26134425448E+03  0.29086626011E+03  0.89746779099E+02 0.  0.
          6    2    1    2  501    0  0.38051154963E+02  0.11463687591E+03  0.83202452438E+03  0.85835895143E+03  0.17299068362E+03 0.  0.
         24    2    5    5    0    0  0.11076301720E+02  0.13735140601E+03  0.77459365143E+03  0.79080165906E+03  0.79898973347E+02 0.  0.
          5    1    5    5  501    0  0.26974853243E+02 -0.22714530096E+02  0.57430872949E+02  0.67557292372E+02  0.47000000000E+01 0. -1.
        -11    1    6    6    0    0 -0.63925012157E+01 -0.67441355432E+01  0.11751777054E+03  0.11788457842E+03  0.00000000000E+00 0.  1.
         12    1    6    6    0    0  0.17468802936E+02  0.14409554155E+03  0.65707588089E+03  0.67291708064E+03  0.00000000000E+00 0. -1.
         -5    1    3    3    0  503 -0.90371463968E-01 -0.32133200377E+02 -0.12008508908E+02  0.34624341433E+02  0.47000000000E+01 0.  1.
         11    1    4    4    0    0  0.27421136342E+02 -0.27918233577E+02  0.53813281126E+02  0.66537325689E+02  0.00000000000E+00 0. -1.
        -12    1    4    4    0    0 -0.65381919841E+02 -0.54585441956E+02  0.20753097336E+03  0.22432893442E+03  0.00000000000E+00 0.  1.
</event>
<event>
12    1  0.8133506E-002  0.1951611E+03  0.7818608E-02  0.1154087E+00
         21   -1    0    0  501  502  0.00000000000E+00  0.00000000000E+00  0.20782750582E+03  0.20782750582E+03  0.00000000000E+00 0. -1.
         21   -1    0    0  502  503 -0.00000000000E+00 -0.00000000000E+00 -0.12169258128E+04  0.12169258128E+04  0.00000000000E+00 0. -1.
         -6    2    1    2    0  503  0.78411298751E+02 -0.46254515512E+02 -0.11615475850E+04  0.11778287895E+04  0.17262691856E+03 0.  0.
        -24    2    3    3    0    0 -0.16988328574E+02  0.87953516663E+01 -0.45950434802E+03  0.46718234192E+03  0.82153108481E+02 0.  0.
          6    2    1    2  501    0 -0.78411298751E+02  0.46254515512E+02  0.15244927809E+03  0.24692452912E+03  0.17159000178E+03 0.  0.
         24    2    5    5    0    0 -0.92929258803E+02  0.82226191338E+02  0.88571624434E+02  0.17204344164E+03  0.79730919169E+02 0.  0.
          5    1    5    5  501    0  0.14517960051E+02 -0.35971675826E+02  0.63877653654E+02  0.74881087480E+02  0.47000000000E+01 0. -1.
        -13    1    6    6    0    0 -0.81373673255E+01  0.47815230421E+02  0.61544346498E+01  0.48891615570E+02  0.00000000000E+00 0.  1.
         14    1    6    6    0    0 -0.84791891477E+02  0.34410960917E+02  0.82417189784E+02  0.12315182607E+03  0.00000000000E+00 0. -1.
         -5    1    3    3    0  503  0.95399627325E+02 -0.55049867178E+02 -0.70204323701E+03  0.71064644754E+03  0.47000000000E+01 0.  1.
         11    1    4    4    0    0  0.15470490728E+01 -0.33166805739E+02 -0.27778192533E+03  0.27975923292E+03  0.00000000000E+00 0. -1.
        -12    1    4    4    0    0 -0.18535377647E+02  0.41962157406E+02 -0.18172242269E+03  0.18742310900E+03  0.00000000000E+00 0.  1.
</event>
<event>
12    1  0.8133506E-002  0.2744610E+03  0.7818608E-02  0.1099172E+00
         21   -1    0    0  503  502  0.00000000000E+00  0.00000000000E+00  0.13922402606E+03  0.13922402606E+03  0.00000000000E+00 0. -1.
         21   -1    0    0  501  503 -0.00000000000E+00 -0.00000000000E+00 -0.57468376764E+03  0.57468376764E+03  0.00000000000E+00 0. -1.
          6    2    1    2  501    0 -0.21241249950E+03  0.22910109534E+02 -0.31237821828E+03  0.41582328463E+03  0.17229309249E+03 0.  0.
         24    2    3    3    0    0 -0.20018603580E+03  0.16381803022E+02 -0.17592686574E+03  0.27858929901E+03  0.79491653847E+02 0.  0.
         -6    2    1    2    0  502  0.21241249950E+03 -0.22910109534E+02 -0.12308152331E+03  0.29808450907E+03  0.16751528320E+03 0.  0.
        -24    2    5    5    0    0  0.99841376514E+02 -0.65426548922E+02 -0.37032033750E+02  0.15007602958E+03  0.83081341839E+02 0.  0.
          5    1    3    3  501    0 -0.12226463702E+02  0.65283065122E+01 -0.13645135253E+03  0.13723398562E+03  0.47000000000E+01 0. -1.
        -11    1    4    4    0    0 -0.17081481392E+03 -0.31775617369E+01 -0.10821288859E+03  0.20223211122E+03  0.00000000000E+00 0.  1.
         12    1    4    4    0    0 -0.29371221885E+02  0.19559364759E+02 -0.67713977154E+02  0.76357187787E+02  0.00000000000E+00 0. -1.
         -5    1    5    5    0  502  0.11257112299E+03  0.42516439388E+02 -0.86049489557E+02  0.14800847949E+03  0.47000000000E+01 0.  1.
         13    1    6    6    0    0  0.72749204744E+02  0.78068429461E+00 -0.28071258789E+02  0.77981099177E+02  0.00000000000E+00 0. -1.
        -14    1    6    6    0    0  0.27092171770E+02 -0.66207233216E+02 -0.89607749609E+01  0.72094930399E+02  0.00000000000E+00 0.  1.
</event>
<event>
12    1  0.8133506E-002  0.1869611E+03  0.7818608E-02  0.1161410E+00
         21   -1    0    0  503  502  0.00000000000E+00  0.00000000000E+00  0.11255278120E+04  0.11255278120E+04  0.00000000000E+00 0.  1.
         21   -1    0    0  501  503 -0.00000000000E+00 -0.00000000000E+00 -0.30974120397E+02  0.30974120397E+02  0.00000000000E+00 0.  1.
          6    2    1    2  501    0  0.71519217974E+02  0.14891723183E+02  0.57087896779E+03  0.60071396094E+03  0.17209795190E+03 0.  0.
         24    2    3    3    0    0  0.95917257335E+02 -0.13760206152E+02  0.53446412382E+03  0.54813708160E+03  0.73572393289E+02 0.  0.
         -6    2    1    2    0  502 -0.71519217974E+02 -0.14891723183E+02  0.52367472380E+03  0.55578797144E+03  0.17125504632E+03 0.  0.
        -24    2    5    5    0    0  0.11682936154E+02 -0.50383206617E+02  0.26766983334E+03  0.28423164618E+03  0.80408522591E+02 0.  0.
          5    1    3    3  501    0 -0.24398039361E+02  0.28651929335E+02  0.36414843968E+02  0.52576879334E+02  0.47000000000E+01 0. -1.
        -11    1    4    4    0    0  0.57106983105E+02  0.14383648287E+02  0.41896507433E+03  0.42308371555E+03  0.00000000000E+00 0.  1.
         12    1    4    4    0    0  0.38810274230E+02 -0.28143854439E+02  0.11549904949E+03  0.12505336605E+03  0.00000000000E+00 0. -1.
         -5    1    5    5    0  502 -0.83202154128E+02  0.35491483434E+02  0.25600489046E+03  0.27155632525E+03  0.47000000000E+01 0.  1.
         11    1    6    6    0    0  0.16340728258E+02 -0.26295051192E+02  0.23590902356E+02  0.38922741311E+02  0.00000000000E+00 0. -1.
        -12    1    6    6    0    0 -0.46577921039E+01 -0.24088155425E+02  0.24407893098E+03  0.24530890487E+03  0.00000000000E+00 0.  1.
</event>
<event>
12    1  0.8133506E-002  0.2497977E+03  0.7818608E-02  0.1113640E+00
         21   -1    0    0  503  502  0.00000000000E+00  0.00000000000E+00  0.85918315647E+03  0.85918315647E+03  0.00000000000E+00 0. -1.
         21   -1    0    0  501  503 -0.00000000000E+00 -0.00000000000E+00 -0.84240691663E+02  0.84240691663E+02  0.00000000000E+00 0.  1.
          6    2    1    2  501    0 -0.16193400548E+03 -0.83888402053E+02  0.21034646233E+03  0.32656471310E+03  0.17070146894E+03 0.  0.
         24    2    3    3    0    0 -0.84159221347E+02  0.19237187006E+02  0.75566255272E+02  0.13982532684E+03  0.79925084852E+02 0.  0.
         -6    2    1    2    0  502  0.16193400548E+03  0.83888402053E+02  0.56459600247E+03  0.61685913503E+03  0.16877991685E+03 0.  0.
        -24    2    5    5    0    0  0.17638413927E+03  0.55770062702E+02  0.39226938647E+03  0.44159362228E+03  0.83114326081E+02 0.  0.
          5    1    3    3  501    0 -0.77774784133E+02 -0.10312558906E+03  0.13478020706E+03  0.18673938626E+03  0.47000000000E+01 0. -1.
        -13    1    4    4    0    0 -0.48420442936E+02 -0.29394878027E+02  0.29258562568E+02  0.63754698901E+02  0.00000000000E+00 0.  1.
         14    1    4    4    0    0 -0.35738778411E+02  0.48632065033E+02  0.46307692704E+02  0.76070627941E+02  0.00000000000E+00 0. -1.
         -5    1    5    5    0  502 -0.14450133793E+02  0.28118339350E+02  0.17232661601E+03  0.17526551275E+03  0.47000000000E+01 0.  1.
         11    1    6    6    0    0  0.62720328952E+02  0.56474251562E+02  0.21545023926E+03  0.23139141374E+03  0.00000000000E+00 0. -1.
        -12    1    6    6    0    0  0.11366381032E+03 -0.70418885975E+00  0.17681914721E+03  0.21020220855E+03  0.00000000000E+00 0.  1.
</event>
<event>
12    1  0.8133506E-002  0.1801688E+03  0.7818608E-02  0.1167734E+00
         21   -1    0    0  501  502  0.00000000000E+00  0.00000000000E+00  0.52449821319E+03  0.52449821319E+03  0.00000000000E+00 0. -1.
         21   -1    0    0  502  503 -0.00000000000E+00 -0.00000000000E+00 -0.62003548845E+02  0.62003548845E+02  0.00000000000E+00 0. -1.
         -6    2    1    2    0  503  0.31270167119E+02 -0.44925027686E+02  0.21295378250E+03  0.27894462657E+03  0.17165287574E+03 0.  0.
        -24    2    3    3    0    0  0.61458244069E+02 -0.80058618899E+02  0.12408819478E+03  0.17862079140E+03  0.79504772279E+02 0.  0.
          6    2    1    2  501    0 -0.31270167119E+02  0.44925027686E+02  0.24954088185E+03  0.30755713546E+03  0.17124444049E+03 0.  0.
         24    2    5    5    0    0  0.90107163305E+01  0.67614091582E+02  0.23736979160E+03  0.25951997662E+03  0.79707853511E+02 0.  0.
          5    1    5    5  501    0 -0.40280883449E+02 -0.22689063896E+02  0.12171090246E+02  0.48037158843E+02  0.47000000000E+01 0. -1.
        -13    1    6    6    0    0  0.22723430665E+02  0.31598150953E+02  0.20651891235E+03  0.21015436851E+03  0.00000000000E+00 0.  1.
         14    1    6    6    0    0 -0.13712714335E+02  0.36015940629E+02  0.30850879252E+02  0.49365608114E+02  0.00000000000E+00 0. -1.
         -5    1    3    3    0  503 -0.30188076951E+02  0.35133591212E+02  0.88865587724E+02  0.10032383517E+03  0.47000000000E+01 0.  1.
         11    1    4    4    0    0  0.68249884567E+02 -0.29489165622E+02  0.92241381110E+02  0.11847417449E+03  0.00000000000E+00 0. -1.
        -12    1    4    4    0    0 -0.67916404978E+01 -0.50569453277E+02  0.31846813667E+02  0.60146616913E+02  0.00000000000E+00 0.  1.
</event>
<event>
12    1  0.8133506E-002  0.2246116E+03  0.7818608E-02  0.1130580E+00
         21   -1    0    0  503  502  0.00000000000E+00  0.00000000000E+00  0.27266145415E+03  0.27266145415E+03  0.00000000000E+00 0.  1.
         21   -1    0    0  501  503 -0.00000000000E+00 -0.00000000000E+00 -0.74021408172E+03  0.74021408172E+03  0.00000000000E+00 0.  1.
          6    2    1    2  501    0 -0.13367139993E+03  0.52361890717E+02 -0.67259783742E+03  0.70911087295E+03  0.17274422850E+03 0.  0.
         24    2    3    3    0    0 -0.55007264726E+02  0.81184381383E+02 -0.27528203914E+03  0.30303118163E+03  0.80193472420E+02 0.  0.
         -6    2    1    2    0  502  0.13367139993E+03 -0.52361890717E+02  0.20504520985E+03  0.30376466292E+03  0.17210352000E+03 0.  0.
        -24    2    5    5    0    0  0.12406958844E+02 -0.53926913155E+02  0.58821268324E+02  0.11373559924E+03  0.80086205660E+02 0.  0.
          5    1    3    3  501    0 -0.78664135203E+02 -0.28822490666E+02 -0.39731579828E+03  0.40607969132E+03  0.47000000000E+01 0. -1.
        -13    1    4    4    0    0 -0.73193007394E+02  0.44644679488E+02 -0.17997652003E+03  0.19935373460E+03  0.00000000000E+00 0.  1.
         14    1    4    4    0    0  0.18185742668E+02  0.36539701895E+02 -0.95305519109E+02  0.10367744703E+03  0.00000000000E+00 0. -1.
         -5    1    5    5    0  502  0.12126444108E+03  0.15650224378E+01  0.14622394153E+03  0.19002906368E+03  0.47000000000E+01 0.  1.
         11    1    6    6    0    0 -0.21546431078E+02  0.10709689799E+02  0.18326588674E+02  0.30245826162E+02  0.00000000000E+00 0. -1.
        -12    1    6    6    0    0  0.33953389922E+02 -0.64636602953E+02  0.40494679650E+02  0.83489773078E+02  0.00000000000E+00 0.  1.
</event>
<event>
12    1  0.8133506E-002  0.1910271E+03  0.7818608E-02  0.1157591E+00
         21   -1    0    0  501  502  0.00000000000E+00  0.00000000000E+00  0.68255897950E+02  0.68255897950E+02  0.00000000000E+00 0.  1.
         21   -1    0    0  502  503 -0.00000000000E+00 -0.00000000000E+00 -0.69807043875E+03  0.69807043875E+03  0.00000000000E+00 0.  1.
         -6    2    1    2    0  503 -0.48324783306E+02  0.67809264747E+02 -0.50053792963E+03  0.53566689275E+03  0.17166076993E+03 0.  0.
        -24    2    3    3    0    0  0.10094266849E+02  0.66342686833E+02 -0.16430671823E+03  0.19436284387E+03  0.79227338087E+02 0.  0.
          6    2    1    2  501    0  0.48324783306E+02 -0.67809264747E+02 -0.12927661117E+03  0.23065944394E+03  0.17192427350E+03 0.  0.
         24    2    5    5    0    0  0.73735380182E+02 -0.78993207652E+02 -0.44520059941E+02  0.14134795538E+03  0.79500789983E+02 0.  0.
          5    1    5    5  501    0 -0.25410596876E+02  0.11183942905E+02 -0.84756551230E+02  0.89311488561E+02  0.47000000000E+01 0. -1.
        -13    1    6    6    0    0 -0.31540936603E+01 -0.35967363711E+02  0.10338549629E+02  0.37556426448E+02  0.00000000000E+00 0.  1.
         14    1    6    6    0    0  0.76889473842E+02 -0.43025843941E+02 -0.54858609569E+02  0.10379152893E+03  0.00000000000E+00 0. -1.
         -5    1    3    3    0  503 -0.58419050155E+02  0.14665779136E+01 -0.33623121139E+03  0.34130404889E+03  0.47000000000E+01 0.  1.
         13    1    4    4    0    0  0.99585019599E+01 -0.95190122717E+01 -0.43466933770E+00  0.13783043690E+02  0.00000000000E+00 0. -1.
        -14    1    4    4    0    0  0.13576488891E+00  0.75861699105E+02 -0.16387204889E+03  0.18057980018E+03  0.00000000000E+00 0.  1.
</event>
<event>
12    1  0.8133506E-002  0.2415751E+03  0.7818608E-02  0.1118865E+00
         21   -1    0    0  503  502  0.00000000000E+00  0.00000000000E+00  0.46607680916E+02  0.46607680916E+02  0.00000000000E+00 0. -1.
         21   -1    0    0  501  503 -0.00000000000E+00 -0.00000000000E+00 -0.12573152243E+04  0.12573152243E+04  0.00000000000E+00 0.  1.
          6    2    1    2  501    0  0.86290950273E+02  0.14631394011E+03 -0.65918259291E+03  0.70181138163E+03  0.17077361454E+03 0.  0.
         24    2    3    3    0    0  0.11053461853E+03  0.90796449233E+02 -0.57554695913E+03  0.59843364476E+03  0.80041413812E+02 0.  0.
         -6    2    1    2    0  502 -0.86290950273E+02 -0.14631394011E+03 -0.55152495049E+03  0.60211152360E+03  0.17176908532E+03 0.  0.
        -24    2    5    5    0    0 -0.14048611195E+02 -0.60513057813E+02 -0.12327726192E+03  0.15939387122E+03  0.79686443237E+02 0.  0.
          5    1    3    3  501    0 -0.24243668259E+02  0.55517490873E+02 -0.83635633779E+02  0.10337773687E+03  0.47000000000E+01 0. -1.
        -11    1    4    4    0    0  0.36932831301E+02  0.43884291168E+02 -0.37983778566E+03  0.38414399443E+03  0.00000000000E+00 0.  1.
         12    1    4    4    0    0  0.73601787231E+02  0.46912158065E+02 -0.19570917347E+03  0.21428965033E+03  0.00000000000E+00 0. -1.
         -5    1    5    5    0  502 -0.72242339078E+02 -0.85800882293E+02 -0.42824768857E+03  0.44271765238E+03  0.47000000000E+01 0.  1.
         13    1    6    6    0    0 -0.29400949260E+02 -0.72650717658E+02 -0.11233031370E+03  0.13696949284E+03  0.00000000000E+00 0. -1.
        -14    1    6    6    0    0  0.15352338065E+02  0.12137659846E+02 -0.10946948220E+02  0.22424378384E+02  0.00000000000E+00 0.  1.
</event>
<event>
12    1  0.8133506E-002  0.1857869E+03  0.7818608E-02  0.1162681E+00
         21   -1    0    0  503  502  0.00000000000E+00  0.00000000000E+00  0.48569395385E+03  0.48569395385E+03  0.00000000000E+00 0. -1.
         21   -1    0    0  501  503 -0.00000000000E+00 -0.00000000000E+00 -0.10910626206E+03  0.10910626206E+03  0.00000000000E+00 0. -1.
          6    2    1    2  501    0  0.33275825777E+02  0.62304015009E+02  0.36577719940E+03  0.41025570827E+03  0.17183630497E+03 0.  0.
         24    2    3    3    0    0  0.74649711326E+02  0.73554437506E+02  0.32553745999E+03  0.35126675134E+03  0.80192631006E+02 0.  0.
         -6    2    1    2    0  502 -0.33275825777E+02 -0.62304015009E+02  0.10810492396E+02  0.18454450763E+03  0.17014916304E+03 0.  0.
        -24    2    5    5    0    0  0.57254113743E+01 -0.74646440620E+02  0.56091220829E+02  0.12334102459E+03  0.80386017812E+02 0.  0.
          5    1    3    3  501    0 -0.41373885549E+02 -0.11250422497E+02  0.40239739411E+02  0.58988956930E+02  0.47000000000E+01 0. -1.
        -11    1    4    4    0    0  0.33463725416E+02  0.10396667898E+02  0.29585297005E+02  0.45860674013E+02  0.00000000000E+00 0.  1.
         12    1    4    4    0    0  0.41185985911E+02  0.63157769608E+02  0.29595216298E+03  0.30540607733E+03  0.00000000000E+00 0. -1.
         -5    1    5    5    0  502 -0.39001237151E+02  0.12342425611E+02 -0.45280728433E+02  0.61203483044E+02  0.47000000000E+01 0.  1.
         13    1    6    6    0    0  0.19852231573E+02 -0.11089288062E+02 -0.14765984717E+02  0.27113054288E+02  0.00000000000E+00 0. -1.
        -14    1    6    6    0    0 -0.14126820199E+02 -0.63557152558E+02  0.70857205546E+02  0.96227970300E+02  0.00000000000E+00 0.  1.
</event>
<event>
12    1  0.8133506E-002  0.2524794E+03  0.7818608E-02  0.1112026E+00
         21   -1    0    0  501  502  0.00000000000E+00  0.00000000000E+00  0.25471873548E+03  0.25471873548E+03  0.00000000000E+00 0. -1.
         21   -1    0    0  502  503 -0.00000000000E+00 -0.00000000000E+00 -0.24989441725E+03  0.24989441725E+03  0.00000000000E+00 0. -1.
         -6    2    1    2    0  503  0.29939719277E+02  0.17985718785E+03  0.21266294812E+02  0.25337349085E+03  0.17464499923E+03 0.  0.
        -24    2    3    3    0    0  0.51490579133E+02  0.18357634831E+03  0.53758962183E+02  0.21392561197E+03  0.80762528701E+02 0.  0.
          6    2    1    2  501    0 -0.29939719277E+02 -0.17985718785E+03 -0.16441976579E+02  0.25123966188E+03  0.17206404126E+03 0.  0.
         24    2    5    5    0    0  0.29566854192E+02 -0.40485479683E+02  0.11009947631E+02  0.97157854171E+02  0.82493373966E+02 0.  0.
          5    1    5    5  501    0 -0.59506573469E+02 -0.13937170817E+03 -0.27451924210E+02  0.15408180771E+03  0.47000000000E+01 0. -1.
        -11    1    6    6    0    0  0.75274550506E+01 -0.46645278261E+02  0.38814285210E+02  0.61147308199E+02  0.00000000000E+00 0.  1.
         12    1    6    6    0    0  0.22039399142E+02  0.61597985782E+01 -0.27804337579E+02  0.36010545973E+02  0.00000000000E+00 0. -1.
         -5    1    3    3    0  503 -0.21550859856E+02 -0.37191604593E+01 -0.32492667371E+02  0.39447878878E+02  0.47000000000E+01 0.  1.
         13    1    4    4    0    0  0.49650573760E+02  0.50712670350E+02  0.10571251674E+01  0.70979376739E+02  0.00000000000E+00 0. -1.
        -14    1    4    4    0    0  0.18400053735E+01  0.13286367796E+03  0.52701837016E+02  0.14294623523E+03  0.00000000000E+00 0.  1.
</event>
<event>
12    1  0.8133506E-002  0.1759941E+03  0.7818608E-02  0.1172381E+00
         21   -1    0    0  501  502  0.00000000000E+00  0.00000000000E+00  0.10185872169E+03  0.10185872169E+03  0.00000000000E+00 0. -1.
         21   -1    0    0  502  503 -0.00000000000E+00 -0.00000000000E+00 -0.40031527443E+03  0.40031527443E+03  0.00000000000E+00 0. -1.
         -6    2    1    2    0  503  0.20088978862E+02 -0.22927851275E+02 -0.27594351293E+03  0.32729000020E+03  0.17333397955E+03 0.  0.
        -24    2    3    3    0    0  0.43876238791E+02  0.47154889658E+02 -0.14264899631E+03  0.17475494694E+03  0.77729321254E+02 0.  0.
          6    2    1    2  501    0 -0.20088978862E+02  0.22927851275E+02 -0.22513039811E+02  0.17488399592E+03  0.17072879555E+03 0.  0.
         24    2    5    5    0    0  0.27534120401E+02 -0.41201274164E+02 -0.18589613969E+02  0.94771652402E+02  0.78615644579E+02 0.  0.
          5    1    5    5  501    0 -0.47623099264E+02  0.64129125439E+02 -0.39234258416E+01  0.80112343514E+02  0.47000000000E+01 0. -1.
        -13    1    6    6    0    0 -0.23912142992E+02 -0.32885821094E+02 -0.10876681716E+02  0.42090022769E+02  0.00000000000E+00 0.  1.
         14    1    6    6    0    0  0.51446263393E+02 -0.83154530698E+01 -0.77129322532E+01  0.52681629633E+02  0.00000000000E+00 0. -1.
         -5    1    3    3    0  503 -0.23787259928E+02 -0.70082740933E+02 -0.13329451662E+03  0.15253505326E+03  0.47000000000E+01 0.  1.
         11    1    4    4    0    0  0.20959525105E+02  0.16569075925E+02 -0.13256184672E+03  0.13522750894E+03  0.00000000000E+00 0. -1.
        -12    1    4    4    0    0  0.22916713685E+02  0.30585813733E+02 -0.10087149595E+02  0.39527437999E+02  0.00000000000E+00 0.  1.
</event>
<event>
12    1  0.8133506E-002  0.2225609E+03  0.7818608E-02  0.1132124E+00
         21   -1    0    0  503  502  0.00000000000E+00  0.00000000000E+00  0.12624319346E+04  0.12624319346E+04  0.00000000000E+00 0.  1.
         21   -1    0    0  501  503 -0.00000000000E+00 -0.00000000000E+00 -0.40072764688E+02  0.40072764688E+02  0.00000000000E+00 0. -1.
          6    2    1    2  501    0 -0.27541050459E+02  0.13840292359E+03  0.50906007527E+03  0.55529056593E+03  0.17114781230E+03 0.  0.
         24    2    3    3    0    0 -0.52852673295E+02  0.15855986375E+03  0.46346220520E+03  0.49918142012E+03  0.80313380493E+02 0.  0.
         -6    2    1    2    0  502  0.27541050459E+02 -0.13840292359E+03  0.71329909465E+03  0.74721413337E+03  0.17210312014E+03 0.  0.
        -24    2    5    5    0    0  0.19390420250E+02 -0.10488753333E+03  0.26598618424E+03  0.29854873023E+03  0.83697736340E+02 0.  0.
          5    1    3    3  501    0  0.25311622836E+02 -0.20156940164E+02  0.45597870079E+02  0.56109145806E+02  0.47000000000E+01 0. -1.
        -11    1    4    4    0    0 -0.19369091763E+02  0.32225364043E+02  0.21677043846E+03  0.22000695170E+03  0.00000000000E+00 0.  1.
         12    1    4    4    0    0 -0.33483581532E+02  0.12633449971E+03  0.24669176673E+03  0.27917446843E+03  0.00000000000E+00 0. -1.
         -5    1    5    5    0  502  0.81506302091E+01 -0.33515390255E+02  0.44731291041E+03  0.44866540314E+03  0.47000000000E+01 0.  1.
         11    1    6    6    0    0 -0.25253064993E-01  0.12193963629E+02  0.80291882822E+01  0.14600042849E+02  0.00000000000E+00 0. -1.
        -12    1    6    6    0    0  0.19415673315E+02 -0.11708149696E+03  0.25795699596E+03  0.28394868738E+03  0.00000000000E+00 0.  1.
</event>
<event>
12    1  0.8133506E-002  0.2292509E+03  0.7818608E-02  0.1128161E+00
         21   -1    0    0  501  502  0.00000000000E+00  0.00000000000E+00  0.99855725899E+03  0.99855725899E+03  0.00000000000E+00 0. -1.
         21   -1    0    0  502  503 -0.00000000000E+00 -0.00000000000E+00 -0.51497977874E+02  0.51497977874E+02  0.00000000000E+00 0. -1.
         -6    2    1    2    0  503 -0.12004772021E+03  0.92604830381E+02  0.50580492870E+03  0.55533286241E+03  0.17195596073E+03 0.  0.
        -24    2    3    3    0    0 -0.25490925671E+02  0.91236468665E+02  0.20053020369E+03  0.23571182502E+03  0.79836215820E+02 0.  0.
          6    2    1    2  501    0  0.12004772021E+03 -0.92604830381E+02  0.44125435241E+03  0.49472237446E+03  0.16449229322E+03 0.  0.
         24    2    5    5    0    0  0.49769187322E+02 -0.10837071749E+02  0.10675737421E+03  0.14324640520E+03  0.80795925175E+02 0.  0.
          5    1    5    5  501    0  0.70278532889E+02 -0.81767758632E+02  0.33449697820E+03  0.35147596925E+03  0.47000000000E+01 0. -1.
        -11    1    6    6    0    0 -0.21207093829E+02 -0.11016848940E+02  0.20059090007E+02  0.31200623090E+02  0.00000000000E+00 0.  1.
         12    1    6    6    0    0  0.70976281152E+02  0.17977719164E+00  0.86698284204E+02  0.11204578212E+03  0.00000000000E+00 0. -1.
         -5    1    3    3    0  503 -0.94556794541E+02  0.13683617161E+01  0.30527472501E+03  0.31962103739E+03  0.47000000000E+01 0.  1.
         13    1    4    4    0    0 -0.50985713346E+02  0.34668678584E+02  0.10633999335E+03  0.12292133430E+03  0.00000000000E+00 0. -1.
        -14    1    4    4    0    0  0.25494787675E+02  0.56567790080E+02  0.94190210336E+02  0.11279049072E+03  0.00000000000E+00 0.  1.
</event>
<event>
12    1  0.8133506E-002  0.2475217E+03  0.7818608E-02  0.1114963E+00
         21   -1    0    0  503  502  0.00000000000E+00  0.00000000000E+00  0.32664481530E+03  0.32664481530E+03  0.00000000000E+00 0. -1.
         21   -1    0    0  501  503 -0.00000000000E+00 -0.00000000000E+00 -0.26426144871E+03  0.26426144871E+03  0.00000000000E+00 0. -1.
          6    2    1    2  501    0  0.17766802051E+03 -0.52439759217E+01 -0.12835522769E+03  0.27882258916E+03  0.17226011422E+03 0.  0.
         24    2    3    3    0    0  0.12684563372E+03  0.56198094801E+02 -0.11953034090E+03  0.19846083407E+03  0.76492872932E+02 0.  0.
         -6    2    1    2    0  502 -0.17766802051E+03  0.52439759217E+01  0.19073859429E+03  0.31208367486E+03  0.17152721058E+03 0.  0.
        -24    2    5    5    0    0 -0.19945308966E+02  0.46705961168E+01  0.10311689314E+03  0.13159424300E+03  0.79147465667E+02 0.  0.
          5    1    3    3  501    0  0.50822386795E+02 -0.61442070723E+02 -0.88248867917E+01  0.80361755090E+02  0.47000000000E+01 0. -1.
        -11    1    4    4    0    0  0.11356472395E+03  0.54559276114E+02 -0.13032464621E+03  0.18126823920E+03  0.00000000000E+00 0.  1.
         12    1    4    4    0    0  0.13280909774E+02  0.16388186872E+01  0.10794305305E+02  0.17192594863E+02  0.00000000000E+00 0. -1.
         -5    1    5    5    0  502 -0.15772271155E+03  0.57337980488E+00  0.87621701147E+02  0.18048943186E+03  0.47000000000E+01 0.  1.
         11    1    6    6    0    0 -0.49212939092E+02  0.13208359149E+02  0.58844840015E+02  0.77840152375E+02  0.00000000000E+00 0. -1.
        -12    1    6    6    0    0  0.29267630126E+02 -0.85377630319E+01  0.44272053124E+02  0.53754090622E+02  0.00000000000E+00 0.  1.
</event>
<event>
12    1  0.8133506E-002  0.1789096E+03  0.7818608E-02  0.1168925E+00
         21   -1    0    0  501  502  0.00000000000E+00  0.00000000000E+00  0.55272186315E+02  0.55272186315E+02  0.00000000000E+00 0. -1.
         21   -1    0    0  502  503 -0.00000000000E+00 -0.00000000000E+00 -0.58008777017E+03  0.58008777017E+03  0.00000000000E+00 0. -1.
         -6    2    1    2    0  503  0.29618855143E+02 -0.39370619135E+02 -0.24447943343E+03  0.30279868796E+03  0.17172515783E+03 0.  0.
        -24    2    3    3    0    0  0.23931319610E+02 -0.91429090773E+02 -0.18671599411E+03  0.22468890975E+03  0.81793991303E+02 0.  0.
          6    2    1    2  501    0 -0.29618855143E+02  0.39370619135E+02 -0.28033615042E+03  0.33256126852E+03  0.17199220288E+03 0.  0.
         24    2    5    5    0    0  0.17321937834E+02 -0.31648828911E+02 -0.10022542019E+03  0.13328968201E+03  0.80120575229E+02 0.  0.
          5    1    5    5  501    0 -0.46940792977E+02  0.71019448046E+02 -0.18011073023E+03  0.19927158651E+03  0.47000000000E+01 0. -1.
        -13    1    6    6    0    0 -0.18735451192E+02 -0.12553018842E+02  0.25649309263E+01  0.22697451048E+02  0.00000000000E+00 0.  1.
         14    1    6    6    0    0  0.36057389025E+02 -0.19095810069E+02 -0.10279035112E+03  0.11059223096E+03  0.00000000000E+00 0. -1.
         -5    1    3    3    0  503  0.56875355326E+01  0.52058471638E+02 -0.57763439321E+02  0.78109778209E+02  0.47000000000E+01 0.  1.
         11    1    4    4    0    0  0.34547996370E+02 -0.18995356940E+01 -0.45809793917E+02  0.57408270378E+02  0.00000000000E+00 0. -1.
        -12    1    4    4    0    0 -0.10616676760E+02 -0.89529555079E+02 -0.14090620019E+03  0.16728063938E+03  0.00000000000E+00 0.  1.
</event>
<event>
12    1  0.8133506E-002  0.1739410E+03  0.7818608E-02  0.1174355E+00
         21   -1    0    0  503  502  0.00000000000E+00  0.00000000000E+00  0.60746270767E+03  0.60746270767E+03  0.00000000000E+00 0. -1.
         21   -1    0    0  501  503 -0.00000000000E+00 -0.00000000000E+00 -0.66913427571E+02  0.66913427571E+02  0.00000000000E+00 0. -1.
          6    2    1    2  501    0 -0.52767013290E+01 -0.87861695112E+01  0.97963421906E+02  0.19963044517E+03  0.17363882704E+03 0.  0.
         24    2    3    3    0    0 -0.57160348502E+02  0.26772426947E+02  0.28051419593E+02  0.10547044998E+03  0.79706118916E+02 0.  0.
         -6    2    1    2    0  502  0.52767013290E+01  0.87861695112E+01  0.44258585819E+03  0.47474569007E+03  0.17145316567E+03 0.  0.
        -24    2    5    5    0    0  0.17089128400E+02  0.44597557483E+02  0.12977593133E+03  0.15963598016E+03  0.79755083625E+02 0.  0.
          5    1    3    3  501    0  0.51883647173E+02 -0.35558596459E+02  0.69912002312E+02  0.94159995186E+02  0.47000000000E+01 0. -1.
        -13    1    4    4    0    0  0.12793440848E+02 -0.95769491749E+01  0.20904238197E+02  0.26313062514E+02  0.00000000000E+00 0.  1.
         14    1    4    4    0    0 -0.69953789350E+02  0.36349376122E+02  0.71471813961E+01  0.79157387468E+02  0.00000000000E+00 0. -1.
         -5    1    5    5    0  502 -0.11812427071E+02 -0.35811387972E+02  0.31280992686E+03  0.31510970991E+03  0.47000000000E+01 0.  1.
         11    1    6    6    0    0 -0.23296395118E+02 -0.71608280400E+01  0.54829057098E+02  0.60001874854E+02  0.00000000000E+00 0. -1.
        -12    1    6    6    0    0  0.40385523518E+02  0.51758385523E+02  0.74946874236E+02  0.99634105303E+02  0.00000000000E+00 0.  1.
</event>
<event>
12    1  0.8133506E-002  0.3193767E+03  0.7818608E-02  0.1075997E+00
         21   -1    0    0  501  502  0.00000000000E+00  0.00000000000E+00  0.60614544742E+03  0.60614544742E+03  0.00000000000E+00 0.  1.
         21   -1    0    0  502  503 -0.00000000000E+00 -0.00000000000E+00 -0.17074417327E+03  0.17074417327E+03  0.00000000000E+00 0. -1.
         -6    2    1    2    0  503 -0.26671783614E+03 -0.31848433515E+02  0.16831755805E+03  0.36055422444E+03  0.17180169260E+03 0.  0.
        -24    2    3    3    0    0 -0.99738242986E+02 -0.66769349754E+02  0.10325325975E+03  0.17791494106E+03  0.81158039784E+02 0.  0.
          6    2    1    2  501    0  0.26671783614E+03  0.31848433515E+02  0.26708371609E+03  0.41633539625E+03  0.17276783245E+03 0.  0.
         24    2    5    5    0    0  0.15171996793E+03 -0.27560267779E+02  0.21506524856E+03  0.27675776750E+03  0.81014095705E+02 0.  0.
          5    1    5    5  501    0  0.11499786821E+03  0.59408701294E+02  0.52018467533E+02  0.13957762875E+03  0.47000000000E+01 0. -1.
        -11    1    6    6    0    0  0.89498687864E+02 -0.55740532336E+02  0.14006945793E+03  0.17531821103E+03  0.00000000000E+00 0.  1.
         12    1    6    6    0    0  0.62221280071E+02  0.28180264557E+02  0.74995790628E+02  0.10143955647E+03  0.00000000000E+00 0. -1.
         -5    1    3    3    0  503 -0.16697959316E+03  0.34920916239E+02  0.65064298298E+02  0.18263928338E+03  0.47000000000E+01 0.  1.
         13    1    4    4    0    0 -0.62783550657E+02 -0.36866653485E+02  0.10328192693E+02  0.73536357923E+02  0.00000000000E+00 0. -1.
        -14    1    4    4    0    0 -0.36954692328E+02 -0.29902696269E+02  0.92925067058E+02  0.10437858313E+03  0.00000000000E+00 0.  1.
</event>
<event>
12    1  0.8133506E-002  0.2981755E+03  0.7818608E-02  0.1086361E+00
         21   -1    0    0  503  502  0.00000000000E+00  0.00000000000E+00  0.24998702202E+03  0.24998702202E+03  0.00000000000E+00 0.  1.
         21   -1    0    0  501  503 -0.00000000000E+00 -0.00000000000E+00 -0.48275297329E+03  0.48275297329E+03  0.00000000000E+00 0.  1.
          6    2    1    2  501    0 -0.79271883583E+02 -0.22807545634E+03 -0.30602506285E+03  0.42727033421E+03  0.17494614627E+03 0.  0.
         24    2    3    3    0    0 -0.30985095476E+02 -0.21521490537E+03 -0.29666658512E+03  0.37621469023E+03  0.79049976496E+02 0.  0.
         -6    2    1    2    0  502  0.79271883583E+02  0.22807545634E+03  0.73259111584E+02  0.30546966110E+03  0.17216959984E+03 0.  0.
        -24    2    5    5    0    0 -0.24091388809E+02  0.10531694859E+03  0.49951887646E+02  0.14323854820E+03  0.79687112730E+02 0.  0.
          5    1    3    3  501    0 -0.48286788107E+02 -0.12860550970E+02 -0.93584777283E+01  0.51055643981E+02  0.47000000000E+01 0. -1.
        -13    1    4    4    0    0 -0.48358676581E+02 -0.78237647182E+02 -0.13850766677E+03  0.16626504380E+03  0.00000000000E+00 0.  1.
         14    1    4    4    0    0  0.17373581105E+02 -0.13697725819E+03 -0.15815891835E+03  0.20994964643E+03  0.00000000000E+00 0. -1.
         -5    1    5    5    0  502  0.10336327239E+03  0.12275850775E+03  0.23307223938E+02  0.16223111290E+03  0.47000000000E+01 0.  1.
         13    1    6    6    0    0 -0.26407185755E+02  0.23025152748E+02  0.49829995870E+02  0.60914083814E+02  0.00000000000E+00 0. -1.
        -14    1    6    6    0    0  0.23157969461E+01  0.82291795841E+02  0.12189177605E+00  0.82324464383E+02  0.00000000000E+00 0.  1.
</event>
<event>
12    1  0.8133506E-002  0.2025277E+03  0.7818608E-02  0.1147943E+00
         21   -1    0    0  503  502  0.00000000000E+00  0.00000000000E+00  0.80619587252E+03  0.80619587252E+03  0.00000000000E+00 0.  1.
         21   -1    0    0  501  503 -0.00000000000E+00 -0.00000000000E+00 -0.56620832305E+02  0.56620832305E+02  0.00000000000E+00 0.  1.
          6    2    1    2  501    0  0.12235141096E+02 -0.10562865535E+03  0.23160817384E+03  0.30666283428E+03  0.17056563615E+03 0.  0.
         24    2    3    3    0    0 -0.17527706801E+02 -0.17099074518E+02  0.18311847335E+03  0.20132217333E+03  0.79991520396E+02 0.  0.
         -6    2    1    2    0  502 -0.12235141096E+02  0.10562865535E+03  0.51796686638E+03  0.55615387054E+03  0.17236688064E+03 0.  0.
        -24    2    5    5    0    0 -0.22686114647E+02  0.71908128509E+02  0.13463969345E+03  0.17117580846E+03  0.74080170129E+02 0.  0.
          5    1    3    3  501    0  0.29762847897E+02 -0.88529580833E+02  0.48489700483E+02  0.10534066095E+03  0.47000000000E+01 0. -1.
        -11    1    4    4    0    0  0.69648830638E+01 -0.34538932804E+02  0.33177317062E+02  0.48396093259E+02  0.00000000000E+00 0.  1.
         12    1    4    4    0    0 -0.24492589865E+02  0.17439858286E+02  0.14994115629E+03  0.15292608007E+03  0.00000000000E+00 0. -1.
         -5    1    5    5    0  502  0.10450973550E+02  0.33720526842E+02  0.38332717292E+03  0.38497806208E+03  0.47000000000E+01 0.  1.
         13    1    6    6    0    0 -0.41729956868E+02  0.27683798365E+02  0.10007012901E+03  0.11190090577E+03  0.00000000000E+00 0. -1.
        -14    1    6    6    0    0  0.19043842221E+02  0.44224330144E+02  0.34569564438E+02  0.59274902688E+02  0.00000000000E+00 0.  1.
</event>
<event>
12    1  0.8133506E-002  0.2040517E+03  0.7818608E-02  0.1146658E+00
         21   -1    0    0  501  502  0.00000000000E+00  0.00000000000E+00  0.25127034585E+03  0.25127034585E+03  0.00000000000E+00 0.  1.
         21   -1    0    0  502  503 -0.00000000000E+00 -0.00000000000E+00 -0.19004157329E+03  0.19004157329E+03  0.00000000000E+00 0.  1.
         -6    2    1    2    0  503  0.54031724745E+02 -0.94463098304E+02 -0.50102018638E+02  0.21011256196E+03  0.17261046376E+03 0.  0.
        -24    2    3    3    0    0  0.53860589562E+02 -0.52246758159E+02 -0.97408745739E+02  0.14653375187E+03  0.79705645006E+02 0.  0.
          6    2    1    2  501    0 -0.54031724745E+02  0.94463098304E+02  0.11133079120E+03  0.23119935719E+03  0.17092657335E+03 0.  0.
         24    2    5    5    0    0 -0.62833553514E+02  0.11137454080E+03  0.13341833166E+03  0.20164570224E+03  0.80673379891E+02 0.  0.
          5    1    5    5  501    0  0.88018287681E+01 -0.16911442497E+02 -0.22087540465E+02  0.29553654948E+02  0.47000000000E+01 0. -1.
        -11    1    6    6    0    0 -0.17492330747E+02  0.10265074126E+03  0.10223920019E+03  0.14593152631E+03  0.00000000000E+00 0.  1.
         12    1    6    6    0    0 -0.45341222766E+02  0.87237995452E+01  0.31179131470E+02  0.55714175931E+02  0.00000000000E+00 0. -1.
         -5    1    3    3    0  503  0.17113518357E+00 -0.42216340145E+02  0.47306727100E+02  0.63578810082E+02  0.47000000000E+01 0.  1.
         13    1    4    4    0    0  0.54854297664E+02 -0.36358860616E+02 -0.21889537215E+02  0.69354974998E+02  0.00000000000E+00 0. -1.
        -14    1    4    4    0    0 -0.99370810165E+00 -0.15887897543E+02 -0.75519208523E+02  0.77178776876E+02  0.00000000000E+00 0.  1.
</event>
<event>
12    1  0.8133506E-002  0.1760835E+03  0.7818608E-02  0.1171899E+00
         21   -1    0    0  503  502  0.00000000000E+00  0.00000000000E+00  0.12586023222E+04  0.12586023222E+04  0.00000000000E+00 0.  1.
         21   -1    0    0  501  503 -0.00000000000E+00 -0.00000000000E+00 -0.24528102556E+02  0.24528102556E+02  0.00000000000E+00 0.  1.
          6    2    1    2  501    0  0.40077215987E+02 -0.46439918382E+01  0.59161397305E+03  0.61697686851E+03  0.17036905019E+03 0.  0.
         24    2    3    3    0    0  0.79132347006E+02 -0.42005992871E+02  0.38356739732E+03  0.40197293818E+03  0.80198896295E+02 0.  0.
         -6    2    1    2    0  502 -0.40077215987E+02  0.46439918382E+01  0.64246024658E+03  0.66615355623E+03  0.17139907278E+03 0.  0.
        -24    2    5    5    0    0 -0.63743865309E+02  0.37772596474E+02  0.58792768513E+03  0.59793695273E+03  0.79872317435E+02 0.  0.
          5    1    3    3  501    0 -0.39055131019E+02  0.37362001033E+02  0.20804657574E+03  0.21500393033E+03  0.47000000000E+01 0. -1.
        -13    1    4    4    0    0 -0.56392470330E+01  0.16151731424E+01 -0.83458803832E+00  0.59250678117E+01  0.00000000000E+00 0.  1.
         14    1    4    4    0    0  0.84771594039E+02 -0.43621166014E+02  0.38440198535E+03  0.39604787037E+03  0.00000000000E+00 0. -1.
         -5    1    5    5    0  502  0.23666649321E+02 -0.33128604636E+02  0.54532561451E+02  0.68216603504E+02  0.47000000000E+01 0.  1.
         13    1    6    6    0    0 -0.32688600180E+02 -0.23441694211E+02  0.20618406489E+03  0.21007124083E+03  0.00000000000E+00 0. -1.
        -14    1    6    6    0    0 -0.31055265128E+02  0.61214290685E+02  0.38174362024E+03  0.38786571190E+03  0.00000000000E+00 0.  1.
</event>
<event>
12    1  0.8133506E-002  0.1732752E+03  0.7818608E-02  0.1174901E+00
         21   -1    0    0  503  502  0.00000000000E+00  0.00000000000E+00  0.29740452279E+03  0.29740452279E+03  0.00000000000E+00 0.  1.
         21   -1    0    0  501  503 -0.00000000000E+00 -0.00000000000E+00 -0.12253375464E+03  0.12253375464E+03  0.00000000000E+00 0.  1.
          6    2    1    2  501    0 -0.11417465813E+02  0.59171403139E+01 -0.29792192835E+01  0.17163419191E+03  0.17112582800E+03 0.  0.
         24    2    3    3    0    0 -0.22090864495E+01 -0.16909930387E+02  0.62493411093E+02  0.10152980734E+03  0.78179597974E+02 0.  0.
         -6    2    1    2    0  502  0.11417465813E+02 -0.59171403139E+01  0.17784998744E+03  0.24830408552E+03  0.17279736625E+03 0.  0.
        -24    2    5    5    0    0 -0.31259133367E+02 -0.42856481010E+02  0.49722918340E+02  0.10821681685E+03  0.80154222960E+02 0.  0.
          5    1    3    3  501    0 -0.92083793635E+01  0.22827070701E+02 -0.65472630376E+02  0.70104384568E+02  0.47000000000E+01 0. -1.
        -13    1    4    4    0    0  0.21605558052E+02 -0.23550235333E+02 -0.24364931304E+01  0.32052304469E+02  0.00000000000E+00 0.  1.
         14    1    4    4    0    0 -0.23814644502E+02  0.66403049455E+01  0.64929904223E+02  0.69477502869E+02  0.00000000000E+00 0. -1.
         -5    1    5    5    0  502  0.42676599180E+02  0.36939340696E+02  0.12812706910E+03  0.14008726867E+03  0.47000000000E+01 0.  1.
         11    1    6    6    0    0  0.10423445685E+01 -0.52507532395E+02  0.52665816562E+02  0.74376176795E+02  0.00000000000E+00 0. -1.
        -12    1    6    6    0    0 -0.32301477935E+02  0.96510513852E+01 -0.29428982224E+01  0.33840640059E+02  0.00000000000E+00 0.  1.
</event>
<event>
12    1  0.8133506E-002  0.1941739E+03  0.7818608E-02  0.1157595E+00
         21   -1    0    0  501  502  0.00000000000E+00  0.00000000000E+00  0.11029077384E+03  0.11029077384E+03  0.00000000000E+00 0. -1.
         21   -1    0    0  502  503 -0.00000000000E+00 -0.00000000000E+00 -0.80385626901E+03  0.80385626901E+03  0.00000000000E+00 0.  1.
         -6    2    1    2    0  503 -0.58147073261E+02  0.19182980184E+01 -0.69665574178E+03  0.71994857058E+03  0.17208125908E+03 0.  0.
        -24    2    3    3    0    0 -0.20845497147E+01  0.61012294943E+02 -0.35293628453E+03  0.36667776467E+03  0.78496602983E+02 0.  0.
          6    2    1    2  501    0  0.58147073261E+02 -0.19182980184E+01  0.30902466062E+01  0.19419847227E+03  0.18525316464E+03 0.  0.
         24    2    5    5    0    0 -0.12930047186E+02 -0.15157836153E+02  0.59866204769E+02  0.10215043130E+03  0.80335558898E+02 0.  0.
          5    1    5    5  501    0  0.71077120448E+02  0.13239538134E+02 -0.56775958163E+02  0.92048040970E+02  0.47000000000E+01 0. -1.
        -11    1    6    6    0    0 -0.13697898511E+02 -0.39899646025E+02  0.64398125039E+02  0.76985275768E+02  0.00000000000E+00 0.  1.
         12    1    6    6    0    0  0.76785132479E+00  0.24741809872E+02 -0.45319202700E+01  0.25165155528E+02  0.00000000000E+00 0. -1.
         -5    1    3    3    0  503 -0.56062523546E+02 -0.59093996924E+02 -0.34371945725E+03  0.35327080592E+03  0.47000000000E+01 0.  1.
         11    1    4    4    0    0 -0.34994316557E+02  0.41461369270E+02 -0.26911309763E+03  0.27452778849E+03  0.00000000000E+00 0. -1.
        -12    1    4    4    0    0  0.32909766842E+02  0.19550925673E+02 -0.83823186897E+02  0.92149976180E+02  0.00000000000E+00 0.  1.
</event>
<event>
12    1  0.8133506E-002  0.1823369E+03  0.7818608E-02  0.1165709E+00
         21   -1    0    0  503  502  0.00000000000E+00  0.00000000000E+00  0.14381219760E+04  0.14381219760E+04  0.00000000000E+00 0.  1.
         21   -1    0    0  501  503 -0.00000000000E+00 -0.00000000000E+00 -0.71816194639E+02  0.71816194639E+02  0.00000000000E+00 0.  1.
          6    2    1    2  501    0  0.45909855486E+02  0.40972315570E+02  0.60584081202E+02  0.19154676631E+03  0.17097744680E+03 0.  0.
         24    2    3    3    0    0  0.80007556588E+02  0.35682121019E+02 -0.18781223196E+01  0.12003273798E+03  0.82036016312E+02 0.  0.
         -6    2    1    2    0  502 -0.45909855486E+02 -0.40972315570E+02  0.13057217002E+04  0.13183914044E+04  0.17164000487E+03 0.  0.
        -24    2    5    5    0    0  0.20645524607E+02 -0.89785684154E+01  0.10125531938E+04  0.10160289040E+04  0.80894444438E+02 0.  0.
          5    1    3    3  501    0 -0.34097701102E+02  0.52901945515E+01  0.62462203521E+02  0.71514028327E+02  0.47000000000E+01 0. -1.
        -13    1    4    4    0    0  0.14614521906E+02 -0.18978518825E+02  0.20924589788E+02  0.31805768111E+02  0.00000000000E+00 0.  1.
         14    1    4    4    0    0  0.65393034682E+02  0.54660639844E+02 -0.22802712108E+02  0.88226969870E+02  0.00000000000E+00 0. -1.
         -5    1    5    5    0  502 -0.66555380093E+02 -0.31993747155E+02  0.29316850637E+03  0.30236250033E+03  0.47000000000E+01 0.  1.
         13    1    6    6    0    0 -0.16582833332E+02  0.12075718790E+02  0.83183242593E+02  0.85675347644E+02  0.00000000000E+00 0. -1.
        -14    1    6    6    0    0  0.37228357939E+02 -0.21054287205E+02  0.92936995122E+03  0.93035355639E+03  0.00000000000E+00 0.  1.
</event>
<event>
12    1  0.8133506E-002  0.1848914E+03  0.7818608E-02  0.1163325E+00
         21   -1    0    0  501  502  0.00000000000E+00  0.00000000000E+00  0.29541496554E+03  0.29541496554E+03  0.00000000000E+00 0. -1.
         21   -1    0    0  502  503 -0.00000000000E+00 -0.00000000000E+00 -0.13748861801E+03  0.13748861801E+03  0.00000000000E+00 0. -1.
         -6    2    1    2    0  503 -0.60904683406E+02 -0.28553416853E+02 -0.79482012407E+01  0.18506211734E+03  0.17222118132E+03 0.  0.
        -24    2    3    3    0    0 -0.37952049427E+02  0.44758282081E+02 -0.31795384489E+02  0.10448788600E+03  0.80393469728E+02 0.  0.
          6    2    1    2  501    0  0.60904683406E+02  0.28553416853E+02  0.16587454877E+03  0.24784146622E+03  0.17142446842E+03 0.  0.
         24    2    5    5    0    0  0.21563600093E+02 -0.49385781263E+02  0.68461953109E+02  0.11694630499E+03  0.78009326289E+02 0.  0.
          5    1    5    5  501    0  0.39341083313E+02  0.77939198116E+02  0.97412595657E+02  0.13089516122E+03  0.47000000000E+01 0. -1.
        -13    1    6    6    0    0 -0.93546332374E+01  0.10710656508E+02  0.42042630403E+02  0.44382542706E+02  0.00000000000E+00 0.  1.
         14    1    6    6    0    0  0.30918233330E+02 -0.60096437771E+02  0.26419322705E+02  0.72563762287E+02  0.00000000000E+00 0. -1.
         -5    1    3    3    0  503 -0.22952633979E+02 -0.73311698934E+02  0.23847183248E+02  0.80574231340E+02  0.47000000000E+01 0.  1.
         11    1    4    4    0    0 -0.53948685227E+02  0.19693640807E+02 -0.43997815096E+02  0.72347134423E+02  0.00000000000E+00 0. -1.
        -12    1    4    4    0    0  0.15996635800E+02  0.25064641273E+02  0.12202430607E+02  0.32140751575E+02  0.00000000000E+00 0.  1.
</event>
<event>
12    1  0.8133506E-002  0.2222992E+03  0.7818608E-02  0.1133399E+00
         21   -1    0    0  503  502  0.00000000000E+00  0.00000000000E+00  0.33223571321E+03  0.33223571321E+03  0.00000000000E+00 0.  1.
         21   -1    0    0  501  503 -0.00000000000E+00 -0.00000000000E+00 -0.16241175001E+03  0.16241175001E+03  0.00000000000E+00 0. -1.
          6    2    1    2  501    0 -0.12312583185E+03  0.66705899782E+02  0.16836704528E+03  0.27886269843E+03  0.17264789342E+03 0.  0.
         24    2    3    3    0    0 -0.59305004173E+02  0.10638622853E+03  0.94632758790E+02  0.17347550025E+03  0.79393179886E+02 0.  0.
         -6    2    1    2    0  502  0.12312583185E+03 -0.66705899782E+02  0.14569179184E+01  0.21578476479E+03  0.16416849446E+03 0.  0.
        -24    2    5    5    0    0  0.11513114120E+03 -0.68457394257E+02 -0.49885827097E+02  0.16358179288E+03  0.79553835307E+02 0.  0.
          5    1    3    3  501    0 -0.63820827679E+02 -0.39680328744E+02  0.73734286488E+02  0.10538719817E+03  0.47000000000E+01 0. -1.
        -11    1    4    4    0    0 -0.48025472417E+02  0.24233919571E+02  0.67314933812E+02  0.86168608976E+02  0.00000000000E+00 0.  1.
         12    1    4    4    0    0 -0.11279531756E+02  0.82152308955E+02  0.27317824978E+02  0.87306891279E+02  0.00000000000E+00 0. -1.
         -5    1    5    5    0  502  0.79946906485E+01  0.17514944746E+01  0.51342745015E+02  0.52202971919E+02  0.47000000000E+01 0.  1.
         13    1    6    6    0    0  0.12303392064E+03 -0.45297848939E+02 -0.38889912177E+02  0.13675403473E+03  0.00000000000E+00 0. -1.
        -14    1    6    6    0    0 -0.79027794349E+01 -0.23159545317E+02 -0.10995914920E+02  0.26827758144E+02  0.00000000000E+00 0.  1.
</event>
<event>
12    1  0.8133506E-002  0.2433099E+03  0.7818608E-02  0.1117668E+00
         21   -1    0    0  503  502  0.00000000000E+00  0.00000000000E+00  0.40022039139E+03  0.40022039139E+03  0.00000000000E+00 0. -1.
         21   -1    0    0  501  503 -0.00000000000E+00 -0.00000000000E+00 -0.18528821601E+03  0.18528821601E+03  0.00000000000E+00 0. -1.
          6    2    1    2  501    0 -0.13861025433E+03  0.10276659357E+03 -0.24470785651E+02  0.24416787376E+03  0.17101273598E+03 0.  0.
         24    2    3    3    0    0 -0.39034242735E+02  0.52066353760E+02 -0.69063795984E+02  0.12376636641E+03  0.79458972051E+02 0.  0.
         -6    2    1    2    0  502  0.13861025433E+03 -0.10276659357E+03  0.23940296104E+03  0.34134073363E+03  0.17153991759E+03 0.  0.
        -24    2    5    5    0    0  0.81634249207E+02 -0.22085276286E+02  0.20775687712E+03  0.23751730301E+03  0.78100186744E+02 0.  0.
          5    1    3    3  501    0 -0.99576011591E+02  0.50700239813E+02  0.44593010333E+02  0.12040150735E+03  0.47000000000E+01 0. -1.
        -11    1    4    4    0    0  0.18897341227E+02  0.83712267883E+01  0.37089427071E+01  0.20998647561E+02  0.00000000000E+00 0.  1.
         12    1    4    4    0    0 -0.57931583961E+02  0.43695126972E+02 -0.72772738691E+02  0.10276771885E+03  0.00000000000E+00 0. -1.
         -5    1    5    5    0  502  0.56976005118E+02 -0.80681317286E+02  0.31646083919E+02  0.10382343062E+03  0.47000000000E+01 0.  1.
         13    1    6    6    0    0  0.82540541458E+02 -0.25141207684E+02  0.11044820117E+03  0.14015643563E+03  0.00000000000E+00 0. -1.
        -14    1    6    6    0    0 -0.90629225126E+00  0.30559313972E+01  0.97308675949E+02  0.97360867381E+02  0.00000000000E+00 0.  1.
</event>
<event>
12    1  0.8133506E-002  0.2141247E+03  0.7818608E-02  0.1139802E+00
         21   -1    0    0  501  502  0.00000000000E+00  0.00000000000E+00  0.44890880525E+03  0.44890880525E+03  0.00000000000E+00 0.  1.
         21   -1    0    0  502  503 -0.00000000000E+00 -0.00000000000E+00 -0.10337593301E+03  0.10337593301E+03  0.00000000000E+00 0.  1.
         -6    2    1    2    0  503  0.38982411840E+02  0.12202757243E+03  0.11064872802E+03  0.23444838075E+03  0.16221142178E+03 0.  0.
        -24    2    3    3    0    0 -0.43527776976E+01  0.11200426152E+02  0.10412211947E+02  0.78788353250E+02  0.77167313226E+02 0.  0.
          6    2    1    2  501    0 -0.38982411840E+02 -0.12202757243E+03  0.23488414422E+03  0.31783635751E+03  0.17157806412E+03 0.  0.
         24    2    5    5    0    0 -0.32406851898E+02 -0.14436168400E+03  0.24034929438E+03  0.29346407009E+03  0.80392022404E+02 0.  0.
          5    1    5    5  501    0 -0.65755599421E+01  0.22334111567E+02 -0.54651501626E+01  0.24372287425E+02  0.47000000000E+01 0. -1.
        -11    1    6    6    0    0 -0.54537110494E+02 -0.67353858387E+02  0.14493079696E+03  0.16886614394E+03  0.00000000000E+00 0.  1.
         12    1    6    6    0    0  0.22130258596E+02 -0.77007825615E+02  0.95418497421E+02  0.12459792615E+03  0.00000000000E+00 0. -1.
         -5    1    3    3    0  503  0.43335189538E+02  0.11082714628E+03  0.10023651607E+03  0.15566002750E+03  0.47000000000E+01 0.  1.
         11    1    4    4    0    0  0.28517598644E+01 -0.28924577091E+02  0.21948129248E+02  0.36420929034E+02  0.00000000000E+00 0. -1.
        -12    1    4    4    0    0 -0.72045375620E+01  0.40125003243E+02 -0.11535917300E+02  0.42367424216E+02  0.00000000000E+00 0.  1.
</event>
<event>
12    1  0.8133506E-002  0.2120189E+03  0.7818608E-02  0.1140001E+00
         21   -1    0    0  501  502  0.00000000000E+00  0.00000000000E+00  0.12252370691E+03  0.12252370691E+03  0.00000000000E+00 0.  1.
         21   -1    0    0  502  503 -0.00000000000E+00 -0.00000000000E+00 -0.59163195530E+03  0.59163195530E+03  0.00000000000E+00 0. -1.
         -6    2    1    2    0  503 -0.11856765019E+03 -0.36322968059E+02 -0.45469756087E+03  0.50164756462E+03  0.17182188905E+03 0.  0.
        -24    2    3    3    0    0 -0.14558474765E+03 -0.55649898714E+02 -0.40914620038E+03  0.44507486585E+03  0.79994955802E+02 0.  0.
          6    2    1    2  501    0  0.11856765019E+03  0.36322968059E+02 -0.14410687523E+02  0.21250809758E+03  0.17197202663E+03 0.  0.
         24    2    5    5    0    0 -0.67123421783E+01  0.27276729719E+02 -0.18295933963E+02  0.86753988082E+02  0.80015234343E+02 0.  0.
          5    1    5    5  501    0  0.12527999237E+03  0.90462383401E+01  0.38852464399E+01  0.12575410950E+03  0.47000000000E+01 0. -1.
        -13    1    6    6    0    0  0.22476044300E+02  0.30973994947E+02  0.16076439878E+02  0.41509189941E+02  0.00000000000E+00 0.  1.
         14    1    6    6    0    0 -0.29188386479E+02 -0.36972652279E+01 -0.34372373841E+02  0.45244798142E+02  0.00000000000E+00 0. -1.
         -5    1    3    3    0  503  0.27017097465E+02  0.19326930655E+02 -0.45551360486E+02  0.56572698769E+02  0.47000000000E+01 0.  1.
         11    1    4    4    0    0 -0.13286223953E+03 -0.27425159545E+02 -0.26575338651E+03  0.29837790888E+03  0.00000000000E+00 0. -1.
        -12    1    4    4    0    0 -0.12722508120E+02 -0.28224739169E+02 -0.14339281387E+03  0.14669695697E+03  0.00000000000E+00 0.  1.
</event>
<event>
12    1  0.8133506E-002  0.1976179E+03  0.7818608E-02  0.1151861E+00
         21   -1    0    0  501  502  0.00000000000E+00  0.00000000000E+00  0.88735771076E+03  0.88735771076E+03  0.00000000000E+00 0.  1.
         21   -1    0    0  502  503 -0.00000000000E+00 -0.00000000000E+00 -0.48834424444E+02  0.48834424444E+02  0.00000000000E+00 0.  1.
         -6    2    1    2    0  503 -0.50832268276E+02  0.84026121882E+02  0.56832889939E+03  0.60170637366E+03  0.17148910626E+03 0.  0.
        -24    2    3    3    0    0 -0.22387687472E+01  0.49221898434E+02  0.13555678740E+03  0.16480083114E+03  0.79723672548E+02 0.  0.
          6    2    1    2  501    0  0.50832268276E+02 -0.84026121882E+02  0.27019438692E+03  0.33448576154E+03  0.17097195469E+03 0.  0.
         24    2    5    5    0    0  0.12541034322E+02  0.22914692368E+02  0.12487067298E+03  0.14997660680E+03  0.78853896208E+02 0.  0.
          5    1    5    5  501    0  0.38291233953E+02 -0.10694081425E+03  0.14532371394E+03  0.18450915474E+03  0.47000000000E+01 0. -1.
        -11    1    6    6    0    0 -0.33590089493E+02  0.73993686278E+01  0.51164719582E+02  0.61651223006E+02  0.00000000000E+00 0.  1.
         12    1    6    6    0    0  0.46131123815E+02  0.15515323741E+02  0.73705953400E+02  0.88325383791E+02  0.00000000000E+00 0. -1.
         -5    1    3    3    0  503 -0.48593499528E+02  0.34804223448E+02  0.43277211199E+03  0.43690554252E+03  0.47000000000E+01 0.  1.
         13    1    4    4    0    0 -0.37476171833E+02  0.15402212664E+02  0.37290354341E+02  0.55065979852E+02  0.00000000000E+00 0. -1.
        -14    1    4    4    0    0  0.35237403086E+02  0.33819685770E+02  0.98266433057E+02  0.10973485129E+03  0.00000000000E+00 0.  1.
</event>
<event>
12    1  0.8133506E-002  0.2681604E+03  0.7818608E-02  0.1102473E+00
         21   -1    0    0  503  502  0.00000000000E+00  0.00000000000E+00  0.19917561433E+04  0.19917561433E+04  0.00000000000E+00 0.  1.
         21   -1    0    0  501  503 -0.00000000000E+00 -0.00000000000E+00 -0.15437564231E+03  0.15437564231E+03  0.00000000000E+00 0. -1.
          6    2    1    2  501    0  0.23558624883E+02  0.20414494638E+03 -0.21429992108E+02  0.26807788943E+03  0.17081083776E+03 0.  0.
         24    2    3    3    0    0  0.14131907444E+02  0.39996071061E+02  0.16768419010E+02  0.99214261362E+02  0.88107282748E+02 0.  0.
         -6    2    1    2    0  502 -0.23558624883E+02 -0.20414494638E+03  0.18588104931E+04  0.18780538962E+04  0.17227832063E+03 0.  0.
        -24    2    5    5    0    0 -0.55360811136E+02 -0.60729567981E+02  0.10312432231E+04  0.10375367778E+04  0.79164893656E+02 0.  0.
          5    1    3    3  501    0  0.94267174391E+01  0.16414887532E+03 -0.38198411118E+02  0.16886362807E+03  0.47000000000E+01 0. -1.
        -13    1    4    4    0    0 -0.13236261205E+02 -0.13326852776E+02 -0.21153242769E+02  0.28288925312E+02  0.00000000000E+00 0.  1.
         14    1    4    4    0    0  0.27368168649E+02  0.53322923837E+02  0.37921661780E+02  0.70925336051E+02  0.00000000000E+00 0. -1.
         -5    1    5    5    0  502  0.31802186253E+02 -0.14341537840E+03  0.82756727006E+03  0.84051711838E+03  0.47000000000E+01 0.  1.
         13    1    6    6    0    0  0.52337678135E+01 -0.36060472268E+02  0.62480660078E+03  0.62586822764E+03  0.00000000000E+00 0. -1.
        -14    1    6    6    0    0 -0.60594578950E+02 -0.24669095712E+02  0.40643662229E+03  0.41166855019E+03  0.00000000000E+00 0.  1.
</event>
<event>
12    1  0.8133506E-002  0.3920086E+03  0.7818608E-02  0.1046591E+00
         21   -1    0    0  503  502  0.00000000000E+00  0.00000000000E+00  0.38648284923E+03  0.38648284923E+03  0.00000000000E+00 0. -1.
         21   -1    0    0  501  503 -0.00000000000E+00 -0.00000000000E+00 -0.46118108307E+03  0.46118108307E+03  0.00000000000E+00 0.  1.
          6    2    1    2  501    0  0.35180265527E+03 -0.19511036786E+02 -0.19483313926E+03  0.43775644036E+03  0.17182828671E+03 0.  0.
         24    2    3    3    0    0  0.28044947266E+03 -0.29055689092E+02 -0.21835030349E+03  0.36187808990E+03  0.61504122863E+02 0.  0.
         -6    2    1    2    0  502 -0.35180265527E+03  0.19511036786E+02  0.12013490542E+03  0.40990749194E+03  0.17159827399E+03 0.  0.
        -24    2    5    5    0    0 -0.32869330108E+03  0.54614280650E+02  0.12974085827E+03  0.36654109584E+03  0.80608180786E+02 0.  0.
          5    1    3    3  501    0  0.71353182603E+02  0.95446523052E+01  0.23517164231E+02  0.75878350461E+02  0.47000000000E+01 0. -1.
        -13    1    4    4    0    0  0.13732248095E+03  0.15961053921E+02 -0.96554112582E+02  0.16862655684E+03  0.00000000000E+00 0.  1.
         14    1    4    4    0    0  0.14312699171E+03 -0.45016743013E+02 -0.12179619091E+03  0.19325153306E+03  0.00000000000E+00 0. -1.
         -5    1    5    5    0  502 -0.23109354191E+02 -0.35103243863E+02 -0.96059528450E+01  0.43366396102E+02  0.47000000000E+01 0.  1.
         13    1    6    6    0    0 -0.17236134823E+03  0.59292499079E+02  0.98005440737E+02  0.20695192975E+03  0.00000000000E+00 0. -1.
        -14    1    6    6    0    0 -0.15633195284E+03 -0.46782184287E+01  0.31735417531E+02  0.15958916609E+03  0.00000000000E+00 0.  1.
</event>
<event>
12    1  0.8133506E-002  0.2027729E+03  0.7818608E-02  0.1147597E+00
         21   -1    0    0  503  502  0.00000000000E+00  0.00000000000E+00  0.40757351891E+03  0.40757351891E+03  0.00000000000E+00 0. -1.
         21   -1    0    0  501  503 -0.00000000000E+00 -0.00000000000E+00 -0.16670237109E+03  0.16670237109E+03  0.00000000000E+00 0.  1.
          6    2    1    2  501    0  0.94271954003E+02  0.49561076956E+02 -0.60415392408E+02  0.21158179785E+03  0.17254951719E+03 0.  0.
         24    2    3    3    0    0  0.48843765597E+02 -0.11760279312E+02 -0.89114108906E+02  0.12991335006E+03  0.80075817265E+02 0.  0.
         -6    2    1    2    0  502 -0.94271954003E+02 -0.49561076956E+02  0.30128654023E+03  0.36269409214E+03  0.17155151848E+03 0.  0.
        -24    2    5    5    0    0 -0.12562268257E+03 -0.45088888943E+02  0.28882740615E+03  0.32834021798E+03  0.81067637938E+02 0.  0.
          5    1    3    3  501    0  0.45428188406E+02  0.61321356268E+02  0.28698716498E+02  0.81668447794E+02  0.47000000000E+01 0. -1.
        -11    1    4    4    0    0 -0.21667768560E+02 -0.36641613053E+01 -0.11730596231E+02  0.24910342438E+02  0.00000000000E+00 0.  1.
         12    1    4    4    0    0  0.70511534157E+02 -0.80961180071E+01 -0.77383512675E+02  0.10500300762E+03  0.00000000000E+00 0. -1.
         -5    1    5    5    0  502  0.31350728570E+02 -0.44721880122E+01  0.12459134077E+02  0.34353874154E+02  0.47000000000E+01 0.  1.
         13    1    6    6    0    0 -0.74323661641E+02 -0.10401462549E+02  0.23362037752E+03  0.24537864189E+03  0.00000000000E+00 0. -1.
        -14    1    6    6    0    0 -0.51299020932E+02 -0.34687426394E+02  0.55207028632E+02  0.82961576099E+02  0.00000000000E+00 0.  1.
</event>
<event>
12    1  0.8133506E-002  0.2073728E+03  0.7818608E-02  0.1143901E+00
         21   -1    0    0  501  502  0.00000000000E+00  0.00000000000E+00  0.53110998407E+03  0.53110998407E+03  0.00000000000E+00 0. -1.
         21   -1    0    0  502  503 -0.00000000000E+00 -0.00000000000E+00 -0.99448306412E+02  0.99448306412E+02  0.00000000000E+00 0. -1.
         -6    2    1    2    0  503  0.10457866744E+03  0.48925270061E+02  0.77754803086E+02  0.22037106867E+03  0.17084267256E+03 0.  0.
        -24    2    3    3    0    0  0.90968322249E+02  0.79531977462E+02  0.10063435233E+02  0.14469925545E+03  0.78968542512E+02 0.  0.
          6    2    1    2  501    0 -0.10457866744E+03 -0.48925270061E+02  0.35390687457E+03  0.41018722181E+03  0.17225882078E+03 0.  0.
         24    2    5    5    0    0 -0.13350933833E+03 -0.13534368192E+02  0.31032836550E+03  0.34685732282E+03  0.77449244144E+02 0.  0.
          5    1    5    5  501    0  0.28930670891E+02 -0.35390901869E+02  0.43578509069E+02  0.63329898990E+02  0.47000000000E+01 0. -1.
        -13    1    6    6    0    0 -0.35581179785E+02  0.25732367339E+02  0.53573357218E+02  0.69269615904E+02  0.00000000000E+00 0.  1.
         14    1    6    6    0    0 -0.97928158544E+02 -0.39266735531E+02  0.25675500828E+03  0.27758770692E+03  0.00000000000E+00 0. -1.
         -5    1    3    3    0  503  0.13610345189E+02 -0.30606707401E+02  0.67691367853E+02  0.75671813219E+02  0.47000000000E+01 0.  1.
         13    1    4    4    0    0  0.41387409844E+02  0.17346953766E+02  0.39610405236E+02  0.59856651272E+02  0.00000000000E+00 0. -1.
        -14    1    4    4    0    0  0.49580912405E+02  0.62185023696E+02 -0.29546970002E+02  0.84842604176E+02  0.00000000000E+00 0.  1.
</event>
<event>
12    1  0.8133506E-002  0.1963015E+03  0.7818608E-02  0.1154997E+00
         21   -1    0    0  503  502  0.00000000000E+00  0.00000000000E+00  0.80874971352E+03  0.80874971352E+03  0.00000000000E+00 0. -1.
         21   -1    0    0  501  503 -0.00000000000E+00 -0.00000000000E+00 -0.12768190774E+03  0.12768190774E+03  0.00000000000E+00 0. -1.
          6    2    1    2  501    0 -0.62733877978E+02  0.41123409398E+02 -0.32353552324E+02  0.19894984316E+03  0.18140455755E+03 0.  0.
         24    2    3    3    0    0 -0.91017152159E+02  0.77025923919E+02  0.10134384545E+02  0.13636990287E+03  0.65398239393E+02 0.  0.
         -6    2    1    2    0  502  0.62733877978E+02 -0.41123409398E+02  0.71342135810E+03  0.73748177810E+03  0.17112178291E+03 0.  0.
        -24    2    5    5    0    0 -0.22428088861E+02  0.14658994687E+02  0.28992750894E+03  0.30189783960E+03  0.79789973175E+02 0.  0.
          5    1    3    3  501    0  0.28283274181E+02 -0.35902514522E+02 -0.42487936869E+02  0.62579940290E+02  0.47000000000E+01 0. -1.
        -13    1    4    4    0    0 -0.11470199078E+02 -0.11844182290E+02 -0.13726918758E+01  0.16544920791E+02  0.00000000000E+00 0.  1.
         14    1    4    4    0    0 -0.79546953082E+02  0.88870106210E+02  0.11507076420E+02  0.11982498208E+03  0.00000000000E+00 0. -1.
         -5    1    5    5    0  502  0.85161966839E+02 -0.55782404084E+02  0.42349384916E+03  0.43558393850E+03  0.47000000000E+01 0.  1.
         11    1    6    6    0    0 -0.24797469874E+02 -0.29560032464E+02  0.16169078434E+03  0.16623062225E+03  0.00000000000E+00 0. -1.
        -12    1    6    6    0    0  0.23693810129E+01  0.44219027150E+02  0.12823672460E+03  0.13566721735E+03  0.00000000000E+00 0.  1.
</event>
<event>
12    1  0.8133506E-002  0.1784483E+03  0.7818608E-02  0.1169761E+00
         21   -1    0    0  503  502  0.00000000000E+00  0.00000000000E+00  0.22622209993E+03  0.22622209993E+03  0.00000000000E+00 0.  1.
         21   -1    0    0  501  503 -0.00000000000E+00 -0.00000000000E+00 -0.17226891747E+03  0.17226891747E+03  0.00000000000E+00 0.  1.
          6    2    1    2  501    0 -0.43359646941E+02  0.15969321451E+02 -0.60255765697E+02  0.18662432201E+03  0.17047815712E+03 0.  0.
         24    2    3    3    0    0  0.28523958545E+02  0.18912858745E+02  0.94442232524E+01  0.86344236207E+02  0.78707187323E+02 0.  0.
         -6    2    1    2    0  502  0.43359646941E+02 -0.15969321451E+02  0.11420894816E+03  0.21186669539E+03  0.17236221908E+03 0.  0.
        -24    2    5    5    0    0 -0.13453491287E+02 -0.35291876797E+02  0.71871076521E+01  0.89078837008E+02  0.80354661910E+02 0.  0.
          5    1    3    3  501    0 -0.71883605486E+02 -0.29435372947E+01 -0.69699988949E+02  0.10028008580E+03  0.47000000000E+01 0. -1.
        -11    1    4    4    0    0 -0.13248278852E+02 -0.49126159277E+01  0.30678118849E+02  0.33775696349E+02  0.00000000000E+00 0.  1.
         12    1    4    4    0    0  0.41772237397E+02  0.23825474673E+02 -0.21233895596E+02  0.52568539858E+02  0.00000000000E+00 0. -1.
         -5    1    5    5    0  502  0.56813138228E+02  0.19322555346E+02  0.10702184050E+03  0.12278785838E+03  0.47000000000E+01 0.  1.
         11    1    6    6    0    0  0.80908004141E+01 -0.51291738086E+02  0.24217254889E+02  0.57295539805E+02  0.00000000000E+00 0. -1.
        -12    1    6    6    0    0 -0.21544291701E+02  0.15999861289E+02 -0.17030147237E+02  0.31783297203E+02  0.00000000000E+00 0.  1.
</event>
<event>
12    1  0.8133506E-002  0.1861654E+03  0.7818608E-02  0.1165554E+00
         21   -1    0    0  503  502  0.00000000000E+00  0.00000000000E+00  0.12050866455E+03  0.12050866455E+03  0.00000000000E+00 0. -1.
         21   -1    0    0  501  503 -0.00000000000E+00 -0.00000000000E+00 -0.26553665045E+03  0.26553665045E+03  0.00000000000E+00 0. -1.
          6    2    1    2  501    0 -0.43479937157E+02 -0.12835719115E+02 -0.68143537758E+02  0.19824503354E+03  0.18056104499E+03 0.  0.
         24    2    3    3    0    0 -0.85215812497E+01 -0.76693743477E+02 -0.62160651672E+02  0.12504791032E+03  0.76278998568E+02 0.  0.
         -6    2    1    2    0  502  0.43479937157E+02  0.12835719115E+02 -0.76884448144E+02  0.18780028145E+03  0.16523458091E+03 0.  0.
        -24    2    5    5    0    0  0.77465336293E+02  0.45550700071E+02 -0.71567596669E+02  0.14009665221E+03  0.80183579763E+02 0.  0.
          5    1    3    3  501    0 -0.34958355907E+02  0.63858024362E+02 -0.59828860859E+01  0.73197123229E+02  0.47000000000E+01 0. -1.
        -11    1    4    4    0    0 -0.32799485531E+02 -0.67094685935E+02 -0.23301354161E+02  0.78233344793E+02  0.00000000000E+00 0.  1.
         12    1    4    4    0    0  0.24277904281E+02 -0.95990575417E+01 -0.38859297512E+02  0.46814565523E+02  0.00000000000E+00 0. -1.
         -5    1    5    5    0  502 -0.33985399135E+02 -0.32714980956E+02 -0.53168514754E+01  0.47703629243E+02  0.47000000000E+01 0.  1.
         13    1    6    6    0    0  0.39558983448E+02 -0.55787070423E+01  0.52974968238E+01  0.40300106902E+02  0.00000000000E+00 0. -1.
        -14    1    6    6    0    0  0.37906352844E+02  0.51129407113E+02 -0.76865093492E+02  0.99796545307E+02  0.00000000000E+00 0.  1.
</event>
<event>
12    1  0.8133506E-002  0.2631508E+03  0.7818608E-02  0.1105495E+00
         21   -1    0    0  503  502  0.00000000000E+00  0.00000000000E+00  0.35798122101E+03  0.35798122101E+03  0.00000000000E+00 0.  1.
         21   -1    0    0  501  503 -0.00000000000E+00 -0.00000000000E+00 -0.22656905870E+03  0.22656905870E+03  0.00000000000E+00 0. -1.
          6    2    1    2  501    0 -0.19407462303E+03 -0.42267668010E+02 -0.48120338830E+02  0.26599065096E+03  0.17024671605E+03 0.  0.
         24    2    3    3    0    0 -0.13736152071E+03  0.13737376207E+02  0.19734181840E+02  0.16120865381E+03  0.80881946394E+02 0.  0.
         -6    2    1    2    0  502  0.19407462303E+03  0.42267668010E+02  0.17953250114E+03  0.31855962875E+03  0.17261750502E+03 0.  0.
        -24    2    5    5    0    0  0.58495613936E+02  0.40246699640E+02  0.18313324530E+02  0.10784782337E+03  0.79083762354E+02 0.  0.
          5    1    3    3  501    0 -0.56713102318E+02 -0.56005044217E+02 -0.67854520670E+02  0.10478199715E+03  0.47000000000E+01 0. -1.
        -13    1    4    4    0    0 -0.74697082321E+02  0.28678675294E+02 -0.23775409966E+02  0.83470896982E+02  0.00000000000E+00 0.  1.
         14    1    4    4    0    0 -0.62664438389E+02 -0.14941299088E+02  0.43509591806E+02  0.77737756825E+02  0.00000000000E+00 0. -1.
         -5    1    5    5    0  502  0.13557900909E+03  0.20209683700E+01  0.16121917661E+03  0.21071180538E+03  0.47000000000E+01 0.  1.
         11    1    6    6    0    0  0.60348080710E+02  0.60367852382E+02  0.97941813019E+01  0.85919115650E+02  0.00000000000E+00 0. -1.
        -12    1    6    6    0    0 -0.18524667742E+01 -0.20121152742E+02  0.85191432284E+01  0.21928707718E+02  0.00000000000E+00 0.  1.
</event>
<event>
12    1  0.8133506E-002  0.2108409E+03  0.7818608E-02  0.1142319E+00
         21   -1    0    0  503  502  0.00000000000E+00  0.00000000000E+00  0.73119909413E+03  0.73119909413E+03  0.00000000000E+00 0. -1.
         21   -1    0    0  501  503 -0.00000000000E+00 -0.00000000000E+00 -0.58968429436E+02  0.58968429436E+02  0.00000000000E+00 0.  1.
          6    2    1    2  501    0 -0.35393569527E+02 -0.10265520503E+03  0.36437359319E+03  0.42097742165E+03  0.18072929546E+03 0.  0.
         24    2    3    3    0    0  0.41885347857E+02 -0.91199752460E+02  0.26611610241E+03  0.29535941752E+03  0.79672004766E+02 0.  0.
         -6    2    1    2    0  502  0.35393569527E+02  0.10265520503E+03  0.30785707150E+03  0.36919010192E+03  0.17243711607E+03 0.  0.
        -24    2    5    5    0    0 -0.38348878117E+02  0.43811003282E+02  0.21696018482E+03  0.23809882581E+03  0.78925842368E+02 0.  0.
          5    1    3    3  501    0 -0.77278917385E+02 -0.11455452567E+02  0.98257490787E+02  0.12561800413E+03  0.47000000000E+01 0. -1.
        -11    1    4    4    0    0 -0.12178255928E+02 -0.44936403177E+02  0.52331888226E+02  0.70044391447E+02  0.00000000000E+00 0.  1.
         12    1    4    4    0    0  0.54063603785E+02 -0.46263349284E+02  0.21378421418E+03  0.22531502607E+03  0.00000000000E+00 0. -1.
         -5    1    5    5    0  502  0.73742447645E+02  0.58844201746E+02  0.90896886682E+02  0.13109127611E+03  0.47000000000E+01 0.  1.
         11    1    6    6    0    0 -0.26878050391E+02  0.57705923557E+02  0.20885624952E+03  0.21834224550E+03  0.00000000000E+00 0. -1.
        -12    1    6    6    0    0 -0.11470827726E+02 -0.13894920276E+02  0.81039352997E+01  0.19756580309E+02  0.00000000000E+00 0.  1.
</event>
<event>
12    1  0.8133506E-002  0.2222562E+03  0.7818608E-02  0.1132241E+00
         21   -1    0    0  501  502  0.00000000000E+00  0.00000000000E+00  0.78606445246E+03  0.78606445246E+03  0.00000000000E+00 0. -1.
         21   -1    0    0  502  503 -0.00000000000E+00 -0.00000000000E+00 -0.74028310020E+02  0.74028310020E+02  0.00000000000E+00 0. -1.
         -6    2    1    2    0  503 -0.13731883119E+03 -0.30258116790E+02  0.52362240528E+03  0.56883936834E+03  0.17212143570E+03 0.  0.
        -24    2    3    3    0    0 -0.97161174134E+02 -0.85910272142E+02  0.37934490451E+03  0.40900230428E+03  0.80990491513E+02 0.  0.
          6    2    1    2  501    0  0.13731883119E+03  0.30258116790E+02  0.18841373716E+03  0.29125339414E+03  0.17192087778E+03 0.  0.
         24    2    5    5    0    0  0.95787889636E+02 -0.34282201888E+02  0.61288544576E+02  0.14268295149E+03  0.79066742576E+02 0.  0.
          5    1    5    5  501    0  0.41530941558E+02  0.64540318678E+02  0.12712519258E+03  0.14857044265E+03  0.47000000000E+01 0. -1.
        -11    1    6    6    0    0  0.10397330266E+02  0.14656848573E+02 -0.10545472351E+02  0.20835898682E+02  0.00000000000E+00 0.  1.
         12    1    6    6    0    0  0.85390559369E+02 -0.48939050461E+02  0.71834016927E+02  0.12184705281E+03  0.00000000000E+00 0. -1.
         -5    1    3    3    0  503 -0.40157657059E+02  0.55652155352E+02  0.14427750078E+03  0.15983706406E+03  0.47000000000E+01 0.  1.
         13    1    4    4    0    0 -0.50697459720E+02 -0.86246873048E+01  0.21980242247E+03  0.22573817262E+03  0.00000000000E+00 0. -1.
        -14    1    4    4    0    0 -0.46463714414E+02 -0.77285584837E+02  0.15954248204E+03  0.18326413167E+03  0.00000000000E+00 0.  1.
</event>
<event>
12    1  0.8133506E-002  0.1816772E+03  0.7818608E-02  0.1166857E+00
         21   -1    0    0  501  502  0.00000000000E+00  0.00000000000E+00  0.12750810144E+04  0.12750810144E+04  0.00000000000E+00 0. -1.
         21   -1    0    0  502  503 -0.00000000000E+00 -0.00000000000E+00 -0.39162201380E+02  0.39162201380E+02  0.00000000000E+00 0. -1.
         -6    2    1    2    0  503 -0.44156601627E+02 -0.24370889173E+02  0.22665074354E+03  0.28875374753E+03  0.17165203598E+03 0.  0.
        -24    2    3    3    0    0 -0.24995898845E+02  0.49366536625E+02  0.15702263945E+03  0.18543625930E+03  0.81661784611E+02 0.  0.
          6    2    1    2  501    0  0.44156601627E+02  0.24370889173E+02  0.10092680695E+04  0.10254894683E+04  0.17453615018E+03 0.  0.
         24    2    5    5    0    0 -0.34520805439E+02  0.27317460220E+02  0.70232163031E+03  0.70857146121E+03  0.82945244656E+02 0.  0.
          5    1    5    5  501    0  0.78677407066E+02 -0.29465710473E+01  0.30694643921E+03  0.31691800708E+03  0.47000000000E+01 0. -1.
        -13    1    6    6    0    0  0.28270199996E+01 -0.14965220390E+02  0.27830945656E+02  0.31725563817E+02  0.00000000000E+00 0.  1.
         14    1    6    6    0    0 -0.37347825439E+02  0.42282680610E+02  0.67449068465E+03  0.67684589740E+03  0.00000000000E+00 0. -1.
         -5    1    3    3    0  503 -0.19160702782E+02 -0.73737425798E+02  0.69628104088E+02  0.10331748823E+03  0.47000000000E+01 0.  1.
         13    1    4    4    0    0 -0.10785974405E+02  0.19934227888E+02 -0.23132435937E+01  0.22782927408E+02  0.00000000000E+00 0. -1.
        -14    1    4    4    0    0 -0.14209924439E+02  0.29432308737E+02  0.15933588304E+03  0.16265333189E+03  0.00000000000E+00 0.  1.
</event>
<event>
12    1  0.8133506E-002  0.2281687E+03  0.7818608E-02  0.1127952E+00
         21   -1    0    0  501  502  0.00000000000E+00  0.00000000000E+00  0.65460505480E+03  0.65460505480E+03  0.00000000000E+00 0. -1.
         21   -1    0    0  502  503 -0.00000000000E+00 -0.00000000000E+00 -0.11112608518E+03  0.11112608518E+03  0.00000000000E+00 0. -1.
         -6    2    1    2    0  503 -0.14187240294E+03 -0.44920987122E+02  0.67441608102E+02  0.23783669230E+03  0.17283589876E+03 0.  0.
        -24    2    3    3    0    0 -0.13580175950E+03  0.23160570306E+02  0.62539030981E+02  0.16914843685E+03  0.75640818294E+02 0.  0.
          6    2    1    2  501    0  0.14187240294E+03  0.44920987122E+02  0.47603736152E+03  0.52789444768E+03  0.17296041317E+03 0.  0.
         24    2    5    5    0    0  0.20413769791E+02  0.55628216999E+02  0.27261656607E+03  0.29068366723E+03  0.81645463897E+02 0.  0.
          5    1    5    5  501    0  0.12145863315E+03 -0.10707229877E+02  0.20342079545E+03  0.23721078044E+03  0.47000000000E+01 0. -1.
        -13    1    6    6    0    0 -0.25644228706E+02  0.35038632698E+02  0.74362289606E+02  0.86110872500E+02  0.00000000000E+00 0.  1.
         14    1    6    6    0    0  0.46057998497E+02  0.20589584301E+02  0.19825427647E+03  0.20457279473E+03  0.00000000000E+00 0. -1.
         -5    1    3    3    0  503 -0.60706434361E+01 -0.68081557428E+02  0.49025771209E+01  0.68688255444E+02  0.47000000000E+01 0.  1.
         11    1    4    4    0    0 -0.83032220122E+02 -0.21046671198E+02  0.19140064570E+02  0.87770462108E+02  0.00000000000E+00 0. -1.
        -12    1    4    4    0    0 -0.52769539383E+02  0.44207241504E+02  0.43398966411E+02  0.81377974745E+02  0.00000000000E+00 0.  1.
</event>
<event>
12    1  0.8133506E-002  0.1818566E+03  0.7818608E-02  0.1166601E+00
         21   -1    0    0  503  502  0.00000000000E+00  0.00000000000E+00  0.56395395358E+02  0.56395395358E+02  0.00000000000E+00 0.  1.
         21   -1    0    0  501  503 -0.00000000000E+00 -0.00000000000E+00 -0.89204328914E+03  0.89204328914E+03  0.00000000000E+00 0. -1.
          6    2    1    2  501    0 -0.53094214260E+02 -0.16364521190E+02 -0.70072206897E+03  0.72393593432E+03  0.17316184890E+03 0.  0.
         24    2    3    3    0    0 -0.94651107755E+02  0.58243595392E+00 -0.61054042543E+03  0.62309450640E+03  0.80795924339E+02 0.  0.
         -6    2    1    2    0  502  0.53094214260E+02  0.16364521190E+02 -0.13492582481E+03  0.22450275017E+03  0.17061568947E+03 0.  0.
        -24    2    5    5    0    0  0.11353922926E+02  0.65060813425E+02 -0.46428581958E+02  0.11510698796E+03  0.82049889979E+02 0.  0.
          5    1    3    3  501    0  0.41556893495E+02 -0.16946957144E+02 -0.90181643542E+02  0.10084142792E+03  0.47000000000E+01 0. -1.
        -11    1    4    4    0    0 -0.19907607232E+02 -0.30407239728E+02 -0.29969773044E+03  0.30189342935E+03  0.00000000000E+00 0.  1.
         12    1    4    4    0    0 -0.74743500523E+02  0.30989675681E+02 -0.31084269499E+03  0.32120107705E+03  0.00000000000E+00 0. -1.
         -5    1    5    5    0  502  0.41740291334E+02 -0.48696292234E+02 -0.88497242847E+02  0.10939576221E+03  0.47000000000E+01 0.  1.
         13    1    6    6    0    0 -0.20997374387E+02  0.92920948215E+01 -0.45113398849E+02  0.50620662906E+02  0.00000000000E+00 0. -1.
        -14    1    6    6    0    0  0.32351297314E+02  0.55768718603E+02 -0.13151831090E+01  0.64486325055E+02  0.00000000000E+00 0.  1.
</event>
<event>
12    1  0.8133506E-002  0.2359522E+03  0.7818608E-02  0.1122626E+00
         21   -1    0    0  501  502  0.00000000000E+00  0.00000000000E+00  0.35652559973E+03  0.35652559973E+03  0.00000000000E+00 0.  1.
         21   -1    0    0  502  503 -0.00000000000E+00 -0.00000000000E+00 -0.21671836421E+03  0.21671836421E+03  0.00000000000E+00 0. -1.
         -6    2    1    2    0  503 -0.41700988741E+02 -0.15529485747E+03 -0.82066995313E+02  0.24981684380E+03  0.17267888842E+03 0.  0.
        -24    2    3    3    0    0 -0.16958615994E+02 -0.17037503719E+03 -0.99331862830E+02  0.21576155815E+03  0.85854429409E+02 0.  0.
          6    2    1    2  501    0  0.41700988741E+02  0.15529485747E+03  0.22187423083E+03  0.32342712015E+03  0.17181810883E+03 0.  0.
         24    2    5    5    0    0  0.56720345038E+02  0.18000955793E+03  0.19936346159E+03  0.28647820657E+03  0.81873894115E+02 0.  0.
          5    1    5    5  501    0 -0.15019356297E+02 -0.24714700461E+02  0.22510769238E+02  0.36948913572E+02  0.47000000000E+01 0. -1.
        -11    1    6    6    0    0  0.90037379088E+01  0.14495785259E+03  0.12659466554E+03  0.19266565773E+03  0.00000000000E+00 0.  1.
         12    1    6    6    0    0  0.47716607130E+02  0.35051705343E+02  0.72768796045E+02  0.93812548848E+02  0.00000000000E+00 0. -1.
         -5    1    3    3    0  503 -0.24742372747E+02  0.15080179726E+02  0.17264867517E+02  0.34055285641E+02  0.47000000000E+01 0.  1.
         13    1    4    4    0    0 -0.47775159973E+02 -0.10397976180E+03 -0.81312368991E+02  0.14037791181E+03  0.00000000000E+00 0. -1.
        -14    1    4    4    0    0  0.30816543979E+02 -0.66395275396E+02 -0.18019493839E+02  0.75383646342E+02  0.00000000000E+00 0.  1.
</event>
<event>
12    1  0.8133506E-002  0.2326605E+03  0.7818608E-02  0.1124846E+00
         21   -1    0    0  503  502  0.00000000000E+00  0.00000000000E+00  0.10356743915E+04  0.10356743915E+04  0.00000000000E+00 0. -1.
         21   -1    0    0  501  503 -0.00000000000E+00 -0.00000000000E+00 -0.93961332371E+02  0.93961332371E+02  0.00000000000E+00 0.  1.
          6    2    1    2  501    0  0.97182501384E+02  0.12155325870E+03  0.94439233835E+02  0.25109694081E+03  0.17294875404E+03 0.  0.
         24    2    3    3    0    0 -0.14410327285E+02  0.84255269216E+02  0.52683096283E+02  0.12615789786E+03  0.76378653014E+02 0.  0.
         -6    2    1    2    0  502 -0.97182501384E+02 -0.12155325870E+03  0.84727382525E+03  0.87853878301E+03  0.17244658602E+03 0.  0.
        -24    2    5    5    0    0 -0.22888287833E+02  0.71231591385E+01  0.31093823556E+03  0.32198222215E+03  0.80095892093E+02 0.  0.
          5    1    3    3  501    0  0.11159282867E+03  0.37297989485E+02  0.41756137552E+02  0.12493904295E+03  0.47000000000E+01 0. -1.
        -13    1    4    4    0    0  0.30594059384E+02  0.28260923889E+02  0.10900500586E+02  0.43052261284E+02  0.00000000000E+00 0.  1.
         14    1    4    4    0    0 -0.45004386669E+02  0.55994345327E+02  0.41782595696E+02  0.83105636579E+02  0.00000000000E+00 0. -1.
         -5    1    5    5    0  502 -0.74294213552E+02 -0.12867641784E+03  0.53633558969E+03  0.55655656087E+03  0.47000000000E+01 0.  1.
         11    1    6    6    0    0  0.15352016211E+02 -0.26381065441E+02  0.15461878534E+03  0.15760270872E+03  0.00000000000E+00 0. -1.
        -12    1    6    6    0    0 -0.38240304044E+02  0.33504224580E+02  0.15631945022E+03  0.16437951343E+03  0.00000000000E+00 0.  1.
</event>
<event>
12    1  0.8133506E-002  0.3393788E+03  0.7818608E-02  0.1067072E+00
         21   -1    0    0  501  502  0.00000000000E+00  0.00000000000E+00  0.56749218473E+02  0.56749218473E+02  0.00000000000E+00 0.  1.
         21   -1    0    0  502  503 -0.00000000000E+00 -0.00000000000E+00 -0.21566757566E+04  0.21566757566E+04  0.00000000000E+00 0. -1.
         -6    2    1    2    0  503  0.23845288355E+03 -0.16818526802E+03 -0.13191352467E+04  0.13620654833E+04  0.17308529612E+03 0.  0.
        -24    2    3    3    0    0  0.24126941611E+03 -0.11564359879E+03 -0.98788457670E+03  0.10266289674E+04  0.80415960325E+02 0.  0.
          6    2    1    2  501    0 -0.23845288355E+03  0.16818526802E+03 -0.78079129142E+03  0.85135949174E+03  0.17329708988E+03 0.  0.
         24    2    5    5    0    0 -0.23661536739E+03  0.13863297257E+03 -0.76712053838E+03  0.81840961889E+03  0.78194953280E+02 0.  0.
          5    1    5    5  501    0 -0.18375161569E+01  0.29552295448E+02 -0.13670753040E+02  0.32949872845E+02  0.47000000000E+01 0. -1.
        -11    1    6    6    0    0 -0.13782921099E+03  0.11573259671E+03 -0.42394290351E+03  0.46056325384E+03  0.00000000000E+00 0.  1.
         12    1    6    6    0    0 -0.98786156402E+02  0.22900375863E+02 -0.34317763487E+03  0.35784636506E+03  0.00000000000E+00 0. -1.
         -5    1    3    3    0  503 -0.28165325577E+01 -0.52541669234E+02 -0.33125066997E+03  0.33543651593E+03  0.47000000000E+01 0.  1.
         13    1    4    4    0    0  0.13753661659E+03 -0.58182708639E+02 -0.40148900136E+03  0.42836312482E+03  0.00000000000E+00 0. -1.
        -14    1    4    4    0    0  0.10373279952E+03 -0.57460890150E+02 -0.58639557534E+03  0.59826584255E+03  0.00000000000E+00 0.  1.
</event>
<event>
12    1  0.8133506E-002  0.1886019E+03  0.7818608E-02  0.1160917E+00
         21   -1    0    0  503  502  0.00000000000E+00  0.00000000000E+00  0.16069944159E+03  0.16069944159E+03  0.00000000000E+00 0. -1.
         21   -1    0    0  501  503 -0.00000000000E+00 -0.00000000000E+00 -0.27107151172E+03  0.27107151172E+03  0.00000000000E+00 0. -1.
          6    2    1    2  501    0  0.61454004507E+02 -0.17715445115E+02 -0.15244843763E+03  0.23853247312E+03  0.17194994310E+03 0.  0.
         24    2    3    3    0    0 -0.27048397026E+02 -0.93614717404E+01 -0.97682057714E+02  0.13401496111E+03  0.87172085361E+02 0.  0.
         -6    2    1    2    0  502 -0.61454004507E+02  0.17715445115E+02  0.42076367502E+02  0.19323848019E+03  0.17742676759E+03 0.  0.
        -24    2    5    5    0    0 -0.72686955995E+02  0.20212148595E+02  0.89186687152E+02  0.14451595003E+03  0.85080374505E+02 0.  0.
          5    1    3    3  501    0  0.88502401533E+02 -0.83539733745E+01 -0.54766379920E+02  0.10451751201E+03  0.47000000000E+01 0. -1.
        -11    1    4    4    0    0 -0.22522654534E+02  0.24747644705E+02 -0.33808283995E+01  0.33632512341E+02  0.00000000000E+00 0.  1.
         12    1    4    4    0    0 -0.45257424923E+01 -0.34109116446E+02 -0.94301229315E+02  0.10038244877E+03  0.00000000000E+00 0. -1.
         -5    1    5    5    0  502  0.11232951488E+02 -0.24967034797E+01 -0.47110319649E+02  0.48722530157E+02  0.47000000000E+01 0.  1.
         13    1    6    6    0    0 -0.80286309880E+00  0.39161878029E+02  0.34927955855E+02  0.52481038291E+02  0.00000000000E+00 0. -1.
        -14    1    6    6    0    0 -0.71884092896E+02 -0.18949729435E+02  0.54258731297E+02  0.92034911740E+02  0.00000000000E+00 0.  1.
</event>
<event>
12    1  0.8133506E-002  0.2868099E+03  0.7818608E-02  0.1092040E+00
         21   -1    0    0  503  502  0.00000000000E+00  0.00000000000E+00  0.70301773136E+03  0.70301773136E+03  0.00000000000E+00 0.  1.
         21   -1    0    0  501  503 -0.00000000000E+00 -0.00000000000E+00 -0.14514932600E+03  0.14514932600E+03  0.00000000000E+00 0. -1.
          6    2    1    2  501    0 -0.74718109129E+01  0.22989461986E+03  0.46583933172E+03  0.54705227698E+03  0.17132584911E+03 0.  0.
         24    2    3    3    0    0  0.16006328325E+02  0.19507364560E+03  0.25149686225E+03  0.32858372664E+03  0.80041638770E+02 0.  0.
         -6    2    1    2    0  502  0.74718109129E+01 -0.22989461986E+03  0.92029073637E+02  0.30111478038E+03  0.17115313718E+03 0.  0.
        -24    2    5    5    0    0  0.24593499715E+02 -0.24800780902E+03  0.82855786114E+02  0.27414296077E+03  0.78591145061E+02 0.  0.
          5    1    3    3  501    0 -0.23478139238E+02  0.34820974262E+02  0.21434246947E+03  0.21846855034E+03  0.47000000000E+01 0. -1.
        -11    1    4    4    0    0 -0.11480032097E+01  0.17232552946E+03  0.24470233558E+03  0.29929356667E+03  0.00000000000E+00 0.  1.
         12    1    4    4    0    0  0.17154331535E+02  0.22748116139E+02  0.67945266769E+01  0.29290159970E+02  0.00000000000E+00 0. -1.
         -5    1    5    5    0  502 -0.17121688802E+02  0.18113189162E+02  0.91732875224E+01  0.26971819609E+02  0.47000000000E+01 0.  1.
         11    1    6    6    0    0  0.15966736088E+01 -0.10672946898E+03 -0.38161702909E+01  0.10680960664E+03  0.00000000000E+00 0. -1.
        -12    1    6    6    0    0  0.22996826106E+02 -0.14127834004E+03  0.86671956405E+02  0.16733335413E+03  0.00000000000E+00 0.  1.
</event>
<event>
12    1  0.8133506E-002  0.2218891E+03  0.7818608E-02  0.1132560E+00
         21   -1    0    0  503  502  0.00000000000E+00  0.00000000000E+00  0.35443617113E+02  0.35443617113E+02  0.00000000000E+00 0. -1.
         21   -1    0    0  501  503 -0.00000000000E+00 -0.00000000000E+00 -0.13884526340E+04  0.13884526340E+04  0.00000000000E+00 0.  1.
          6    2    1    2  501    0  0.10939098825E+03 -0.87948704016E+02 -0.70397080843E+03  0.73811222085E+03  0.17185281085E+03 0.  0.
         24    2    3    3    0    0  0.11077634419E+03 -0.10512787040E+03 -0.69855121381E+03  0.71944393291E+03  0.79388328522E+02 0.  0.
         -6    2    1    2    0  502 -0.10939098825E+03  0.87948704016E+02 -0.64903820844E+03  0.68578403025E+03  0.17131192976E+03 0.  0.
        -24    2    5    5    0    0  0.60972744786E+01  0.35898699373E+02 -0.35205658293E+03  0.36288014717E+03  0.80076652385E+02 0.  0.
          5    1    3    3  501    0 -0.13853559447E+01  0.17179166387E+02 -0.54195946112E+01  0.18668287940E+02  0.47000000000E+01 0. -1.
        -13    1    4    4    0    0  0.98845866200E+01  0.37459614825E+01 -0.17329993717E+03  0.17362201906E+03  0.00000000000E+00 0.  1.
         14    1    4    4    0    0  0.10089175757E+03 -0.10887383189E+03 -0.52525127665E+03  0.54582191385E+03  0.00000000000E+00 0. -1.
         -5    1    5    5    0  502 -0.11548826273E+03  0.52050004643E+02 -0.29698162551E+03  0.32290388307E+03  0.47000000000E+01 0.  1.
         11    1    6    6    0    0  0.20499920910E+01  0.47191392689E+02 -0.34642047078E+03  0.34962604678E+03  0.00000000000E+00 0. -1.
        -12    1    6    6    0    0  0.40472823876E+01 -0.11292693316E+02 -0.56361121449E+01  0.13254100391E+02  0.00000000000E+00 0.  1.
</event>
<event>
12    1  0.8133506E-002  0.2038662E+03  0.7818608E-02  0.1146718E+00
         21   -1    0    0  501  502  0.00000000000E+00  0.00000000000E+00  0.22420130032E+03  0.22420130032E+03  0.00000000000E+00 0.  1.
         21   -1    0    0  502  503 -0.00000000000E+00 -0.00000000000E+00 -0.19403242064E+03  0.19403242064E+03  0.00000000000E+00 0. -1.
         -6    2    1    2    0  503  0.42815781777E+02  0.97008125642E+02 -0.31249754043E+02  0.20624735181E+03  0.17411965825E+03 0.  0.
        -24    2    3    3    0    0 -0.19214212547E+01  0.12545031746E+03 -0.31955719634E+02  0.15302175648E+03  0.81566021903E+02 0.  0.
          6    2    1    2  501    0 -0.42815781777E+02 -0.97008125642E+02  0.61418633722E+02  0.21198636915E+03  0.17298035879E+03 0.  0.
         24    2    5    5    0    0 -0.90864433717E+01 -0.20702144831E+02  0.91726129942E+02  0.12309933239E+03  0.78921609631E+02 0.  0.
          5    1    5    5  501    0 -0.33729338405E+02 -0.76305980811E+02 -0.30307496220E+02  0.88887036760E+02  0.47000000000E+01 0. -1.
        -11    1    6    6    0    0 -0.17316974414E+01 -0.41082208068E+02  0.92700699017E+02  0.10141087808E+03  0.00000000000E+00 0.  1.
         12    1    6    6    0    0 -0.73547459303E+01  0.20380063237E+02 -0.97456907426E+00  0.21688454304E+02  0.00000000000E+00 0. -1.
         -5    1    3    3    0  503  0.44737203032E+02 -0.28442191816E+02  0.70596559165E+00  0.53225595326E+02  0.47000000000E+01 0.  1.
         11    1    4    4    0    0 -0.31453539369E+01  0.32394720077E+02 -0.48589861472E+02  0.58483209369E+02  0.00000000000E+00 0. -1.
        -12    1    4    4    0    0  0.12239326822E+01  0.93055597381E+02  0.16634141838E+02  0.94538547111E+02  0.00000000000E+00 0.  1.
</event>
<event>
12    1  0.8133506E-002  0.2180210E+03  0.7818608E-02  0.1135461E+00
         21   -1    0    0  503  502  0.00000000000E+00  0.00000000000E+00  0.59000988269E+03  0.59000988269E+03  0.00000000000E+00 0. -1.
         21   -1    0    0  501  503 -0.00000000000E+00 -0.00000000000E+00 -0.86284472297E+02  0.86284472297E+02  0.00000000000E+00 0. -1.
          6    2    1    2  501    0  0.73347173309E+02  0.11145189769E+03  0.16367456093E+03  0.27262153910E+03  0.17242914010E+03 0.  0.
         24    2    3    3    0    0  0.19711140108E+02  0.14270325114E+02  0.14227740380E+03  0.15947998865E+03  0.67814717605E+02 0.  0.
         -6    2    1    2    0  502 -0.73347173309E+02 -0.11145189769E+03  0.34005084945E+03  0.40367281588E+03  0.17180171342E+03 0.  0.
        -24    2    5    5    0    0 -0.78775103508E+02 -0.12690306809E+03  0.19842857808E+03  0.26102934830E+03  0.80327544798E+02 0.  0.
          5    1    3    3  501    0  0.53636033201E+02  0.97181572574E+02  0.21397157132E+02  0.11314155045E+03  0.47000000000E+01 0. -1.
        -13    1    4    4    0    0 -0.21055219495E+02  0.19069562876E+02  0.79980276025E+02  0.84875291159E+02  0.00000000000E+00 0.  1.
         14    1    4    4    0    0  0.40766359604E+02 -0.47992377625E+01  0.62297127778E+02  0.74604697491E+02  0.00000000000E+00 0. -1.
         -5    1    5    5    0  502  0.54279301993E+01  0.15451170400E+02  0.14162227138E+03  0.14264346758E+03  0.47000000000E+01 0.  1.
         13    1    6    6    0    0 -0.54129155606E+02 -0.20997318199E+02  0.92597233675E+02  0.10929364365E+03  0.00000000000E+00 0. -1.
        -14    1    6    6    0    0 -0.24645947903E+02 -0.10590574989E+03  0.10583134440E+03  0.15173570465E+03  0.00000000000E+00 0.  1.
</event>
<event>
12    1  0.8133506E-002  0.2114300E+03  0.7818608E-02  0.1140492E+00
         21   -1    0    0  501  502  0.00000000000E+00  0.00000000000E+00  0.64308437939E+03  0.64308437939E+03  0.00000000000E+00 0.  1.
         21   -1    0    0  502  503 -0.00000000000E+00 -0.00000000000E+00 -0.73999301848E+02  0.73999301848E+02  0.00000000000E+00 0.  1.
         -6    2    1    2    0  503  0.85554803868E+02  0.86830869960E+02  0.19555095580E+03  0.28799796838E+03  0.17275250803E+03 0.  0.
        -24    2    3    3    0    0  0.72945051507E+02  0.10722398701E+03  0.21016421279E+03  0.25952829403E+03  0.79799593561E+02 0.  0.
          6    2    1    2  501    0 -0.85554803868E+02 -0.86830869960E+02  0.37353412174E+03  0.42908571286E+03  0.17241689139E+03 0.  0.
         24    2    5    5    0    0 -0.53065324791E+02  0.69956190006E+01  0.28123817147E+03  0.29344055549E+03  0.64401732407E+02 0.  0.
          5    1    5    5  501    0 -0.32489479077E+02 -0.93826488960E+02  0.92295950271E+02  0.13564515737E+03  0.47000000000E+01 0. -1.
        -13    1    6    6    0    0  0.70259689806E+01  0.20873420660E+02  0.69922369079E+02  0.73308946438E+02  0.00000000000E+00 0.  1.
         14    1    6    6    0    0 -0.60091293771E+02 -0.13877801659E+02  0.21131580239E+03  0.22013160905E+03  0.00000000000E+00 0. -1.
         -5    1    3    3    0  503  0.12609752360E+02 -0.20393117049E+02 -0.14613256991E+02  0.28469674348E+02  0.47000000000E+01 0.  1.
         11    1    4    4    0    0  0.43041627491E+02  0.77129486028E+02  0.68871605910E+02  0.11200373839E+03  0.00000000000E+00 0. -1.
        -12    1    4    4    0    0  0.29903424016E+02  0.30094500981E+02  0.14129260688E+03  0.14752455564E+03  0.00000000000E+00 0.  1.
</event>
<event>
12    1  0.8133506E-002  0.2407430E+03  0.7818608E-02  0.1119429E+00
         21   -1    0    0  503  502  0.00000000000E+00  0.00000000000E+00  0.23946500782E+03  0.23946500782E+03  0.00000000000E+00 0. -1.
         21   -1    0    0  501  503 -0.00000000000E+00 -0.00000000000E+00 -0.32669846732E+03  0.32669846732E+03  0.00000000000E+00 0.  1.
          6    2    1    2  501    0 -0.13673645131E+02 -0.16674782973E+03 -0.18844795109E+03  0.30572833943E+03  0.17310511248E+03 0.  0.
         24    2    3    3    0    0  0.15236208882E+02 -0.18684960758E+03 -0.14908651060E+03  0.25270688972E+03  0.80554742585E+02 0.  0.
         -6    2    1    2    0  502  0.13673645131E+02  0.16674782973E+03  0.10121449159E+03  0.26043513571E+03  0.17201825284E+03 0.  0.
        -24    2    5    5    0    0  0.41397688752E+02  0.13845667312E+03  0.13102679651E+03  0.21063678572E+03  0.79472102842E+02 0.  0.
          5    1    3    3  501    0 -0.28909854013E+02  0.20101777851E+02 -0.39361440498E+02  0.53021449715E+02  0.47000000000E+01 0. -1.
        -11    1    4    4    0    0  0.22324585788E+02 -0.17333834123E+02 -0.46570624556E+02  0.54476343559E+02  0.00000000000E+00 0.  1.
         12    1    4    4    0    0 -0.70883769056E+01 -0.16951577346E+03 -0.10251588604E+03  0.19823054616E+03  0.00000000000E+00 0. -1.
         -5    1    5    5    0  502 -0.27724043621E+02  0.28291156613E+02 -0.29812304915E+02  0.49798349989E+02  0.47000000000E+01 0.  1.
         13    1    6    6    0    0  0.47573494531E+02  0.31769353665E+02  0.35694735531E+02  0.67428802146E+02  0.00000000000E+00 0. -1.
        -14    1    6    6    0    0 -0.61758057791E+01  0.10668731945E+03  0.95332060975E+02  0.14320798357E+03  0.00000000000E+00 0.  1.
</event>
<event>
12    1  0.8133506E-002  0.2681610E+03  0.7818608E-02  0.1102492E+00
         21   -1    0    0  501  502  0.00000000000E+00  0.00000000000E+00  0.22019930394E+03  0.22019930394E+03  0.00000000000E+00 0. -1.
         21   -1    0    0  502  503 -0.00000000000E+00 -0.00000000000E+00 -0.46601846824E+03  0.46601846824E+03  0.00000000000E+00 0.  1.
         -6    2    1    2    0  503  0.11785800635E+02  0.20332896160E+03 -0.31130396231E+03  0.41017689347E+03  0.17278123529E+03 0.  0.
        -24    2    3    3    0    0 -0.37863396769E+02  0.16836432015E+03 -0.28797565144E+03  0.34495520197E+03  0.79271271147E+02 0.  0.
          6    2    1    2  501    0 -0.11785800635E+02 -0.20332896160E+03  0.65484798004E+02  0.27604087871E+03  0.17443834507E+03 0.  0.
         24    2    5    5    0    0  0.49590296725E+00 -0.16764792468E+03  0.11164550559E+03  0.21623387607E+03  0.78653020760E+02 0.  0.
          5    1    5    5  501    0 -0.12281703602E+02 -0.35681036919E+02 -0.46160707590E+02  0.59807002635E+02  0.47000000000E+01 0. -1.
        -11    1    6    6    0    0  0.51210130507E+01 -0.12802500853E+03  0.39991094235E+02  0.13422337800E+03  0.00000000000E+00 0.  1.
         12    1    6    6    0    0 -0.46251100835E+01 -0.39622916148E+02  0.71654411359E+02  0.82010498075E+02  0.00000000000E+00 0. -1.
         -5    1    3    3    0  503  0.49649197405E+02  0.34964641444E+02 -0.23328310870E+02  0.65221691501E+02  0.47000000000E+01 0.  1.
         13    1    4    4    0    0  0.13676552630E+01 -0.65137920596E+01 -0.11732409018E+01  0.67584363671E+01  0.00000000000E+00 0. -1.
        -14    1    4    4    0    0 -0.39231052032E+02  0.17487811221E+03 -0.28680241054E+03  0.33819676560E+03  0.00000000000E+00 0.  1.
</event>
<event>
12    1  0.8133506E-002  0.4069802E+03  0.7818608E-02  0.1041418E+00
         21   -1    0    0  501  502  0.00000000000E+00  0.00000000000E+00  0.62375454478E+03  0.62375454478E+03  0.00000000000E+00 0.  1.
         21   -1    0    0  502  503 -0.00000000000E+00 -0.00000000000E+00 -0.47090466735E+03  0.47090466735E+03  0.00000000000E+00 0. -1.
         -6    2    1    2    0  503 -0.34459528005E+03  0.13006836356E+03  0.43804758113E+03  0.59769781571E+03  0.17231746671E+03 0.  0.
        -24    2    3    3    0    0 -0.22836002026E+03  0.16385187349E+02  0.23531018489E+03  0.33777659301E+03  0.79406362826E+02 0.  0.
          6    2    1    2  501    0  0.34459528005E+03 -0.13006836356E+03 -0.28519770370E+03  0.49696139643E+03  0.17311618385E+03 0.  0.
         24    2    5    5    0    0  0.32168221172E+03 -0.64890031914E+02 -0.23319379825E+03  0.41036047381E+03  0.79537471306E+02 0.  0.
          5    1    5    5  501    0  0.22913068329E+02 -0.65178331643E+02 -0.52003905450E+02  0.86600922617E+02  0.47000000000E+01 0. -1.
        -13    1    6    6    0    0  0.14559141328E+03 -0.52357550008E+01 -0.14136418356E+03  0.20299779591E+03  0.00000000000E+00 0.  1.
         14    1    6    6    0    0  0.17609079845E+03 -0.59654276913E+02 -0.91829614689E+02  0.20736267790E+03  0.00000000000E+00 0. -1.
         -5    1    3    3    0  503 -0.11623525979E+03  0.11368317621E+03  0.20273739624E+03  0.25992122269E+03  0.47000000000E+01 0.  1.
         11    1    4    4    0    0 -0.67487869053E+02  0.41161017883E+02  0.66834963176E+02  0.10351692695E+03  0.00000000000E+00 0. -1.
        -12    1    4    4    0    0 -0.16087215121E+03 -0.24775830533E+02  0.16847522172E+03  0.23425966606E+03  0.00000000000E+00 0.  1.
</event>
<event>
12    1  0.8133506E-002  0.1809868E+03  0.7818608E-02  0.1167017E+00
         21   -1    0    0  503  502  0.00000000000E+00  0.00000000000E+00  0.36483649353E+03  0.36483649353E+03  0.00000000000E+00 0.  1.
         21   -1    0    0  501  503 -0.00000000000E+00 -0.00000000000E+00 -0.10614952423E+03  0.10614952423E+03  0.00000000000E+00 0.  1.
          6    2    1    2  501    0  0.28714081963E+02 -0.47117908691E+02  0.36126109336E+02  0.18455708689E+03  0.17237060864E+03 0.  0.
         24    2    3    3    0    0  0.65706526411E+02  0.16510809417E+02  0.84942447040E+01  0.10580008938E+03  0.80818019516E+02 0.  0.
         -6    2    1    2    0  502 -0.28714081963E+02  0.47117908691E+02  0.22256085996E+03  0.28642893087E+03  0.17164964384E+03 0.  0.
        -24    2    5    5    0    0  0.31467433774E+02 -0.22800986134E+02  0.10743711165E+03  0.13882800230E+03  0.78869492872E+02 0.  0.
          5    1    3    3  501    0 -0.36992444448E+02 -0.63628718108E+02  0.27631864632E+02  0.78756997514E+02  0.47000000000E+01 0. -1.
        -13    1    4    4    0    0  0.17014240334E+02 -0.23751522383E+02 -0.21091183386E+02  0.36034111704E+02  0.00000000000E+00 0.  1.
         14    1    4    4    0    0  0.48692286077E+02  0.40262331800E+02  0.29585428090E+02  0.69765977673E+02  0.00000000000E+00 0. -1.
         -5    1    5    5    0  502 -0.60181515737E+02  0.69918894825E+02  0.11512374831E+03  0.14760092857E+03  0.47000000000E+01 0.  1.
         11    1    6    6    0    0  0.47471143940E+02 -0.13167520413E+02  0.26852141362E+02  0.56106422061E+02  0.00000000000E+00 0. -1.
        -12    1    6    6    0    0 -0.16003710166E+02 -0.96334657211E+01  0.80584970288E+02  0.82721580239E+02  0.00000000000E+00 0.  1.
</event>
<event>
12    1  0.8133506E-002  0.2723271E+03  0.7818608E-02  0.1099978E+00
         21   -1    0    0  503  502  0.00000000000E+00  0.00000000000E+00  0.18214902737E+04  0.18214902737E+04  0.00000000000E+00 0.  1.
         21   -1    0    0  501  503 -0.00000000000E+00 -0.00000000000E+00 -0.73978968174E+02  0.73978968174E+02  0.00000000000E+00 0. -1.
          6    2    1    2  501    0 -0.94446040623E+02 -0.18876194943E+03  0.15093510402E+04  0.15336925325E+04  0.17181703513E+03 0.  0.
         24    2    3    3    0    0 -0.82360879515E+02 -0.85274889064E+02  0.11523203643E+04  0.11617400943E+04  0.87992632895E+02 0.  0.
         -6    2    1    2    0  502  0.94446040623E+02  0.18876194943E+03  0.23816026538E+03  0.36177670942E+03  0.17207831744E+03 0.  0.
        -24    2    5    5    0    0  0.50262530729E+02  0.12940037970E+03  0.59550882522E+02  0.16838751595E+03  0.74412819168E+02 0.  0.
          5    1    3    3  501    0 -0.12085161107E+02 -0.10348706037E+03  0.35703067584E+03  0.37195243819E+03  0.47000000000E+01 0. -1.
        -11    1    4    4    0    0 -0.29044372663E+02 -0.89554354537E+02  0.72961522120E+03  0.73566427737E+03  0.00000000000E+00 0.  1.
         12    1    4    4    0    0 -0.53316506853E+02  0.42794654734E+01  0.42270514314E+03  0.42607581692E+03  0.00000000000E+00 0. -1.
         -5    1    5    5    0  502  0.44183509894E+02  0.59361569729E+02  0.17860938285E+03  0.19338919347E+03  0.47000000000E+01 0.  1.
         13    1    6    6    0    0  0.51859130779E+02  0.13854738052E+03  0.58342678221E+02  0.15902394221E+03  0.00000000000E+00 0. -1.
        -14    1    6    6    0    0 -0.15966000501E+01 -0.91470008143E+01  0.12082043009E+01  0.93635737434E+01  0.00000000000E+00 0.  1.
</event>
<event>
12    1  0.8133506E-002  0.2909829E+03  0.7818608E-02  0.1090056E+00
         21   -1    0    0  503  502  0.00000000000E+00  0.00000000000E+00  0.94389703443E+03  0.94389703443E+03  0.00000000000E+00 0. -1.
         21   -1    0    0  501  503 -0.00000000000E+00 -0.00000000000E+00 -0.15139623808E+03  0.15139623808E+03  0.00000000000E+00 0.  1.
          6    2    1    2  501    0 -0.22923434621E+03 -0.40736581891E+02  0.45873957005E+02  0.29457677462E+03  0.17453710674E+03 0.  0.
         24    2    3    3    0    0 -0.95727249466E+02 -0.51173914294E+02  0.79687656912E+02  0.15637931050E+03  0.79510315636E+02 0.  0.
         -6    2    1    2    0  502  0.22923434621E+03  0.40736581891E+02  0.74662683935E+03  0.80071649789E+03  0.17171900934E+03 0.  0.
        -24    2    5    5    0    0  0.17145008249E+03 -0.27041548836E+02  0.59220592656E+03  0.62238869735E+03  0.80829790223E+02 0.  0.
          5    1    3    3  501    0 -0.13350709675E+03  0.10437332403E+02 -0.33813699907E+02  0.13819746413E+03  0.47000000000E+01 0. -1.
        -11    1    4    4    0    0 -0.99991513375E+02 -0.18669497418E+02  0.58418558742E+02  0.11730123992E+03  0.00000000000E+00 0.  1.
         12    1    4    4    0    0  0.42642639087E+01 -0.32504416876E+02  0.21269098170E+02  0.39078070578E+02  0.00000000000E+00 0. -1.
         -5    1    5    5    0  502  0.57784263721E+02  0.67778130726E+02  0.15442091278E+03  0.17832780054E+03  0.47000000000E+01 0.  1.
         11    1    6    6    0    0  0.10459567023E+03 -0.25193794937E+02  0.22820277515E+03  0.25229246544E+03  0.00000000000E+00 0. -1.
        -12    1    6    6    0    0  0.66854412257E+02 -0.18477538990E+01  0.36400315142E+03  0.37009623191E+03  0.00000000000E+00 0.  1.
</event>
<event>
12    1  0.8133506E-002  0.2717737E+03  0.7818608E-02  0.1100554E+00
         21   -1    0    0  503  502  0.00000000000E+00  0.00000000000E+00  0.51608092573E+03  0.51608092573E+03  0.00000000000E+00 0.  1.
         21   -1    0    0  501  503 -0.00000000000E+00 -0.00000000000E+00 -0.83036474050E+03  0.83036474050E+03  0.00000000000E+00 0.  1.
          6    2    1    2  501    0 -0.61840729713E+02  0.19886479679E+03 -0.77017363702E+03  0.81671804677E+03  0.17461229480E+03 0.  0.
         24    2    3    3    0    0 -0.55551378997E+02  0.19677836445E+03 -0.77614468128E+03  0.80663576023E+03  0.80330585565E+02 0.  0.
         -6    2    1    2    0  502  0.61840729713E+02 -0.19886479679E+03  0.45588982226E+03  0.52972761947E+03  0.17147693005E+03 0.  0.
        -24    2    5    5    0    0 -0.16091217282E+01 -0.69574714366E+02  0.94870006557E+02  0.14101280577E+03  0.77724276103E+02 0.  0.
          5    1    3    3  501    0 -0.62893507157E+01  0.20864323362E+01  0.59710442556E+01  0.10082286537E+02  0.47000000000E+01 0. -1.
        -11    1    4    4    0    0 -0.16031638364E+02  0.47140689303E+02 -0.34457310933E+03  0.34815210138E+03  0.00000000000E+00 0.  1.
         12    1    4    4    0    0 -0.39519740633E+02  0.14963767515E+03 -0.43157157195E+03  0.45848365885E+03  0.00000000000E+00 0. -1.
         -5    1    5    5    0  502  0.63449851441E+02 -0.12929008242E+03  0.36101981570E+03  0.38871481370E+03  0.47000000000E+01 0.  1.
         11    1    6    6    0    0  0.28393110992E+02 -0.36729562626E+02  0.13618862873E+02  0.48380811780E+02  0.00000000000E+00 0. -1.
        -12    1    6    6    0    0 -0.30002232721E+02 -0.32845151740E+02  0.81251143684E+02  0.92631993992E+02  0.00000000000E+00 0.  1.
</event>
<event>
12    1  0.8133506E-002  0.1953471E+03  0.7818608E-02  0.1153744E+00
         21   -1    0    0  503  502  0.00000000000E+00  0.00000000000E+00  0.17390785079E+03  0.17390785079E+03  0.00000000000E+00 0. -1.
         21   -1    0    0  501  503 -0.00000000000E+00 -0.00000000000E+00 -0.21950474285E+03  0.21950474285E+03  0.00000000000E+00 0. -1.
          6    2    1    2  501    0  0.69587285387E+02 -0.59323872228E+02 -0.17301324095E+02  0.19602681379E+03  0.17252670461E+03 0.  0.
         24    2    3    3    0    0  0.56995132015E+02 -0.10730024429E+03 -0.44772591889E+01  0.14457935278E+03  0.78239094466E+02 0.  0.
         -6    2    1    2    0  502 -0.69587285387E+02  0.59323872228E+02 -0.28295567962E+02  0.19738577985E+03  0.17262327427E+03 0.  0.
        -24    2    5    5    0    0 -0.92725715488E+02  0.84472896575E+02  0.41891760025E+01  0.15000214382E+03  0.82154521406E+02 0.  0.
          5    1    3    3  501    0  0.12592153372E+02  0.47976372063E+02 -0.12824064906E+02  0.51447461003E+02  0.47000000000E+01 0. -1.
        -13    1    4    4    0    0  0.15552804860E+02 -0.56456635989E+02  0.34805424568E+02  0.68122383000E+02  0.00000000000E+00 0.  1.
         14    1    4    4    0    0  0.41442327155E+02 -0.50843608302E+02 -0.39282683757E+02  0.76456969782E+02  0.00000000000E+00 0. -1.
         -5    1    5    5    0  502  0.23138430101E+02 -0.25149024347E+02 -0.32484743965E+02  0.47383636031E+02  0.47000000000E+01 0.  1.
         11    1    6    6    0    0 -0.30269723371E+02  0.80453193575E+01  0.34649824376E+02  0.46707533073E+02  0.00000000000E+00 0. -1.
        -12    1    6    6    0    0 -0.62455992118E+02  0.76427577217E+02 -0.30460648373E+02  0.10329461075E+03  0.00000000000E+00 0.  1.
</event>
<event>
12    1  0.8133506E-002  0.1826767E+03  0.7818608E-02  0.1165311E+00
         21   -1    0    0  503  502  0.00000000000E+00  0.00000000000E+00  0.40548490414E+03  0.40548490414E+03  0.00000000000E+00 0.  1.
         21   -1    0    0  501  503 -0.00000000000E+00 -0.00000000000E+00 -0.84317660188E+02  0.84317660188E+02  0.00000000000E+00 0.  1.
          6    2    1    2  501    0 -0.61166512923E+02  0.72804082586E+01  0.12126652589E+03  0.21900546262E+03  0.17164928112E+03 0.  0.
         24    2    3    3    0    0 -0.97025869156E+02 -0.23817100502E+02  0.64509260294E+02  0.14486757974E+03  0.82727851625E+02 0.  0.
         -6    2    1    2    0  502  0.61166512923E+02 -0.72804082586E+01  0.19990071806E+03  0.27079710170E+03  0.17197798278E+03 0.  0.
        -24    2    5    5    0    0  0.30944269255E+01  0.41479810473E+02  0.48566307309E+02  0.10146275793E+03  0.78777248532E+02 0.  0.
          5    1    3    3  501    0  0.35859356233E+02  0.31097508760E+02  0.56757265594E+02  0.74137882882E+02  0.47000000000E+01 0. -1.
        -13    1    4    4    0    0 -0.79121861054E+02 -0.91981070914E+00  0.79497208781E+02  0.11216470547E+03  0.00000000000E+00 0.  1.
         14    1    4    4    0    0 -0.17904008102E+02 -0.22897289792E+02 -0.14987948487E+02  0.32702874275E+02  0.00000000000E+00 0. -1.
         -5    1    5    5    0  502  0.58072085998E+02 -0.48760218732E+02  0.15133441075E+03  0.16933434377E+03  0.47000000000E+01 0.  1.
         13    1    6    6    0    0 -0.15474901906E+02 -0.18020966812E+02  0.25888024000E+02  0.35134279849E+02  0.00000000000E+00 0. -1.
        -14    1    6    6    0    0  0.18569328831E+02  0.59500777285E+02  0.22678283309E+02  0.66328478082E+02  0.00000000000E+00 0.  1.
</event>
<event>
12    1  0.8133506E-002  0.2543949E+03  0.7818608E-02  0.1111765E+00
         21   -1    0    0  503  502  0.00000000000E+00  0.00000000000E+00  0.59529231344E+03  0.59529231344E+03  0.00000000000E+00 0. -1.
         21   -1    0    0  501  503 -0.00000000000E+00 -0.00000000000E+00 -0.12059255489E+03  0.12059255489E+03  0.00000000000E+00 0. -1.
          6    2    1    2  501    0  0.16368445632E+03  0.65705609583E+02  0.11372889835E+03  0.27865930452E+03  0.18332189533E+03 0.  0.
         24    2    3    3    0    0  0.18742853344E+02  0.68250764313E+02  0.68321122038E+02  0.12667739035E+03  0.79811804449E+02 0.  0.
         -6    2    1    2    0  502 -0.16368445632E+03 -0.65705609583E+02  0.36097086020E+03  0.43722556381E+03  0.17250044454E+03 0.  0.
        -24    2    5    5    0    0 -0.13429304932E+02 -0.31319765580E+02  0.11595568896E+03  0.14771991460E+03  0.84936313913E+02 0.  0.
          5    1    3    3  501    0  0.14494160297E+03 -0.25451547297E+01  0.45407776308E+02  0.15198191417E+03  0.47000000000E+01 0. -1.
        -13    1    4    4    0    0  0.77125239078E-01  0.41658492772E+02  0.81568776091E+02  0.91590944974E+02  0.00000000000E+00 0.  1.
         14    1    4    4    0    0  0.18665728105E+02  0.26592271542E+02 -0.13247654053E+02  0.35086445379E+02  0.00000000000E+00 0. -1.
         -5    1    5    5    0  502 -0.15025515139E+03 -0.34385844004E+02  0.24501517124E+03  0.28950564921E+03  0.47000000000E+01 0.  1.
         11    1    6    6    0    0 -0.48257908852E+02 -0.64164791906E+01  0.60194591062E+02  0.77416960449E+02  0.00000000000E+00 0. -1.
        -12    1    6    6    0    0  0.34828603920E+02 -0.24903286389E+02  0.55761097893E+02  0.70302954150E+02  0.00000000000E+00 0.  1.
</event>
<event>
12    1  0.8133506E-002  0.1933773E+03  0.7818608E-02  0.1155492E+00
         21   -1    0    0  503  502  0.00000000000E+00  0.00000000000E+00  0.26125820716E+03  0.26125820716E+03  0.00000000000E+00 0.  1.
         21   -1    0    0  501  503 -0.00000000000E+00 -0.00000000000E+00 -0.19794488274E+03  0.19794488274E+03  0.00000000000E+00 0.  1.
          6    2    1    2  501    0  0.38859305297E+02  0.79179159998E+02 -0.89308230096E+02  0.21300412910E+03  0.17209129572E+03 0.  0.
         24    2    3    3    0    0  0.21156815377E+02 -0.80849518057E+01 -0.67787192564E+01  0.91506748395E+02  0.88399981247E+02 0.  0.
         -6    2    1    2    0  502 -0.38859305297E+02 -0.79179159998E+02  0.15262155452E+03  0.24619896081E+03  0.17187554921E+03 0.  0.
        -24    2    5    5    0    0 -0.31720982487E+00 -0.10630691491E+03  0.67092705692E+02  0.14843044752E+03  0.78923417395E+02 0.  0.
          5    1    3    3  501    0  0.17702489920E+02  0.87264111803E+02 -0.82529510840E+02  0.12149738070E+03  0.47000000000E+01 0. -1.
        -13    1    4    4    0    0  0.51816720860E+00  0.24477247003E+02  0.29659988526E+02  0.38459316654E+02  0.00000000000E+00 0.  1.
         14    1    4    4    0    0  0.20638648168E+02 -0.32562198809E+02 -0.36438707782E+02  0.53047431741E+02  0.00000000000E+00 0. -1.
         -5    1    5    5    0  502 -0.38542095472E+02  0.27127754913E+02  0.85528848825E+02  0.97768513292E+02  0.47000000000E+01 0.  1.
         11    1    6    6    0    0 -0.60272755837E+01  0.92151646633E+01 -0.50486003298E+01  0.12113450211E+02  0.00000000000E+00 0. -1.
        -12    1    6    6    0    0  0.57100657588E+01 -0.11552207957E+03  0.72141306022E+02  0.13631699731E+03  0.00000000000E+00 0.  1.
</event>
<event>
12    1  0.8133506E-002  0.1931788E+03  0.7818608E-02  0.1159023E+00
         21   -1    0    0  503  502  0.00000000000E+00  0.00000000000E+00  0.84057570387E+03  0.84057570387E+03  0.00000000000E+00 0.  1.
         21   -1    0    0  501  503 -0.00000000000E+00 -0.00000000000E+00 -0.50968528768E+02  0.50968528768E+02  0.00000000000E+00 0.  1.
          6    2    1    2  501    0 -0.22309906728E+02  0.56951890302E+02  0.18583266138E+03  0.25761860414E+03  0.16760762935E+03 0.  0.
         24    2    3    3    0    0 -0.44347955810E+00  0.55506381650E+01  0.17291618829E+02  0.79999904722E+02  0.77910066202E+02 0.  0.
         -6    2    1    2    0  502  0.22309906728E+02 -0.56951890302E+02  0.60377451372E+03  0.63392562850E+03  0.18323970449E+03 0.  0.
        -24    2    5    5    0    0  0.48655575563E+02 -0.38691665332E+02  0.13442137909E+03  0.16345566658E+03  0.69168184741E+02 0.  0.
          5    1    3    3  501    0 -0.21866427170E+02  0.51401252137E+02  0.16854104255E+03  0.17761869942E+03  0.47000000000E+01 0. -1.
        -13    1    4    4    0    0 -0.49624943998E+01 -0.24884755273E+02  0.35959302019E+02  0.44010780468E+02  0.00000000000E+00 0.  1.
         14    1    4    4    0    0  0.45190148417E+01  0.30435393438E+02 -0.18667683190E+02  0.35989124254E+02  0.00000000000E+00 0. -1.
         -5    1    5    5    0  502 -0.26345668835E+02 -0.18260224970E+02  0.46935313463E+03  0.47046996192E+03  0.47000000000E+01 0.  1.
         13    1    6    6    0    0  0.28928955700E+02 -0.30485984440E+02  0.13569328171E+03  0.14205261851E+03  0.00000000000E+00 0. -1.
        -14    1    6    6    0    0  0.19726619863E+02 -0.82056808918E+01 -0.12719026214E+01  0.21403048063E+02  0.00000000000E+00 0.  1.
</event>
<event>
12    1  0.8133506E-002  0.2451422E+03  0.7818608E-02  0.1116444E+00
         21   -1    0    0  503  502  0.00000000000E+00  0.00000000000E+00  0.12321132804E+03  0.12321132804E+03  0.00000000000E+00 0.  1.
         21   -1    0    0  501  503 -0.00000000000E+00 -0.00000000000E+00 -0.48880977235E+03  0.48880977235E+03  0.00000000000E+00 0. -1.
          6    2    1    2  501    0  0.82373021842E+02 -0.15350172010E+03 -0.16609953523E+03  0.29596014481E+03  0.17220702340E+03 0.  0.
         24    2    3    3    0    0  0.91253901862E+02 -0.17628594853E+03 -0.16563414886E+03  0.27105436878E+03  0.81435798726E+02 0.  0.
         -6    2    1    2    0  502 -0.82373021842E+02  0.15350172010E+03 -0.19949890908E+03  0.31606095558E+03  0.17247208503E+03 0.  0.
        -24    2    5    5    0    0  0.15233289436E+02  0.10395264705E+03 -0.13772090058E+03  0.19028053192E+03  0.78749148783E+02 0.  0.
          5    1    3    3  501    0 -0.88808800207E+01  0.22784228427E+02 -0.46538637187E+00  0.24905776025E+02  0.47000000000E+01 0. -1.
        -11    1    4    4    0    0  0.75361680864E+02 -0.59091389463E+02 -0.64720587591E+02  0.11558516215E+03  0.00000000000E+00 0.  1.
         12    1    4    4    0    0  0.15892220998E+02 -0.11719455907E+03 -0.10091356127E+03  0.15546920663E+03  0.00000000000E+00 0. -1.
         -5    1    5    5    0  502 -0.97606311278E+02  0.49549073050E+02 -0.61778008496E+02  0.12578042366E+03  0.47000000000E+01 0.  1.
         13    1    6    6    0    0 -0.92964226784E+01  0.10201146400E+03 -0.12771156611E+03  0.16371623738E+03  0.00000000000E+00 0. -1.
        -14    1    6    6    0    0  0.24529712114E+02  0.19411830518E+01 -0.10009334473E+02  0.26564294544E+02  0.00000000000E+00 0.  1.
</event>
<event>
12    1  0.8133506E-002  0.3030930E+03  0.7818608E-02  0.1083771E+00
         21   -1    0    0  501  502  0.00000000000E+00  0.00000000000E+00  0.34723943732E+03  0.34723943732E+03  0.00000000000E+00 0. -1.
         21   -1    0    0  502  503 -0.00000000000E+00 -0.00000000000E+00 -0.27950165609E+03  0.27950165609E+03  0.00000000000E+00 0.  1.
         -6    2    1    2    0  503  0.11287474888E+03  0.22274350870E+03  0.10742970564E+03  0.32106021651E+03  0.17083073895E+03 0.  0.
        -24    2    3    3    0    0  0.39772774087E+02  0.18153444421E+03  0.12241490838E+03  0.23568614542E+03  0.77626808217E+02 0.  0.
          6    2    1    2  501    0 -0.11287474888E+03 -0.22274350870E+03 -0.39691924419E+02  0.30568087690E+03  0.17178466182E+03 0.  0.
         24    2    5    5    0    0 -0.13021646378E+03 -0.19187024979E+03  0.90072147536E+01  0.24528560103E+03  0.79456755286E+02 0.  0.
          5    1    5    5  501    0  0.17341714900E+02 -0.30873258907E+02 -0.48699139173E+02  0.60395275869E+02  0.47000000000E+01 0. -1.
        -13    1    6    6    0    0 -0.85913359328E+02 -0.60167429882E+02 -0.85088198844E+01  0.10523129261E+03  0.00000000000E+00 0.  1.
         14    1    6    6    0    0 -0.44303104451E+02 -0.13170281991E+03  0.17516034638E+02  0.14005430841E+03  0.00000000000E+00 0. -1.
         -5    1    3    3    0  503  0.73101974791E+02  0.41209064481E+02 -0.14985202735E+02  0.85374071092E+02  0.47000000000E+01 0.  1.
         11    1    4    4    0    0 -0.88368443426E+01  0.82438568853E+02  0.20393106588E+02  0.85382001902E+02  0.00000000000E+00 0. -1.
        -12    1    4    4    0    0  0.48609618430E+02  0.99095875362E+02  0.10202180179E+03  0.15030414352E+03  0.00000000000E+00 0.  1.
</event>
<event>
12    1  0.8133506E-002  0.1982406E+03  0.7818608E-02  0.1151527E+00
         21   -1    0    0  501  502  0.00000000000E+00  0.00000000000E+00  0.75654226871E+02  0.75654226871E+02  0.00000000000E+00 0. -1.
         21   -1    0    0  502  503 -0.00000000000E+00 -0.00000000000E+00 -0.62296138677E+03  0.62296138677E+03  0.00000000000E+00 0. -1.
         -6    2    1    2    0  503 -0.99109663751E+02  0.93084203046E+01 -0.41928529718E+03  0.46378819575E+03  0.17143499627E+03 0.  0.
        -24    2    3    3    0    0 -0.73157810192E+02 -0.29020874595E+02 -0.13242996324E+03  0.17318415903E+03  0.79125099800E+02 0.  0.
          6    2    1    2  501    0  0.99109663751E+02 -0.93084203046E+01 -0.12802186272E+03  0.23482741789E+03  0.16983800141E+03 0.  0.
         24    2    5    5    0    0  0.12603326712E+02  0.88546965929E+01 -0.12228204242E+03  0.14612408819E+03  0.78499055762E+02 0.  0.
          5    1    5    5  501    0  0.86506337039E+02 -0.18163116897E+02 -0.57398202994E+01  0.88703329703E+02  0.47000000000E+01 0. -1.
        -11    1    6    6    0    0 -0.74939965026E+01 -0.31395030633E+02 -0.70443355484E+02  0.77485961721E+02  0.00000000000E+00 0.  1.
         12    1    6    6    0    0  0.20097323214E+02  0.40249727226E+02 -0.51838686935E+02  0.68638126470E+02  0.00000000000E+00 0. -1.
         -5    1    3    3    0  503 -0.25951853559E+02  0.38329294899E+02 -0.28685533394E+03  0.29060403672E+03  0.47000000000E+01 0.  1.
         13    1    4    4    0    0 -0.43065936158E+02  0.24631138389E+02 -0.51245065267E+02  0.71326184181E+02  0.00000000000E+00 0. -1.
        -14    1    4    4    0    0 -0.30091874034E+02 -0.53652012984E+02 -0.81184897976E+02  0.10185797484E+03  0.00000000000E+00 0.  1.
</event>
<event>
12    1  0.8133506E-002  0.1892957E+03  0.7818608E-02  0.1159112E+00
         21   -1    0    0  501  502  0.00000000000E+00  0.00000000000E+00  0.26576627576E+02  0.26576627576E+02  0.00000000000E+00 0.  1.
         21   -1    0    0  502  503 -0.00000000000E+00 -0.00000000000E+00 -0.14396812967E+04  0.14396812967E+04  0.00000000000E+00 0.  1.
         -6    2    1    2    0  503  0.13175906045E+02  0.78639297012E+02 -0.52150163709E+03  0.55479439519E+03  0.17168319636E+03 0.  0.
        -24    2    3    3    0    0  0.44865369030E+02 -0.57866126540E+00 -0.17602294531E+03  0.19890491312E+03  0.81029938901E+02 0.  0.
          6    2    1    2  501    0 -0.13175906045E+02 -0.78639297012E+02 -0.89160303204E+03  0.91146352909E+03  0.17161600912E+03 0.  0.
         24    2    5    5    0    0  0.74278281442E+00  0.66673356793E+01 -0.23804765558E+03  0.25220055305E+03  0.83026667642E+02 0.  0.
          5    1    5    5  501    0 -0.13918688859E+02 -0.85306632691E+02 -0.65355537646E+03  0.65926297604E+03  0.47000000000E+01 0. -1.
        -13    1    6    6    0    0  0.29919625034E+01 -0.35233005158E+02 -0.15702571927E+03  0.16095773670E+03  0.00000000000E+00 0.  1.
         14    1    6    6    0    0 -0.22491796890E+01  0.41900340837E+02 -0.81021936319E+02  0.91242816356E+02  0.00000000000E+00 0. -1.
         -5    1    3    3    0  503 -0.31689462985E+02  0.79217958277E+02 -0.34547869178E+03  0.35588948207E+03  0.47000000000E+01 0.  1.
         13    1    4    4    0    0  0.68226247067E+02  0.41710476440E+01 -0.13851571321E+03  0.15446300927E+03  0.00000000000E+00 0. -1.
        -14    1    4    4    0    0 -0.23360878037E+02 -0.47497089094E+01 -0.37507232106E+02  0.44441903847E+02  0.00000000000E+00 0.  1.
</event>
<event>
12    1  0.8133506E-002  0.2660589E+03  0.7818608E-02  0.1103774E+00
         21   -1    0    0  503  502  0.00000000000E+00  0.00000000000E+00  0.10270292337E+03  0.10270292337E+03  0.00000000000E+00 0.  1.
         21   -1    0    0  501  503 -0.00000000000E+00 -0.00000000000E+00 -0.90049514665E+03  0.90049514665E+03  0.00000000000E+00 0.  1.
          6    2    1    2  501    0  0.25132001270E+02  0.20118297245E+03 -0.15459506873E+03  0.30771245218E+03  0.17228207121E+03 0.  0.
         24    2    3    3    0    0  0.66492488707E+02  0.75900273804E+02 -0.47315585003E+02  0.13760242270E+03  0.80706626310E+02 0.  0.
         -6    2    1    2    0  502 -0.25132001270E+02 -0.20118297245E+03 -0.64319715455E+03  0.69548561783E+03  0.16997487783E+03 0.  0.
        -24    2    5    5    0    0  0.31355130435E+02 -0.13873090749E+03 -0.29315374159E+03  0.33542515427E+03  0.79633592201E+02 0.  0.
          5    1    3    3  501    0 -0.41360487437E+02  0.12528269865E+03 -0.10727948372E+03  0.17011002948E+03  0.47000000000E+01 0. -1.
        -11    1    4    4    0    0  0.22867969723E+02  0.17006487183E+02  0.22554152705E+02  0.36343561325E+02  0.00000000000E+00 0.  1.
         12    1    4    4    0    0  0.43624518984E+02  0.58893786621E+02 -0.69869737709E+02  0.10125886137E+03  0.00000000000E+00 0. -1.
         -5    1    5    5    0  502 -0.56487131704E+02 -0.62452064960E+02 -0.35004341296E+03  0.36006046357E+03  0.47000000000E+01 0.  1.
         13    1    6    6    0    0 -0.86722566040E+01 -0.22135391472E+02 -0.85395810921E+01  0.25260800373E+02  0.00000000000E+00 0. -1.
        -14    1    6    6    0    0  0.40027387039E+02 -0.11659551602E+03 -0.28461416050E+03  0.31016435390E+03  0.00000000000E+00 0.  1.
</event>
<event>
12    1  0.8133506E-002  0.1817550E+03  0.7818608E-02  0.1169499E+00
         21   -1    0    0  503  502  0.00000000000E+00  0.00000000000E+00  0.23271708825E+03  0.23271708825E+03  0.00000000000E+00 0. -1.
         21   -1    0    0  501  503 -0.00000000000E+00 -0.00000000000E+00 -0.30326269510E+03  0.30326269510E+03  0.00000000000E+00 0. -1.
          6    2    1    2  501    0 -0.31462080034E+01 -0.61545180272E+02 -0.23627420189E+03  0.29001059696E+03  0.15647025286E+03 0.  0.
         24    2    3    3    0    0 -0.19719773701E+00 -0.75597483682E+02 -0.78650261069E+02  0.13166426573E+03  0.73719718389E+02 0.  0.
         -6    2    1    2    0  502  0.31462080034E+01  0.61545180272E+02  0.16572859504E+03  0.24596918638E+03  0.17098878792E+03 0.  0.
        -24    2    5    5    0    0  0.48161715029E+02 -0.86648902880E+01  0.11344346977E+03  0.14742135939E+03  0.80430126517E+02 0.  0.
          5    1    3    3  501    0 -0.29490102664E+01  0.14052303409E+02 -0.15762394082E+03  0.15834633123E+03  0.47000000000E+01 0. -1.
        -11    1    4    4    0    0  0.34922108759E+02 -0.36115882663E+02 -0.24108413851E+02  0.55723659958E+02  0.00000000000E+00 0.  1.
         12    1    4    4    0    0 -0.35119306496E+02 -0.39481601019E+02 -0.54541847218E+02  0.75940605777E+02  0.00000000000E+00 0. -1.
         -5    1    5    5    0  502 -0.45015507026E+02  0.70210070560E+02  0.52285125272E+02  0.98547826996E+02  0.47000000000E+01 0.  1.
         13    1    6    6    0    0  0.48114120674E+01 -0.40064234172E+02  0.54304664578E+02  0.67655665991E+02  0.00000000000E+00 0. -1.
        -14    1    6    6    0    0  0.43350302962E+02  0.31399343884E+02  0.59138805194E+02  0.79765693396E+02  0.00000000000E+00 0.  1.
</event>
<event>
12    1  0.8133506E-002  0.1762987E+03  0.7818608E-02  0.1171459E+00
         21   -1    0    0  501  502  0.00000000000E+00  0.00000000000E+00  0.18216415882E+04  0.18216415882E+04  0.00000000000E+00 0. -1.
         21   -1    0    0  502  503 -0.00000000000E+00 -0.00000000000E+00 -0.17801787783E+02  0.17801787783E+02  0.00000000000E+00 0. -1.
         -6    2    1    2    0  503 -0.95870667741E+01 -0.34120184904E+02  0.71349052400E+03  0.73494894084E+03  0.17269950471E+03 0.  0.
        -24    2    3    3    0    0 -0.38486794180E+02  0.28888200388E+02  0.51126827020E+03  0.52112382352E+03  0.88651192218E+02 0.  0.
          6    2    1    2  501    0  0.95870667741E+01  0.34120184904E+02  0.10903492764E+04  0.11044944351E+04  0.17259870748E+03 0.  0.
         24    2    5    5    0    0 -0.13972742593E+01 -0.10020919358E+02  0.22988573199E+03  0.24281659853E+03  0.77524702830E+02 0.  0.
          5    1    5    5  501    0  0.10984341033E+02  0.44141104262E+02  0.86046354441E+03  0.86167783661E+03  0.47000000000E+01 0. -1.
        -13    1    6    6    0    0 -0.29474512773E+02 -0.14429977215E+00  0.19385205150E+03  0.19608004895E+03  0.00000000000E+00 0.  1.
         14    1    6    6    0    0  0.28077238513E+02 -0.98766195861E+01  0.36033680492E+02  0.46736549581E+02  0.00000000000E+00 0. -1.
         -5    1    3    3    0  503  0.28899727406E+02 -0.63008385292E+02  0.20222225380E+03  0.21382511731E+03  0.47000000000E+01 0.  1.
         13    1    4    4    0    0 -0.39278824265E+02  0.53165388818E+02  0.24534811720E+03  0.25409660214E+03  0.00000000000E+00 0. -1.
        -14    1    4    4    0    0  0.79203008524E+00 -0.24277188429E+02  0.26592015300E+03  0.26702722138E+03  0.00000000000E+00 0.  1.
</event>
<event>
12    1  0.8133506E-002  0.2133945E+03  0.7818608E-02  0.1138995E+00
         21   -1    0    0  501  502  0.00000000000E+00  0.00000000000E+00  0.35337611428E+03  0.35337611428E+03  0.00000000000E+00 0.  1.
         21   -1    0    0  502  503 -0.00000000000E+00 -0.00000000000E+00 -0.49147495635E+03  0.49147495635E+03  0.00000000000E+00 0. -1.
         -6    2    1    2    0  503 -0.69730040237E+02  0.10527193996E+03 -0.43201247985E+03  0.48163979835E+03  0.17145743716E+03 0.  0.
        -24    2    3    3    0    0 -0.61147129899E+02  0.47354707829E+02 -0.39908502606E+03  0.41430199812E+03  0.79974044360E+02 0.  0.
          6    2    1    2  501    0  0.69730040237E+02 -0.10527193996E+03  0.29391363778E+03  0.36321127228E+03  0.17202541085E+03 0.  0.
         24    2    5    5    0    0  0.11169168134E+03 -0.78722438260E+02  0.18943092444E+03  0.24743397419E+03  0.81653184155E+02 0.  0.
          5    1    5    5  501    0 -0.41961641103E+02 -0.26549501701E+02  0.10448271335E+03  0.11577729809E+03  0.47000000000E+01 0. -1.
        -11    1    6    6    0    0  0.54230651715E+02 -0.84002692233E+02  0.10333788940E+03  0.14379198612E+03  0.00000000000E+00 0.  1.
         12    1    6    6    0    0  0.57461029625E+02  0.52802539736E+01  0.86093035042E+02  0.10364198807E+03  0.00000000000E+00 0. -1.
         -5    1    3    3    0  503 -0.85829103378E+01  0.57917232132E+02 -0.32927453792E+02  0.67337800238E+02  0.47000000000E+01 0.  1.
         13    1    4    4    0    0  0.69414065118E+01 -0.10322931493E+02 -0.13450959447E+03  0.13508359280E+03  0.00000000000E+00 0. -1.
        -14    1    4    4    0    0 -0.68088536411E+02  0.57677639322E+02 -0.26457543159E+03  0.27921840532E+03  0.00000000000E+00 0.  1.
</event>
<event>
12    1  0.8133506E-002  0.1995318E+03  0.7818608E-02  0.1150287E+00
         21   -1    0    0  503  502  0.00000000000E+00  0.00000000000E+00  0.39142419854E+03  0.39142419854E+03  0.00000000000E+00 0. -1.
         21   -1    0    0  501  503 -0.00000000000E+00 -0.00000000000E+00 -0.11837186294E+03  0.11837186294E+03  0.00000000000E+00 0. -1.
          6    2    1    2  501    0 -0.95785212939E+02  0.25694783498E+02  0.40068498362E+02  0.20351518987E+03  0.17314132676E+03 0.  0.
         24    2    3    3    0    0 -0.45770164707E+02 -0.48678083098E+02  0.49820154446E+02  0.11323776672E+03  0.76656899693E+02 0.  0.
         -6    2    1    2    0  502  0.95785212939E+02 -0.25694783498E+02  0.23298383724E+03  0.30628087161E+03  0.17231214404E+03 0.  0.
        -24    2    5    5    0    0  0.63402334995E+02  0.49211885675E+01  0.43730560374E+02  0.11179467330E+03  0.80880237929E+02 0.  0.
          5    1    3    3  501    0 -0.50015048231E+02  0.74372866596E+02 -0.97516560848E+01  0.90277423156E+02  0.47000000000E+01 0. -1.
        -11    1    4    4    0    0  0.17826365243E+02 -0.18083909212E+02 -0.23117325832E+01  0.25498062234E+02  0.00000000000E+00 0.  1.
         12    1    4    4    0    0 -0.63596529950E+02 -0.30594173886E+02  0.52131887030E+02  0.87739704483E+02  0.00000000000E+00 0. -1.
         -5    1    5    5    0  502  0.32382877944E+02 -0.30615972065E+02  0.18925327687E+03  0.19448619831E+03  0.47000000000E+01 0.  1.
         13    1    6    6    0    0 -0.11187602562E+01  0.55399397086E+01 -0.20192085514E+02  0.20968139495E+02  0.00000000000E+00 0. -1.
        -14    1    6    6    0    0  0.64521095251E+02 -0.61875114105E+00  0.63922645888E+02  0.90826533803E+02  0.00000000000E+00 0.  1.
</event>
<event>
12    1  0.8133506E-002  0.1932091E+03  0.7818608E-02  0.1155604E+00
         21   -1    0    0  501  502  0.00000000000E+00  0.00000000000E+00  0.91009642568E+03  0.91009642568E+03  0.00000000000E+00 0.  1.
         21   -1    0    0  502  503 -0.00000000000E+00 -0.00000000000E+00 -0.80082732138E+02  0.80082732138E+02  0.00000000000E+00 0.  1.
         -6    2    1    2    0  503  0.40044251430E+02 -0.78012781584E+02  0.69180767837E+02  0.20519731616E+03  0.17213489988E+03 0.  0.
        -24    2    3    3    0    0  0.92679080515E+02 -0.44077196598E+02  0.35325015499E+02  0.13385061947E+03  0.78332115944E+02 0.  0.
          6    2    1    2  501    0 -0.40044251430E+02  0.78012781584E+02  0.76083292570E+03  0.78498184166E+03  0.17216333738E+03 0.  0.
         24    2    5    5    0    0 -0.88701121765E+02  0.25202934594E+02  0.51795877773E+03  0.53167113773E+03  0.76745204127E+02 0.  0.
          5    1    5    5  501    0  0.48656870335E+02  0.52809846990E+02  0.24287414798E+03  0.25331070393E+03  0.47000000000E+01 0. -1.
        -13    1    6    6    0    0 -0.23256192880E+02  0.45659686614E+02  0.23527779706E+03  0.24079306318E+03  0.00000000000E+00 0.  1.
         14    1    6    6    0    0 -0.65444928885E+02 -0.20456752020E+02  0.28268098067E+03  0.29087807455E+03  0.00000000000E+00 0. -1.
         -5    1    3    3    0  503 -0.52634829085E+02 -0.33935584986E+02  0.33855752338E+02  0.71346696683E+02  0.47000000000E+01 0.  1.
         13    1    4    4    0    0  0.57666871234E+02 -0.15907614670E+02  0.58169444896E+02  0.83439825994E+02  0.00000000000E+00 0. -1.
        -14    1    4    4    0    0  0.35012209282E+02 -0.28169581928E+02 -0.22844429397E+02  0.50410793480E+02  0.00000000000E+00 0.  1.
</event>
<event>
12    1  0.8133506E-002  0.2423808E+03  0.7818608E-02  0.1118801E+00
         21   -1    0    0  503  502  0.00000000000E+00  0.00000000000E+00  0.85303337457E+02  0.85303337457E+02  0.00000000000E+00 0. -1.
         21   -1    0    0  501  503 -0.00000000000E+00 -0.00000000000E+00 -0.71521290964E+03  0.71521290964E+03  0.00000000000E+00 0. -1.
          6    2    1    2  501    0 -0.12095965114E+03  0.11323256564E+03 -0.22673274508E+03  0.33189789585E+03  0.17690569368E+03 0.  0.
         24    2    3    3    0    0 -0.13789377603E+03  0.36706917010E+02 -0.14470623577E+03  0.21834888568E+03  0.79838900162E+02 0.  0.
         -6    2    1    2    0  502  0.12095965114E+03 -0.11323256564E+03 -0.40317682711E+03  0.46861835124E+03  0.17204288443E+03 0.  0.
        -24    2    5    5    0    0 -0.49549600475E+01 -0.47436418278E+02 -0.20118240064E+03  0.22162146737E+03  0.79793176812E+02 0.  0.
          5    1    3    3  501    0  0.16934124890E+02  0.76525648626E+02 -0.82026509304E+02  0.11354901018E+03  0.47000000000E+01 0. -1.
        -13    1    4    4    0    0  0.23165857508E+01 -0.96839557815E+01  0.20278577969E+01  0.10161583359E+02  0.00000000000E+00 0.  1.
         14    1    4    4    0    0 -0.14021036178E+03  0.46390872792E+02 -0.14673409357E+03  0.20818730232E+03  0.00000000000E+00 0. -1.
         -5    1    5    5    0  502  0.12591461119E+03 -0.65796147358E+02 -0.20199442647E+03  0.24699688388E+03  0.47000000000E+01 0.  1.
         11    1    6    6    0    0  0.23336959028E+02 -0.36178974195E+02 -0.17858993360E+03  0.18370600484E+03  0.00000000000E+00 0. -1.
        -12    1    6    6    0    0 -0.28291919075E+02 -0.11257444083E+02 -0.22592467035E+02  0.37915462532E+02  0.00000000000E+00 0.  1.
</event>
<event>
12    1  0.8133506E-002  0.3440203E+03  0.7818608E-02  0.1065107E+00
         21   -1    0    0  501  502  0.00000000000E+00  0.00000000000E+00  0.79488274223E+03  0.79488274223E+03  0.00000000000E+00 0. -1.
         21   -1    0    0  502  503 -0.00000000000E+00 -0.00000000000E+00 -0.16605921661E+03  0.16605921661E+03  0.00000000000E+00 0.  1.
         -6    2    1    2    0  503  0.21906891751E+03  0.20221200109E+03  0.15976766487E+03  0.37930943340E+03  0.17166553388E+03 0.  0.
        -24    2    3    3    0    0  0.10407808370E+03  0.13811731935E+03  0.15806700451E+03  0.24756725210E+03  0.79973276699E+02 0.  0.
          6    2    1    2  501    0 -0.21906891751E+03 -0.20221200109E+03  0.46905586075E+03  0.58163252544E+03  0.17147043519E+03 0.  0.
         24    2    5    5    0    0 -0.51157036737E+02 -0.10227791782E+03  0.13278729902E+03  0.19268541296E+03  0.80108593192E+02 0.  0.
          5    1    5    5  501    0 -0.16791188077E+03 -0.99934083271E+02  0.33626856173E+03  0.38894711249E+03  0.47000000000E+01 0. -1.
        -13    1    6    6    0    0 -0.33559172971E+02 -0.19155925550E+01  0.14624334344E+02  0.36657314964E+02  0.00000000000E+00 0.  1.
         14    1    6    6    0    0 -0.17597863766E+02 -0.10036232526E+03  0.11816296468E+03  0.15602809799E+03  0.00000000000E+00 0. -1.
         -5    1    3    3    0  503  0.11499083381E+03  0.64094681737E+02  0.17006603632E+01  0.13174218130E+03  0.47000000000E+01 0.  1.
         11    1    4    4    0    0  0.10736740854E+03  0.10337744967E+03  0.15059520641E+03  0.21188103670E+03  0.00000000000E+00 0. -1.
        -12    1    4    4    0    0 -0.32893248331E+01  0.34739869680E+02  0.74717980977E+01  0.35686215407E+02  0.00000000000E+00 0.  1.
</event>
<event>
12    1  0.8133506E-002  0.1991485E+03  0.7818608E-02  0.1150730E+00
         21   -1    0    0  501  502  0.00000000000E+00  0.00000000000E+00  0.12086078826E+03  0.12086078826E+03  0.00000000000E+00 0. -1.
         21   -1    0    0  502  503 -0.00000000000E+00 -0.00000000000E+00 -0.34390486840E+03  0.34390486840E+03  0.00000000000E+00 0. -1.
         -6    2    1    2    0  503 -0.36461044990E+02 -0.91286042587E+02 -0.16412222047E+03  0.25708343500E+03  0.17173595991E+03 0.  0.
        -24    2    3    3    0    0 -0.50901858578E+02  0.65924294320E+01 -0.10263607970E+03  0.14050141285E+03  0.81068013569E+02 0.  0.
          6    2    1    2  501    0  0.36461044990E+02  0.91286042587E+02 -0.58921859675E+02  0.20768222166E+03  0.17319806660E+03 0.  0.
         24    2    5    5    0    0  0.19097691479E+02 -0.21477753482E+02 -0.14337998955E+02  0.85097677835E+02  0.78803685475E+02 0.  0.
          5    1    5    5  501    0  0.17363353511E+02  0.11276379607E+03 -0.44583860720E+02  0.12258454383E+03  0.47000000000E+01 0. -1.
        -11    1    6    6    0    0  0.22440669921E+01  0.15611525979E+01 -0.43910637377E+02  0.43995648750E+02  0.00000000000E+00 0.  1.
         12    1    6    6    0    0  0.16853624487E+02 -0.23038906080E+02  0.29572638421E+02  0.41102029085E+02  0.00000000000E+00 0. -1.
         -5    1    3    3    0  503  0.14440813588E+02 -0.97878472019E+02 -0.61486140767E+02  0.11658202215E+03  0.47000000000E+01 0.  1.
         13    1    4    4    0    0  0.11991853224E+02 -0.10434710047E+02 -0.61323858076E+02  0.63350637620E+02  0.00000000000E+00 0. -1.
        -14    1    4    4    0    0 -0.62893711802E+02  0.17027139479E+02 -0.41312221624E+02  0.77150775230E+02  0.00000000000E+00 0.  1.
</event>
<event>
12    1  0.8133506E-002  0.1820808E+03  0.7818608E-02  0.1166227E+00
         21   -1    0    0  501  502  0.00000000000E+00  0.00000000000E+00  0.10523270624E+03  0.10523270624E+03  0.00000000000E+00 0. -1.
         21   -1    0    0  502  503 -0.00000000000E+00 -0.00000000000E+00 -0.37215513750E+03  0.37215513750E+03  0.00000000000E+00 0. -1.
         -6    2    1    2    0  503 -0.25960050442E+02 -0.52168479210E+02 -0.22887673995E+03  0.29137471855E+03  0.17064345894E+03 0.  0.
        -24    2    3    3    0    0  0.19729555614E+02 -0.87126665004E+02 -0.16796961551E+03  0.20746177162E+03  0.82742273529E+02 0.  0.
          6    2    1    2  501    0  0.25960050442E+02  0.52168479210E+02 -0.38045691316E+02  0.18601312519E+03  0.17250488014E+03 0.  0.
         24    2    5    5    0    0  0.27402704101E+02  0.85161395252E+02 -0.70345763121E+02  0.13958039539E+03  0.80813296887E+02 0.  0.
          5    1    5    5  501    0 -0.14426536595E+01 -0.32992916042E+02  0.32300071804E+02  0.46432729804E+02  0.47000000000E+01 0. -1.
        -13    1    6    6    0    0  0.33837236085E+02  0.79152100442E+02 -0.85962104430E+02  0.12165318306E+03  0.00000000000E+00 0.  1.
         14    1    6    6    0    0 -0.64345319836E+01  0.60092948102E+01  0.15616341309E+02  0.17927212328E+02  0.00000000000E+00 0. -1.
         -5    1    3    3    0  503 -0.45689606056E+02  0.34958185793E+02 -0.60907124438E+02  0.83912946932E+02  0.47000000000E+01 0.  1.
         11    1    4    4    0    0 -0.39724928424E+01  0.13317990123E+02 -0.54195753394E+01  0.14917149766E+02  0.00000000000E+00 0. -1.
        -12    1    4    4    0    0  0.23702048457E+02 -0.10044465513E+03 -0.16255004017E+03  0.19254462185E+03  0.00000000000E+00 0.  1.
</event>
<event>
12    1  0.8133506E-002  0.2663159E+03  0.7818608E-02  0.1103466E+00
         21   -1    0    0  503  502  0.00000000000E+00  0.00000000000E+00  0.12311854886E+04  0.12311854886E+04  0.00000000000E+00 0.  1.
         21   -1    0    0  501  503 -0.00000000000E+00 -0.00000000000E+00 -0.18326170871E+03  0.18326170871E+03  0.00000000000E+00 0.  1.
          6    2    1    2  501    0 -0.12805351600E+03  0.15696031760E+03 -0.61730998432E+02  0.27337684639E+03  0.17288707214E+03 0.  0.
         24    2    3    3    0    0 -0.15445131773E+03  0.96044500629E+02 -0.58536875262E+02  0.20674447350E+03  0.78974400349E+02 0.  0.
         -6    2    1    2    0  502  0.12805351600E+03 -0.15696031760E+03  0.11096547783E+04  0.11410703509E+04  0.17226019395E+03 0.  0.
        -24    2    5    5    0    0  0.13446995595E+03 -0.17601518417E+03  0.10720383923E+04  0.10981594998E+04  0.87318144970E+02 0.  0.
          5    1    3    3  501    0  0.26397801728E+02  0.60915816974E+02 -0.31941231698E+01  0.66632372887E+02  0.47000000000E+01 0. -1.
        -11    1    4    4    0    0 -0.42851301726E+02  0.97566622051E+01  0.16521780353E+02  0.46950992993E+02  0.00000000000E+00 0.  1.
         12    1    4    4    0    0 -0.11160001600E+03  0.86287838424E+02 -0.75058655615E+02  0.15979348051E+03  0.00000000000E+00 0. -1.
         -5    1    5    5    0  502 -0.64164399487E+01  0.19054866569E+02  0.37616386037E+02  0.42910851076E+02  0.47000000000E+01 0.  1.
         13    1    6    6    0    0  0.89604555140E+02 -0.12111542302E+03  0.51368318268E+03  0.53532077688E+03  0.00000000000E+00 0. -1.
        -14    1    6    6    0    0  0.44865400808E+02 -0.54899761150E+02  0.55835520960E+03  0.56283872295E+03  0.00000000000E+00 0.  1.
</event>
<event>
12    1  0.8133506E-002  0.1815992E+03  0.7818608E-02  0.1166837E+00
         21   -1    0    0  501  502  0.00000000000E+00  0.00000000000E+00  0.11423305172E+03  0.11423305172E+03  0.00000000000E+00 0.  1.
         21   -1    0    0  502  503 -0.00000000000E+00 -0.00000000000E+00 -0.38799330757E+03  0.38799330757E+03  0.00000000000E+00 0. -1.
         -6    2    1    2    0  503 -0.13527343096E+02 -0.13280961397E+02 -0.81183078027E+01  0.18178060946E+03  0.18060705996E+03 0.  0.
        -24    2    3    3    0    0 -0.44940799496E+02  0.53872352264E+02  0.56112121680E+01  0.10623616892E+03  0.79578464966E+02 0.  0.
          6    2    1    2  501    0  0.13527343096E+02  0.13280961397E+02 -0.26564194804E+03  0.32044574983E+03  0.17821464888E+03 0.  0.
         24    2    5    5    0    0  0.19620288400E+02  0.55139207926E+02 -0.70630219159E+02  0.12084389315E+03  0.78672299357E+02 0.  0.
          5    1    5    5  501    0 -0.60929453033E+01 -0.41858246529E+02 -0.19501172888E+03  0.19960185667E+03  0.47000000000E+01 0. -1.
        -11    1    6    6    0    0  0.45857273760E+01 -0.15939118869E+02  0.36057382141E+01  0.16973089110E+02  0.00000000000E+00 0.  1.
         12    1    6    6    0    0  0.15034561024E+02  0.71078326795E+02 -0.74235957373E+02  0.10387080404E+03  0.00000000000E+00 0. -1.
         -5    1    3    3    0  503  0.31413456399E+02 -0.67153313661E+02 -0.13729519971E+02  0.75544440545E+02  0.47000000000E+01 0.  1.
         13    1    4    4    0    0 -0.39274340232E+02 -0.43401721523E+00  0.26928163336E+02  0.47621299355E+02  0.00000000000E+00 0. -1.
        -14    1    4    4    0    0 -0.56664592636E+01  0.54306369479E+02 -0.21316951168E+02  0.58614869562E+02  0.00000000000E+00 0.  1.
</event>
<event>
12    1  0.8133506E-002  0.1994006E+03  0.7818608E-02  0.1150348E+00
         21   -1    0    0  501  502  0.00000000000E+00  0.00000000000E+00  0.31365225201E+03  0.31365225201E+03  0.00000000000E+00 0. -1.
         21   -1    0    0  502  503 -0.00000000000E+00 -0.00000000000E+00 -0.15178340041E+03  0.15178340041E+03  0.00000000000E+00 0. -1.
         -6    2    1    2    0  503 -0.96000411218E+02  0.24831824553E+02 -0.14203850558E+02  0.19942403730E+03  0.17243984116E+03 0.  0.
        -24    2    3    3    0    0 -0.37717920223E+02  0.39747368314E+02 -0.68659235103E+02  0.11814180611E+03  0.78999373359E+02 0.  0.
          6    2    1    2  501    0  0.96000411218E+02 -0.24831824553E+02  0.17607270215E+03  0.26601161512E+03  0.17299677590E+03 0.  0.
         24    2    5    5    0    0  0.52662317836E+02  0.76345208119E+01  0.15265947452E+02  0.96267230008E+02  0.78757379298E+02 0.  0.
          5    1    5    5  501    0  0.43338093381E+02 -0.32466345364E+02  0.16080675470E+03  0.16974438511E+03  0.47000000000E+01 0. -1.
        -11    1    6    6    0    0 -0.16046821707E+02 -0.37739207946E+01  0.20634614766E+02  0.26410798769E+02  0.00000000000E+00 0.  1.
         12    1    6    6    0    0  0.68709139544E+02  0.11408441607E+02 -0.53686673141E+01  0.69856431239E+02  0.00000000000E+00 0. -1.
         -5    1    3    3    0  503 -0.58282490995E+02 -0.14915543761E+02  0.54455384544E+02  0.81282231195E+02  0.47000000000E+01 0.  1.
         13    1    4    4    0    0 -0.38801206933E+02 -0.13314894128E+02 -0.42147274485E+02  0.58815072997E+02  0.00000000000E+00 0. -1.
        -14    1    4    4    0    0  0.10832867102E+01  0.53062262442E+02 -0.26511960618E+02  0.59326733109E+02  0.00000000000E+00 0.  1.
</event>
<event>
12    1  0.8133506E-002  0.1790893E+03  0.7818608E-02  0.1168749E+00
         21   -1    0    0  503  502  0.00000000000E+00  0.00000000000E+00  0.35597127617E+03  0.35597127617E+03  0.00000000000E+00 0.  1.
         21   -1    0    0  501  503 -0.00000000000E+00 -0.00000000000E+00 -0.14111678437E+03  0.14111678437E+03  0.00000000000E+00 0.  1.
          6    2    1    2  501    0 -0.30348217632E+02  0.39394331629E+02 -0.42249423251E+02  0.18375851507E+03  0.17178256727E+03 0.  0.
         24    2    3    3    0    0  0.44380005172E+02  0.23348875508E+02  0.11065962653E+01  0.95760797069E+02  0.81572978697E+02 0.  0.
         -6    2    1    2    0  502  0.30348217632E+02 -0.39394331629E+02  0.25710391505E+03  0.31332954546E+03  0.17204666008E+03 0.  0.
        -24    2    5    5    0    0  0.57301898959E+02 -0.82033641434E+02  0.17116489949E+03  0.21356875119E+03  0.79379863410E+02 0.  0.
          5    1    3    3  501    0 -0.74728222804E+02  0.16045456121E+02 -0.43356019516E+02  0.87997718004E+02  0.47000000000E+01 0. -1.
        -11    1    4    4    0    0  0.19694367448E+02  0.13270269939E+02 -0.40144305589E+02  0.46642614042E+02  0.00000000000E+00 0.  1.
         12    1    4    4    0    0  0.24685637724E+02  0.10078605569E+02  0.41250901855E+02  0.49118183027E+02  0.00000000000E+00 0. -1.
         -5    1    5    5    0  502 -0.26953681327E+02  0.42639309806E+02  0.85939015564E+02  0.99760794272E+02  0.47000000000E+01 0.  1.
         13    1    6    6    0    0  0.64353656948E+02 -0.30439048241E+02  0.12561004533E+03  0.14438078927E+03  0.00000000000E+00 0. -1.
        -14    1    6    6    0    0 -0.70517579890E+01 -0.51594593193E+02  0.45554854154E+02  0.69187961919E+02  0.00000000000E+00 0.  1.
</event>
<event>
12    1  0.8133506E-002  0.1854941E+03  0.7818608E-02  0.1163400E+00
         21   -1    0    0  503  502  0.00000000000E+00  0.00000000000E+00  0.22484753589E+04  0.22484753589E+04  0.00000000000E+00 0.  1.
         21   -1    0    0  501  503 -0.00000000000E+00 -0.00000000000E+00 -0.22939506686E+02  0.22939506686E+02  0.00000000000E+00 0. -1.
          6    2    1    2  501    0  0.98240621610E+01 -0.68105940418E+02  0.43863234840E+03  0.47490931664E+03  0.16853958184E+03 0.  0.
         24    2    3    3    0    0  0.10043808968E+01  0.28252174529E+02  0.21557145111E+03  0.23172024001E+03  0.80150015267E+02 0.  0.
         -6    2    1    2    0  502 -0.98240621610E+01  0.68105940418E+02  0.17869035038E+04  0.17965055489E+04  0.17225888697E+03 0.  0.
        -24    2    5    5    0    0  0.34205502661E+02 -0.11218081438E+02  0.11155398087E+04  0.11190232952E+04  0.80549417432E+02 0.  0.
          5    1    3    3  501    0  0.88196812642E+01 -0.96358114947E+02  0.22306089729E+03  0.24318907663E+03  0.47000000000E+01 0. -1.
        -13    1    4    4    0    0 -0.24635820801E+02  0.14063628877E+01  0.17498700041E+03  0.17671828382E+03  0.00000000000E+00 0.  1.
         14    1    4    4    0    0  0.25640201697E+02  0.26845811641E+02  0.40584450703E+02  0.55001956189E+02  0.00000000000E+00 0. -1.
         -5    1    5    5    0  502 -0.44029564822E+02  0.79324021857E+02  0.67136369507E+03  0.67748225370E+03  0.47000000000E+01 0.  1.
         13    1    6    6    0    0 -0.56495150469E+01 -0.31093792210E+02  0.20758189495E+03  0.20997376990E+03  0.00000000000E+00 0. -1.
        -14    1    6    6    0    0  0.39855017708E+02  0.19875710771E+02  0.90795791377E+03  0.90904952533E+03  0.00000000000E+00 0.  1.
</event>
<event>
12    1  0.8133506E-002  0.1768585E+03  0.7818608E-02  0.1171067E+00
         21   -1    0    0  503  502  0.00000000000E+00  0.00000000000E+00  0.78650468803E+02  0.78650468803E+02  0.00000000000E+00 0. -1.
         21   -1    0    0  501  503 -0.00000000000E+00 -0.00000000000E+00 -0.48724034130E+03  0.48724034130E+03  0.00000000000E+00 0. -1.
          6    2    1    2  501    0  0.25564952953E+02  0.26368918550E+02 -0.32709674702E+03  0.37184836937E+03  0.17300300924E+03 0.  0.
         24    2    3    3    0    0 -0.39914314141E+01 -0.47851280791E+02 -0.14457826179E+03  0.17255635925E+03  0.81037933936E+02 0.  0.
         -6    2    1    2    0  502 -0.25564952953E+02 -0.26368918550E+02 -0.81493125479E+02  0.19404244074E+03  0.17222790895E+03 0.  0.
        -24    2    5    5    0    0 -0.25295973032E+02  0.22367939545E+02 -0.10894047074E+03  0.13791044942E+03  0.77530993308E+02 0.  0.
          5    1    3    3  501    0  0.29556384367E+02  0.74220199341E+02 -0.18251848523E+03  0.19929201012E+03  0.47000000000E+01 0. -1.
        -13    1    4    4    0    0 -0.36201433903E+02 -0.10562060359E+02 -0.96949755212E+02  0.10402574668E+03  0.00000000000E+00 0.  1.
         14    1    4    4    0    0  0.32210002489E+02 -0.37289220433E+02 -0.47628506578E+02  0.68530612573E+02  0.00000000000E+00 0. -1.
         -5    1    5    5    0  502 -0.26897992124E+00 -0.48736858095E+02  0.27447345262E+02  0.56131991316E+02  0.47000000000E+01 0.  1.
         11    1    6    6    0    0 -0.20520909949E+02 -0.25497607321E+02 -0.25083053327E+02  0.41235849554E+02  0.00000000000E+00 0. -1.
        -12    1    6    6    0    0 -0.47750630828E+01  0.47865546866E+02 -0.83857417415E+02  0.96674599868E+02  0.00000000000E+00 0.  1.
</event>
<event>
12    1  0.8133506E-002  0.2580018E+03  0.7818608E-02  0.1108360E+00
         21   -1    0    0  503  502  0.00000000000E+00  0.00000000000E+00  0.18033682787E+03  0.18033682787E+03  0.00000000000E+00 0.  1.
         21   -1    0    0  501  503 -0.00000000000E+00 -0.00000000000E+00 -0.58558505985E+03  0.58558505985E+03  0.00000000000E+00 0. -1.
          6    2    1    2  501    0 -0.14320789950E+03  0.12579358227E+03 -0.43553020438E+03  0.50621289877E+03  0.17387470243E+03 0.  0.
         24    2    3    3    0    0 -0.32389407511E+02  0.95138419136E+02 -0.30976907255E+03  0.33574756660E+03  0.81664910821E+02 0.  0.
         -6    2    1    2    0  502  0.14320789950E+03 -0.12579358227E+03  0.30281972388E+02  0.25970898895E+03  0.17377926594E+03 0.  0.
        -24    2    5    5    0    0  0.17071184120E+03 -0.12632222023E+03  0.13942285586E+02  0.22736982335E+03  0.80017580525E+02 0.  0.
          5    1    3    3  501    0 -0.11081849199E+03  0.30655163131E+02 -0.12576113183E+03  0.17046533217E+03  0.47000000000E+01 0. -1.
        -11    1    4    4    0    0 -0.34876730027E+02  0.65619185409E+02 -0.10379713564E+03  0.12765621473E+03  0.00000000000E+00 0.  1.
         12    1    4    4    0    0  0.24873225166E+01  0.29519233727E+02 -0.20597193691E+03  0.20809135188E+03  0.00000000000E+00 0. -1.
         -5    1    5    5    0  502 -0.27503941698E+02  0.52863795964E+00  0.16339686802E+02  0.32339165601E+02  0.47000000000E+01 0.  1.
         11    1    6    6    0    0 -0.58470085749E+01  0.19725461293E+01  0.65454517682E+01  0.89956315152E+01  0.00000000000E+00 0. -1.
        -12    1    6    6    0    0  0.17655884977E+03 -0.12829476636E+03  0.73968338182E+01  0.21837419183E+03  0.00000000000E+00 0.  1.
</event>
<event>
12    1  0.8133506E-002  0.2438144E+03  0.7818608E-02  0.1117686E+00
         21   -1    0    0  503  502  0.00000000000E+00  0.00000000000E+00  0.21620156930E+03  0.21620156930E+03  0.00000000000E+00 0. -1.
         21   -1    0    0  501  503 -0.00000000000E+00 -0.00000000000E+00 -0.27417406687E+03  0.27417406687E+03  0.00000000000E+00 0. -1.
          6    2    1    2  501    0 -0.16985648405E+03 -0.16270626153E+01 -0.80827633707E+01  0.24394830047E+03  0.17490445888E+03 0.  0.
         24    2    3    3    0    0 -0.86411345179E+02 -0.24988725872E+02 -0.68477386865E+02  0.13822006840E+03  0.79525328039E+02 0.  0.
         -6    2    1    2    0  502  0.16985648405E+03  0.16270626153E+01 -0.49889734195E+02  0.24642733570E+03  0.17141637522E+03 0.  0.
        -24    2    5    5    0    0  0.13629417009E+03 -0.21683515510E+02 -0.94679545234E+02  0.18561591289E+03  0.80266899700E+02 0.  0.
          5    1    3    3  501    0 -0.83445138867E+02  0.23361663257E+02  0.60394623494E+02  0.10572823208E+03  0.47000000000E+01 0. -1.
        -13    1    4    4    0    0  0.84455307331E+01  0.95776538943E+01  0.46173226900E+01  0.13578590218E+02  0.00000000000E+00 0.  1.
         14    1    4    4    0    0 -0.94856875913E+02 -0.34566379767E+02 -0.73094709555E+02  0.12464147818E+03  0.00000000000E+00 0. -1.
         -5    1    5    5    0  502  0.33562313956E+02  0.23310578126E+02  0.44789811039E+02  0.60811422804E+02  0.47000000000E+01 0.  1.
         13    1    6    6    0    0  0.93581162448E+02 -0.28179289142E+02 -0.20631943931E+02  0.99885851912E+02  0.00000000000E+00 0. -1.
        -14    1    6    6    0    0  0.42713007643E+02  0.64957736323E+01 -0.74047601303E+02  0.85730060981E+02  0.00000000000E+00 0.  1.
</event>
<event>
12    1  0.8133506E-002  0.2475230E+03  0.7818608E-02  0.1116508E+00
         21   -1    0    0  503  502  0.00000000000E+00  0.00000000000E+00  0.68103419811E+03  0.68103419811E+03  0.00000000000E+00 0. -1.
         21   -1    0    0  501  503 -0.00000000000E+00 -0.00000000000E+00 -0.20085378420E+03  0.20085378420E+03  0.00000000000E+00 0. -1.
          6    2    1    2  501    0 -0.45950043172E+01  0.16326621468E+03 -0.90644448063E+02  0.26359828230E+03  0.18598566489E+03 0.  0.
         24    2    3    3    0    0 -0.76853594742E+02  0.11170605670E+03 -0.42667904915E+02  0.16258544908E+03  0.78922493728E+02 0.  0.
         -6    2    1    2    0  502  0.45950043172E+01 -0.16326621468E+03  0.57082486196E+03  0.61828970001E+03  0.17252292364E+03 0.  0.
        -24    2    5    5    0    0 -0.20968992638E+02 -0.16625370546E+03  0.55988173901E+03  0.58992978144E+03  0.80433774759E+02 0.  0.
          5    1    3    3  501    0  0.72258590425E+02  0.51560157986E+02 -0.47976543147E+02  0.10101283321E+03  0.47000000000E+01 0. -1.
        -13    1    4    4    0    0 -0.38747392325E+02  0.32593117416E+00 -0.54895682768E+01  0.39135687077E+02  0.00000000000E+00 0.  1.
         14    1    4    4    0    0 -0.38106202417E+02  0.11138012552E+03 -0.37178336638E+02  0.12344976201E+03  0.00000000000E+00 0. -1.
         -5    1    5    5    0  502  0.25563996956E+02  0.29874907751E+01  0.10943122958E+02  0.28359918574E+02  0.47000000000E+01 0.  1.
         13    1    6    6    0    0 -0.36449864566E+02 -0.26317846264E+02  0.12634689397E+03  0.13410726780E+03  0.00000000000E+00 0. -1.
        -14    1    6    6    0    0  0.15480871928E+02 -0.13993585920E+03  0.43353484503E+03  0.45582251364E+03  0.00000000000E+00 0.  1.
</event>
<event>
12    1  0.8133506E-002  0.2730696E+03  0.7818608E-02  0.1100118E+00
         21   -1    0    0  501  502  0.00000000000E+00  0.00000000000E+00  0.15647460368E+03  0.15647460368E+03  0.00000000000E+00 0.  1.
         21   -1    0    0  502  503 -0.00000000000E+00 -0.00000000000E+00 -0.52477095710E+03  0.52477095710E+03  0.00000000000E+00 0. -1.
         -6    2    1    2    0  503  0.15999975978E+03 -0.13208118295E+03 -0.29352883813E+03  0.39812512761E+03  0.17116972981E+03 0.  0.
        -24    2    3    3    0    0  0.24366461588E+02 -0.70625755992E+02 -0.18255478401E+03  0.21235513066E+03  0.78655772139E+02 0.  0.
          6    2    1    2  501    0 -0.15999975978E+03  0.13208118295E+03 -0.74767515290E+02  0.28312043317E+03  0.17754333644E+03 0.  0.
         24    2    5    5    0    0 -0.12991534158E+03  0.16614274775E+03 -0.73188099472E+02  0.23740558909E+03  0.80768231483E+02 0.  0.
          5    1    5    5  501    0 -0.30084418197E+02 -0.34061564800E+02 -0.15794158180E+01  0.45714844079E+02  0.47000000000E+01 0. -1.
        -11    1    6    6    0    0  0.53394179874E+01  0.33824277124E+02  0.76773641662E+00  0.34251722973E+02  0.00000000000E+00 0.  1.
         12    1    6    6    0    0 -0.13525475957E+03  0.13231847063E+03 -0.73955835888E+02  0.20315386611E+03  0.00000000000E+00 0. -1.
         -5    1    3    3    0  503  0.13563329819E+03 -0.61455426961E+02 -0.11097405411E+03  0.18576999695E+03  0.47000000000E+01 0.  1.
         13    1    4    4    0    0  0.51152505097E+02 -0.61458302144E+02 -0.14046456026E+03  0.16162918786E+03  0.00000000000E+00 0. -1.
        -14    1    4    4    0    0 -0.26786043508E+02 -0.91674538481E+01 -0.42090223753E+02  0.50725942795E+02  0.00000000000E+00 0.  1.
</event>
<event>
12    1  0.8133506E-002  0.2750123E+03  0.7818608E-02  0.1098704E+00
         21   -1    0    0  501  502  0.00000000000E+00  0.00000000000E+00  0.13928014693E+04  0.13928014693E+04  0.00000000000E+00 0. -1.
         21   -1    0    0  502  503 -0.00000000000E+00 -0.00000000000E+00 -0.64236237867E+02  0.64236237867E+02  0.00000000000E+00 0.  1.
         -6    2    1    2    0  503 -0.17856196695E+02 -0.21421519629E+03  0.95409966689E+03  0.99243439215E+03  0.16856112920E+03 0.  0.
        -24    2    3    3    0    0  0.96658043695E+01 -0.21735746637E+03  0.91816286752E+03  0.94681775096E+03  0.78122380224E+02 0.  0.
          6    2    1    2  501    0  0.17856196695E+02  0.21421519629E+03  0.37446556452E+03  0.46460331500E+03  0.17153654774E+03 0.  0.
         24    2    5    5    0    0  0.35473034812E+02  0.20023909128E+03  0.22449564248E+03  0.31288399515E+03  0.78384125019E+02 0.  0.
          5    1    5    5  501    0 -0.17616838117E+02  0.13976105017E+02  0.14996992205E+03  0.15171931985E+03  0.47000000000E+01 0. -1.
        -11    1    6    6    0    0  0.23960104121E+01  0.18383437321E+02 -0.40210430242E+01  0.18969987366E+02  0.00000000000E+00 0.  1.
         12    1    6    6    0    0  0.33077024400E+02  0.18185565396E+03  0.22851668550E+03  0.29391400778E+03  0.00000000000E+00 0. -1.
         -5    1    3    3    0  503 -0.27522001065E+02  0.31422700789E+01  0.35936799373E+02  0.45616641185E+02  0.47000000000E+01 0.  1.
         13    1    4    4    0    0  0.38084038863E+02 -0.12182681791E+03  0.42814320483E+03  0.44676478310E+03  0.00000000000E+00 0. -1.
        -14    1    4    4    0    0 -0.28418234494E+02 -0.95530648458E+02  0.49001966269E+03  0.50005296786E+03  0.00000000000E+00 0.  1.
</event>
<event>
12    1  0.8133506E-002  0.1698394E+03  0.7818608E-02  0.1182520E+00
         21   -1    0    0  501  502  0.00000000000E+00  0.00000000000E+00  0.37967948670E+03  0.37967948670E+03  0.00000000000E+00 0.  1.
         21   -1    0    0  502  503 -0.00000000000E+00 -0.00000000000E+00 -0.11489383533E+03  0.11489383533E+03  0.00000000000E+00 0.  1.
         -6    2    1    2    0  503 -0.73004144796E+01 -0.16647904622E+01 -0.20045177125E+02  0.17101824388E+03  0.16967428513E+03 0.  0.
        -24    2    3    3    0    0 -0.15262599399E+02  0.20807002256E+01  0.52977994691E+02  0.97316827939E+02  0.80166207499E+02 0.  0.
          6    2    1    2  501    0  0.73004144796E+01  0.16647904622E+01  0.28483082850E+03  0.32355507815E+03  0.15330759979E+03 0.  0.
         24    2    5    5    0    0 -0.83292562056E+01  0.51993904148E+02  0.16142756604E+03  0.18928757845E+03  0.83655159438E+02 0.  0.
          5    1    5    5  501    0  0.15629670685E+02 -0.50329113686E+02  0.12340326246E+03  0.13426749970E+03  0.47000000000E+01 0. -1.
        -11    1    6    6    0    0 -0.37716741288E+02  0.23487510081E+02  0.13084817771E+03  0.13818632824E+03  0.00000000000E+00 0.  1.
         12    1    6    6    0    0  0.29387485082E+02  0.28506394067E+02  0.30579388330E+02  0.51101250208E+02  0.00000000000E+00 0. -1.
         -5    1    3    3    0  503  0.79621849190E+01 -0.37454906878E+01 -0.73023171817E+02  0.73701415939E+02  0.47000000000E+01 0.  1.
         11    1    4    4    0    0 -0.42485832768E+02  0.14226893566E+02  0.50338812758E+02  0.67390255649E+02  0.00000000000E+00 0. -1.
        -12    1    4    4    0    0  0.27223233370E+02 -0.12146193340E+02  0.26391819335E+01  0.29926572290E+02  0.00000000000E+00 0.  1.
</event>
<event>
12    1  0.8133506E-002  0.1850638E+03  0.7818608E-02  0.1163539E+00
         21   -1    0    0  503  502  0.00000000000E+00  0.00000000000E+00  0.42587707632E+02  0.42587707632E+02  0.00000000000E+00 0.  1.
         21   -1    0    0  501  503 -0.00000000000E+00 -0.00000000000E+00 -0.83888561930E+03  0.83888561930E+03  0.00000000000E+00 0.  1.
          6    2    1    2  501    0 -0.66004823637E+01 -0.64618272442E+02 -0.50240402957E+03  0.53540492249E+03  0.17329031885E+03 0.  0.
         24    2    3    3    0    0  0.31672689440E+02  0.20309794634E+02 -0.29470887751E+03  0.30772756647E+03  0.80170354060E+02 0.  0.
         -6    2    1    2    0  502  0.66004823637E+01  0.64618272442E+02 -0.29389388210E+03  0.34606840444E+03  0.17079414250E+03 0.  0.
        -24    2    5    5    0    0  0.66564152921E+01  0.98659255731E+02 -0.28608524655E+03  0.31082842060E+03  0.70651129861E+02 0.  0.
          5    1    3    3  501    0 -0.38273171804E+02 -0.84928067075E+02 -0.20769515206E+03  0.22767735602E+03  0.47000000000E+01 0. -1.
        -13    1    4    4    0    0 -0.12839982389E+02  0.38416797587E+02 -0.13469302448E+03  0.14065179106E+03  0.00000000000E+00 0.  1.
         14    1    4    4    0    0  0.44512671829E+02 -0.18107002954E+02 -0.16001585302E+03  0.16707577541E+03  0.00000000000E+00 0. -1.
         -5    1    5    5    0  502 -0.55932928398E-01 -0.34040983289E+02 -0.78086355465E+01  0.35239983838E+02  0.47000000000E+01 0.  1.
         11    1    6    6    0    0 -0.16775054446E+02  0.34984336946E+02 -0.40675605463E+02  0.56212197635E+02  0.00000000000E+00 0. -1.
        -12    1    6    6    0    0  0.23431469738E+02  0.63674918785E+02 -0.24540964109E+03  0.25461622296E+03  0.00000000000E+00 0.  1.
</event>
<event>
12    1  0.8133506E-002  0.2426725E+03  0.7818608E-02  0.1118307E+00
         21   -1    0    0  503  502  0.00000000000E+00  0.00000000000E+00  0.14995825841E+03  0.14995825841E+03  0.00000000000E+00 0.  1.
         21   -1    0    0  501  503 -0.00000000000E+00 -0.00000000000E+00 -0.66515854004E+03  0.66515854004E+03  0.00000000000E+00 0.  1.
          6    2    1    2  501    0 -0.10559418373E+03  0.12771430567E+03 -0.52029095552E+03  0.57410156338E+03  0.17728184106E+03 0.  0.
         24    2    3    3    0    0 -0.66121277582E+01  0.49036331741E+02 -0.34470092433E+03  0.35767231388E+03  0.81623984335E+02 0.  0.
         -6    2    1    2    0  502  0.10559418373E+03 -0.12771430567E+03  0.50906738901E+01  0.24101523507E+03  0.17493242428E+03 0.  0.
        -24    2    5    5    0    0 -0.12510061496E+02 -0.46012075883E+02 -0.10632522950E+02  0.96470515307E+02  0.83185918361E+02 0.  0.
          5    1    3    3  501    0 -0.98982055970E+02  0.78677973929E+02 -0.17559003119E+03  0.21642924950E+03  0.47000000000E+01 0. -1.
        -13    1    4    4    0    0 -0.36448680926E+02  0.37198231650E+02 -0.28660681508E+03  0.29129998494E+03  0.00000000000E+00 0.  1.
         14    1    4    4    0    0  0.29836553168E+02  0.11838100092E+02 -0.58094109249E+02  0.66372328934E+02  0.00000000000E+00 0. -1.
         -5    1    5    5    0  502  0.11810424522E+03 -0.81702229787E+02  0.15723196840E+02  0.14454471976E+03  0.47000000000E+01 0.  1.
         13    1    6    6    0    0 -0.29301305386E+02 -0.51748481414E+02 -0.32928024020E+02  0.67975926561E+02  0.00000000000E+00 0. -1.
        -14    1    6    6    0    0  0.16791243890E+02  0.57364055313E+01  0.22295501070E+02  0.28494588745E+02  0.00000000000E+00 0.  1.
</event>
<event>
12    1  0.8133506E-002  0.2229121E+03  0.7818608E-02  0.1131930E+00
         21   -1    0    0  503  502  0.00000000000E+00  0.00000000000E+00  0.13312914496E+04  0.13312914496E+04  0.00000000000E+00 0. -1.
         21   -1    0    0  501  503 -0.00000000000E+00 -0.00000000000E+00 -0.45360372769E+02  0.45360372769E+02  0.00000000000E+00 0. -1.
          6    2    1    2  501    0 -0.13059009899E+03 -0.49790037687E+02  0.34871224711E+03  0.41328847214E+03  0.17226232354E+03 0.  0.
         24    2    3    3    0    0 -0.15837108598E+02 -0.58221480998E+02  0.10931521547E+03  0.14763387158E+03  0.78774290519E+02 0.  0.
         -6    2    1    2    0  502  0.13059009899E+03  0.49790037687E+02  0.93721882971E+03  0.96336335022E+03  0.17365767468E+03 0.  0.
        -24    2    5    5    0    0  0.53471061090E+02  0.95159045616E+02  0.57737887583E+03  0.59253646973E+03  0.76280425832E+02 0.  0.
          5    1    3    3  501    0 -0.11475299039E+03  0.84314433113E+01  0.23939703164E+03  0.26565460056E+03  0.47000000000E+01 0. -1.
        -13    1    4    4    0    0 -0.62355435318E+01 -0.59127802651E+02  0.11958239730E+03  0.13354747767E+03  0.00000000000E+00 0.  1.
         14    1    4    4    0    0 -0.96015650659E+01  0.90632165273E+00 -0.10267181828E+02  0.14086393908E+02  0.00000000000E+00 0. -1.
         -5    1    5    5    0  502  0.77119037896E+02 -0.45369007929E+02  0.35983995388E+03  0.37082688049E+03  0.47000000000E+01 0.  1.
         13    1    6    6    0    0  0.69574348725E+02  0.52866061824E+02  0.35460293028E+03  0.36521041696E+03  0.00000000000E+00 0. -1.
        -14    1    6    6    0    0 -0.16103287635E+02  0.42292983792E+02  0.22277594555E+03  0.22732605277E+03  0.00000000000E+00 0.  1.
</event>
<event>
12    1  0.8133506E-002  0.2228700E+03  0.7818608E-02  0.1132598E+00
         21   -1    0    0  503  502  0.00000000000E+00  0.00000000000E+00  0.28620889232E+03  0.28620889232E+03  0.00000000000E+00 0. -1.
         21   -1    0    0  501  503 -0.00000000000E+00 -0.00000000000E+00 -0.44294955267E+03  0.44294955267E+03  0.00000000000E+00 0.  1.
          6    2    1    2  501    0  0.26465084924E+02  0.13202389692E+03 -0.36422082681E+03  0.42466040424E+03  0.17189804585E+03 0.  0.
         24    2    3    3    0    0  0.27612715114E+02  0.14837309353E+03 -0.36924889215E+03  0.40688444503E+03  0.80207046644E+02 0.  0.
         -6    2    1    2    0  502 -0.26465084924E+02 -0.13202389692E+03  0.20748016646E+03  0.30449804075E+03  0.17759596637E+03 0.  0.
        -24    2    5    5    0    0 -0.43714392115E+02 -0.16356387456E+03  0.18067669236E+03  0.25941118001E+03  0.77369270454E+02 0.  0.
          5    1    3    3  501    0 -0.11476301906E+01 -0.16349196605E+02  0.50280653443E+01  0.17775959209E+02  0.47000000000E+01 0. -1.
        -13    1    4    4    0    0  0.10854586986E+02  0.12371336009E+03 -0.35003995522E+03  0.37141726908E+03  0.00000000000E+00 0.  1.
         14    1    4    4    0    0  0.16758128128E+02  0.24659733435E+02 -0.19208936937E+02  0.35467175948E+02  0.00000000000E+00 0. -1.
         -5    1    5    5    0  502  0.17249307191E+02  0.31539977642E+02  0.26803474095E+02  0.45086860744E+02  0.47000000000E+01 0.  1.
         13    1    6    6    0    0 -0.14868721002E+02 -0.94219822260E+02  0.15110855871E+03  0.17869597166E+03  0.00000000000E+00 0. -1.
        -14    1    6    6    0    0 -0.28845671113E+02 -0.69344052301E+02  0.29568133653E+02  0.80715208352E+02  0.00000000000E+00 0.  1.
</event>
<event>
12    1  0.8133506E-002  0.1937953E+03  0.7818608E-02  0.1155127E+00
         21   -1    0    0  501  502  0.00000000000E+00  0.00000000000E+00  0.16406507323E+03  0.16406507323E+03  0.00000000000E+00 0. -1.
         21   -1    0    0  502  503 -0.00000000000E+00 -0.00000000000E+00 -0.23697201783E+03  0.23697201783E+03  0.00000000000E+00 0. -1.
         -6    2    1    2    0  503 -0.27541404564E+02  0.85161935874E+02 -0.73998629112E+02  0.20744256020E+03  0.17188814499E+03 0.  0.
        -24    2    3    3    0    0  0.49249641680E+02  0.50972478833E+02 -0.40862295337E+02  0.11696664975E+03  0.83592757881E+02 0.  0.
          6    2    1    2  501    0  0.27541404564E+02 -0.85161935874E+02  0.10916845155E+01  0.19359453086E+03  0.17165828357E+03 0.  0.
         24    2    5    5    0    0 -0.11162836236E+02  0.40953930890E+01 -0.38880179006E+02  0.88310491696E+02  0.78394473444E+02 0.  0.
          5    1    5    5  501    0  0.38704240801E+02 -0.89257328963E+02  0.39971863521E+02  0.10528403917E+03  0.47000000000E+01 0. -1.
        -13    1    6    6    0    0 -0.27331121066E+02 -0.13485305289E+02 -0.52580924649E+02  0.60774972435E+02  0.00000000000E+00 0.  1.
         14    1    6    6    0    0  0.16168284830E+02  0.17580698378E+02  0.13700745644E+02  0.27535519261E+02  0.00000000000E+00 0. -1.
         -5    1    3    3    0  503 -0.76791046244E+02  0.34189457041E+02 -0.33136333774E+02  0.90475910452E+02  0.47000000000E+01 0.  1.
         13    1    4    4    0    0  0.16875746219E+02 -0.16468415871E+02 -0.34634356196E+02  0.41899142722E+02  0.00000000000E+00 0. -1.
        -14    1    4    4    0    0  0.32373895461E+02  0.67440894704E+02 -0.62279391407E+01  0.75067507030E+02  0.00000000000E+00 0.  1.
</event>
<event>
12    1  0.8133506E-002  0.1869078E+03  0.7818608E-02  0.1161395E+00
         21   -1    0    0  503  502  0.00000000000E+00  0.00000000000E+00  0.23072384863E+03  0.23072384863E+03  0.00000000000E+00 0.  1.
         21   -1    0    0  501  503 -0.00000000000E+00 -0.00000000000E+00 -0.18193183422E+03  0.18193183422E+03  0.00000000000E+00 0. -1.
          6    2    1    2  501    0 -0.71003408795E+02 -0.18695324279E+02 -0.60637977604E+02  0.19649802209E+03  0.17188225372E+03 0.  0.
         24    2    3    3    0    0 -0.64309392677E+02 -0.62412614325E+01  0.25823960119E+02  0.10876165444E+03  0.83591681579E+02 0.  0.
         -6    2    1    2    0  502  0.71003408795E+02  0.18695324279E+02  0.10942999202E+03  0.21615766077E+03  0.17134238222E+03 0.  0.
        -24    2    5    5    0    0  0.97272273562E+02  0.50977243557E+02  0.11045656535E+03  0.17426112844E+03  0.78139065076E+02 0.  0.
          5    1    3    3  501    0 -0.66940161175E+01 -0.12454062847E+02 -0.86461937723E+02  0.87736367648E+02  0.47000000000E+01 0. -1.
        -11    1    4    4    0    0 -0.18365105219E+02  0.61395965216E+01  0.51267759260E+02  0.54802872869E+02  0.00000000000E+00 0.  1.
         12    1    4    4    0    0 -0.45944287459E+02 -0.12380857954E+02 -0.25443799141E+02  0.53958781570E+02  0.00000000000E+00 0. -1.
         -5    1    5    5    0  502 -0.26268864767E+02 -0.32281919278E+02 -0.10265733354E+01  0.41896532330E+02  0.47000000000E+01 0.  1.
         13    1    6    6    0    0  0.16969067251E+02  0.50392012881E+02  0.32371806634E+02  0.62251410187E+02  0.00000000000E+00 0. -1.
        -14    1    6    6    0    0  0.80303206311E+02  0.58523067609E+00  0.78084758719E+02  0.11200971825E+03  0.00000000000E+00 0.  1.
</event>
<event>
12    1  0.8133506E-002  0.2017063E+03  0.7818608E-02  0.1148578E+00
         21   -1    0    0  503  502  0.00000000000E+00  0.00000000000E+00  0.19161596320E+03  0.19161596320E+03  0.00000000000E+00 0. -1.
         21   -1    0    0  501  503 -0.00000000000E+00 -0.00000000000E+00 -0.21131767040E+03  0.21131767040E+03  0.00000000000E+00 0.  1.
          6    2    1    2  501    0  0.49903662714E+02  0.94299261434E+02 -0.18009615945E+02  0.20122022592E+03  0.16965407981E+03 0.  0.
         24    2    3    3    0    0  0.85264605530E+02  0.35041472526E+02  0.19640126652E+02  0.12247078186E+03  0.78201023531E+02 0.  0.
         -6    2    1    2    0  502 -0.49903662714E+02 -0.94299261434E+02 -0.16920912542E+01  0.20171340768E+03  0.17118034176E+03 0.  0.
        -24    2    5    5    0    0  0.17754045455E+02 -0.12186158942E+02 -0.31810116810E+02  0.91036795248E+02  0.82535483023E+02 0.  0.
          5    1    3    3  501    0 -0.35360942815E+02  0.59257788908E+02 -0.37649742598E+02  0.78749444066E+02  0.47000000000E+01 0. -1.
        -13    1    4    4    0    0  0.17657487506E+02  0.27437833020E+02 -0.24995276237E+02  0.41102133521E+02  0.00000000000E+00 0.  1.
         14    1    4    4    0    0  0.67607118024E+02  0.76036395069E+01  0.44635402889E+02  0.81368648338E+02  0.00000000000E+00 0. -1.
         -5    1    5    5    0  502 -0.67657708169E+02 -0.82113102492E+02  0.30118025555E+02  0.11067661243E+03  0.47000000000E+01 0.  1.
         13    1    6    6    0    0  0.11065995261E+02  0.78592643562E+01  0.26085399272E+02  0.29405311468E+02  0.00000000000E+00 0. -1.
        -14    1    6    6    0    0  0.66880501942E+01 -0.20045423299E+02 -0.57895516082E+02  0.61631483781E+02  0.00000000000E+00 0.  1.
</event>
<event>
12    1  0.8133506E-002  0.1973873E+03  0.7818608E-02  0.1152316E+00
         21   -1    0    0  503  502  0.00000000000E+00  0.00000000000E+00  0.31389692839E+03  0.31389692839E+03  0.00000000000E+00 0. -1.
         21   -1    0    0  501  503 -0.00000000000E+00 -0.00000000000E+00 -0.14402693328E+03  0.14402693328E+03  0.00000000000E+00 0.  1.
          6    2    1    2  501    0  0.12910440645E+02 -0.95212872866E+02 -0.26561053849E+01  0.19576553339E+03  0.17054301079E+03 0.  0.
         24    2    3    3    0    0 -0.53492644285E+02 -0.95948262986E+02  0.60742672669E+01  0.12862225455E+03  0.66627738065E+02 0.  0.
         -6    2    1    2    0  502 -0.12910440645E+02  0.95212872866E+02  0.17252610049E+03  0.26215832829E+03  0.17242262932E+03 0.  0.
        -24    2    5    5    0    0  0.13089853684E+02 -0.14659006889E+02  0.48618963694E+02  0.94459449890E+02  0.78565598644E+02 0.  0.
          5    1    3    3  501    0  0.66403084930E+02  0.73539011953E+00 -0.87303726518E+01  0.67143278840E+02  0.47000000000E+01 0.  1.
        -11    1    4    4    0    0 -0.16534835536E+02 -0.50015981118E+02 -0.28888955970E+02  0.60079704813E+02  0.00000000000E+00 0.  1.
         12    1    4    4    0    0 -0.36957808749E+02 -0.45932281868E+02  0.34963223237E+02  0.68542549735E+02  0.00000000000E+00 0. -1.
         -5    1    5    5    0  502 -0.26000294329E+02  0.10987187976E+03  0.12390713680E+03  0.16769887840E+03  0.47000000000E+01 0.  1.
         13    1    6    6    0    0 -0.18820853470E+01  0.12906067917E+02  0.59763337895E+02  0.61169971315E+02  0.00000000000E+00 0. -1.
        -14    1    6    6    0    0  0.14971939031E+02 -0.27565074806E+02 -0.11144374201E+02  0.33289478574E+02  0.00000000000E+00 0.  1.
</event>
<event>
12    1  0.8133506E-002  0.1830872E+03  0.7818608E-02  0.1165112E+00
         21   -1    0    0  501  502  0.00000000000E+00  0.00000000000E+00  0.77953796487E+02  0.77953796487E+02  0.00000000000E+00 0.  1.
         21   -1    0    0  502  503 -0.00000000000E+00 -0.00000000000E+00 -0.48861469501E+03  0.48861469501E+03  0.00000000000E+00 0.  1.
         -6    2    1    2    0  503  0.17299832414E+02 -0.65327085174E+02 -0.30613880800E+03  0.35670983598E+03  0.17015882305E+03 0.  0.
        -24    2    3    3    0    0  0.10806762477E+02 -0.10136145782E+03 -0.15125602811E+03  0.19748860161E+03  0.75712815813E+02 0.  0.
          6    2    1    2  501    0 -0.17299832414E+02  0.65327085174E+02 -0.10452209053E+03  0.20985865552E+03  0.16896412528E+03 0.  0.
         24    2    5    5    0    0  0.27985342514E+02  0.12143369443E+02 -0.28577709080E+00  0.84293717239E+02  0.78579312038E+02 0.  0.
          5    1    5    5  501    0 -0.45285174928E+02  0.53183715730E+02 -0.10423631344E+03  0.12556493828E+03  0.47000000000E+01 0. -1.
        -13    1    6    6    0    0  0.28440577698E+02 -0.23861721391E+02  0.20811757370E+02  0.42560280220E+02  0.00000000000E+00 0.  1.
         14    1    6    6    0    0 -0.45523518440E+00  0.36005090835E+02 -0.21097534461E+02  0.41733437019E+02  0.00000000000E+00 0. -1.
         -5    1    3    3    0  503  0.64930699373E+01  0.36034372645E+02 -0.15488277988E+03  0.15922123437E+03  0.47000000000E+01 0.  1.
         11    1    4    4    0    0  0.35142244098E+02 -0.43813594204E+02 -0.10724553622E+03  0.12106284895E+03  0.00000000000E+00 0. -1.
        -12    1    4    4    0    0 -0.24335481622E+02 -0.57547863615E+02 -0.44010491892E+02  0.76425752656E+02  0.00000000000E+00 0.  1.
</event>
<event>
12    1  0.8133506E-002  0.2439581E+03  0.7818608E-02  0.1117954E+00
         21   -1    0    0  501  502  0.00000000000E+00  0.00000000000E+00  0.22798851467E+03  0.22798851467E+03  0.00000000000E+00 0. -1.
         21   -1    0    0  502  503 -0.00000000000E+00 -0.00000000000E+00 -0.26025272793E+03  0.26025272793E+03  0.00000000000E+00 0.  1.
         -6    2    1    2    0  503  0.74511657240E+02 -0.15614792842E+03  0.14661775562E+02  0.24439829375E+03  0.17199242923E+03 0.  0.
        -24    2    3    3    0    0  0.61566428746E+02 -0.18231564470E+03  0.31178770984E+02  0.21052751794E+03  0.79500318247E+02 0.  0.
          6    2    1    2  501    0 -0.74511657240E+02  0.15614792842E+03 -0.46925988813E+02  0.24384294885E+03  0.16529722521E+03 0.  0.
         24    2    5    5    0    0 -0.34636445955E+02  0.12337795867E+02 -0.23146364425E+02  0.92651192343E+02  0.81832662558E+02 0.  0.
          5    1    5    5  501    0 -0.39875211285E+02  0.14381013255E+03 -0.23779624388E+02  0.15119175651E+03  0.47000000000E+01 0. -1.
        -11    1    6    6    0    0 -0.54987165249E+02  0.19503174121E+02  0.34005762800E+01  0.58442502188E+02  0.00000000000E+00 0.  1.
         12    1    6    6    0    0  0.20350719295E+02 -0.71653782539E+01 -0.26546940705E+02  0.34208690155E+02  0.00000000000E+00 0. -1.
         -5    1    3    3    0  503  0.12945228494E+02  0.26167716279E+02 -0.16516995422E+02  0.33870775807E+02  0.47000000000E+01 0.  1.
         11    1    4    4    0    0  0.47482883198E+02 -0.12435645014E+03 -0.16547197914E+02  0.13413784196E+03  0.00000000000E+00 0. -1.
        -12    1    4    4    0    0  0.14083545549E+02 -0.57959194559E+02  0.47725968898E+02  0.76389675980E+02  0.00000000000E+00 0.  1.
</event>
<event>
12    1  0.8133506E-002  0.2150725E+03  0.7818608E-02  0.1137760E+00
         21   -1    0    0  503  502  0.00000000000E+00  0.00000000000E+00  0.16491648801E+03  0.16491648801E+03  0.00000000000E+00 0.  1.
         21   -1    0    0  501  503 -0.00000000000E+00 -0.00000000000E+00 -0.28147564107E+03  0.28147564107E+03  0.00000000000E+00 0.  1.
          6    2    1    2  501    0  0.11943576434E+03  0.47974538405E+02 -0.39563613593E+02  0.21868119546E+03  0.17230707353E+03 0.  0.
         24    2    3    3    0    0 -0.20410196975E+01 -0.49955127962E+01 -0.29780108894E+01  0.81120184595E+02  0.80885690269E+02 0.  0.
         -6    2    1    2    0  502 -0.11943576434E+03 -0.47974538405E+02 -0.76995539470E+02  0.22771093362E+03  0.17134029898E+03 0.  0.
        -24    2    5    5    0    0 -0.66442908252E+02  0.26530049911E+02 -0.83625915429E+02  0.13592189091E+03  0.79768183458E+02 0.  0.
          5    1    3    3  501    0  0.12147678404E+03  0.52970051201E+02 -0.36585602703E+02  0.13756101087E+03  0.47000000000E+01 0. -1.
        -13    1    4    4    0    0  0.22568082108E+02  0.20228372387E+02  0.22405832247E+02  0.37689875273E+02  0.00000000000E+00 0.  1.
         14    1    4    4    0    0 -0.24609101806E+02 -0.25223885183E+02 -0.25383843136E+02  0.43430309322E+02  0.00000000000E+00 0. -1.
         -5    1    5    5    0  502 -0.52992856093E+02 -0.74504588316E+02  0.66303759590E+01  0.91789042714E+02  0.47000000000E+01 0.  1.
         11    1    6    6    0    0  0.77892991506E+01 -0.11135585981E+02  0.48631658493E+01  0.14433462456E+02  0.00000000000E+00 0. -1.
        -12    1    6    6    0    0 -0.74232207402E+02  0.37665635892E+02 -0.88489081278E+02  0.12148842845E+03  0.00000000000E+00 0.  1.
</event>
<event>
12    1  0.8133506E-002  0.3000846E+03  0.7818608E-02  0.1085218E+00
         21   -1    0    0  503  502  0.00000000000E+00  0.00000000000E+00  0.12499720231E+04  0.12499720231E+04  0.00000000000E+00 0. -1.
         21   -1    0    0  501  503 -0.00000000000E+00 -0.00000000000E+00 -0.72555944409E+02  0.72555944409E+02  0.00000000000E+00 0. -1.
          6    2    1    2  501    0  0.22087212372E+03 -0.10693866569E+03  0.53118055553E+03  0.61008487391E+03  0.17271478668E+03 0.  0.
         24    2    3    3    0    0  0.21627873484E+03 -0.13613811450E+03  0.44964494951E+03  0.52322952242E+03  0.79236829469E+02 0.  0.
         -6    2    1    2    0  502 -0.22087212372E+03  0.10693866569E+03  0.64623552317E+03  0.71244309362E+03  0.17243676226E+03 0.  0.
        -24    2    5    5    0    0 -0.18514063996E+03  0.13513514584E+03  0.45372028915E+03  0.51456437886E+03  0.79848825915E+02 0.  0.
          5    1    3    3  501    0  0.45933888736E+01  0.29199448812E+02  0.81535606025E+02  0.86855351488E+02  0.47000000000E+01 0. -1.
        -13    1    4    4    0    0  0.10482616623E+02 -0.16278487216E+02  0.88745069907E+02  0.90832603344E+02  0.00000000000E+00 0.  1.
         14    1    4    4    0    0  0.20579611822E+03 -0.11985962729E+03  0.36089987960E+03  0.43239691907E+03  0.00000000000E+00 0. -1.
         -5    1    5    5    0  502 -0.35731483761E+02 -0.28196480145E+02  0.19251523402E+03  0.19787871476E+03  0.47000000000E+01 0.  1.
         11    1    6    6    0    0 -0.98564738622E+02  0.48316154022E+02  0.14116752117E+03  0.17882317376E+03  0.00000000000E+00 0. -1.
        -12    1    6    6    0    0 -0.86575901334E+02  0.86818991814E+02  0.31255276798E+03  0.33574120510E+03  0.00000000000E+00 0.  1.
</event>
<event>
12    1  0.8133506E-002  0.2008134E+03  0.7818608E-02  0.1149333E+00
         21   -1    0    0  501  502  0.00000000000E+00  0.00000000000E+00  0.52087803605E+03  0.52087803605E+03  0.00000000000E+00 0. -1.
         21   -1    0    0  502  503 -0.00000000000E+00 -0.00000000000E+00 -0.89644137887E+02  0.89644137887E+02  0.00000000000E+00 0. -1.
         -6    2    1    2    0  503  0.98893220948E+02  0.71091967241E+01  0.10118056230E+03  0.22486337195E+03  0.17462995169E+03 0.  0.
        -24    2    3    3    0    0  0.67722905832E+02 -0.59337761035E+02  0.35618500394E+02  0.12633794020E+03  0.81149465213E+02 0.  0.
          6    2    1    2  501    0 -0.98893220948E+02 -0.71091967241E+01  0.33005333586E+03  0.38565880199E+03  0.17311007252E+03 0.  0.
         24    2    5    5    0    0 -0.38976565407E+02 -0.13498273857E+02  0.60556085983E+02  0.10946741253E+03  0.81330798647E+02 0.  0.
          5    1    5    5  501    0 -0.59916655541E+02  0.63890771334E+01  0.26949724988E+03  0.27619138946E+03  0.47000000000E+01 0. -1.
        -11    1    6    6    0    0  0.23551340324E+02 -0.15977764407E+02  0.21935145668E+02  0.35931952382E+02  0.00000000000E+00 0.  1.
         12    1    6    6    0    0 -0.62527905731E+02  0.24794905497E+01  0.38620940315E+02  0.73535460148E+02  0.00000000000E+00 0. -1.
         -5    1    3    3    0  503  0.31170315116E+02  0.66446957759E+02  0.65562061903E+02  0.98525431747E+02  0.47000000000E+01 0.  1.
         13    1    4    4    0    0  0.13228196332E+02 -0.33965944169E+02  0.52488539653E+02  0.63903969645E+02  0.00000000000E+00 0. -1.
        -14    1    4    4    0    0  0.54494709500E+02 -0.25371816866E+02 -0.16870039259E+02  0.62433970554E+02  0.00000000000E+00 0.  1.
</event>
<event>
12    1  0.8133506E-002  0.1851087E+03  0.7818608E-02  0.1163513E+00
         21   -1    0    0  503  502  0.00000000000E+00  0.00000000000E+00  0.49705989482E+02  0.49705989482E+02  0.00000000000E+00 0.  1.
         21   -1    0    0  501  503 -0.00000000000E+00 -0.00000000000E+00 -0.10495333209E+04  0.10495333209E+04  0.00000000000E+00 0.  1.
          6    2    1    2  501    0 -0.23314779430E+02  0.59313591918E+02 -0.82373016439E+03  0.84374868990E+03  0.17122729586E+03 0.  0.
         24    2    3    3    0    0 -0.80682164112E+02  0.30448766889E+02 -0.55455286849E+03  0.56697675928E+03  0.80604110313E+02 0.  0.
         -6    2    1    2    0  502  0.23314779430E+02 -0.59313591918E+02 -0.17609716706E+03  0.25549062052E+03  0.17379172535E+03 0.  0.
        -24    2    5    5    0    0  0.31143437764E+02  0.40832896775E+02 -0.75124047170E+02  0.11298353989E+03  0.66965802083E+02 0.  0.
          5    1    3    3  501    0  0.57367384682E+02  0.28864825029E+02 -0.26917729590E+03  0.27677193062E+03  0.47000000000E+01 0. -1.
        -11    1    4    4    0    0 -0.75402271471E+02  0.50453176863E+02 -0.50793775531E+03  0.51597653907E+03  0.00000000000E+00 0.  1.
         12    1    4    4    0    0 -0.52798926409E+01 -0.20004409974E+02 -0.46615113182E+02  0.51000220212E+02  0.00000000000E+00 0. -1.
         -5    1    5    5    0  502 -0.78286583346E+01 -0.10014648869E+03 -0.10097311989E+03  0.14250708063E+03  0.47000000000E+01 0.  1.
         13    1    6    6    0    0 -0.44787237791E+01 -0.42535071006E+01 -0.49814272683E+02  0.50195747353E+02  0.00000000000E+00 0. -1.
        -14    1    6    6    0    0  0.35622161544E+02  0.45086403875E+02 -0.25309774487E+02  0.62787792540E+02  0.00000000000E+00 0.  1.
</event>
<event>
12    1  0.8133506E-002  0.2048302E+03  0.7818608E-02  0.1145793E+00
         21   -1    0    0  503  502  0.00000000000E+00  0.00000000000E+00  0.50991932031E+02  0.50991932031E+02  0.00000000000E+00 0.  1.
         21   -1    0    0  501  503 -0.00000000000E+00 -0.00000000000E+00 -0.91085635428E+03  0.91085635428E+03  0.00000000000E+00 0.  1.
          6    2    1    2  501    0  0.10479487323E+03 -0.34056906932E+02 -0.58027101344E+03  0.61525359875E+03  0.17228088509E+03 0.  0.
         24    2    3    3    0    0  0.60384658088E+02  0.42788753000E+02 -0.24761989108E+03  0.27093342527E+03  0.81314981105E+02 0.  0.
         -6    2    1    2    0  502 -0.10479487323E+03  0.34056906932E+02 -0.27959340881E+03  0.34659468757E+03  0.17266605003E+03 0.  0.
        -24    2    5    5    0    0 -0.17424139063E+02  0.52535277496E+02 -0.21594730613E+03  0.23683125215E+03  0.79951528854E+02 0.  0.
          5    1    3    3  501    0  0.44410215146E+02 -0.76845659932E+02 -0.33265112236E+03  0.34432017348E+03  0.47000000000E+01 0. -1.
        -13    1    4    4    0    0  0.72714421857E+02  0.81379705640E+01 -0.16370218625E+03  0.17930984215E+03  0.00000000000E+00 0.  1.
         14    1    4    4    0    0 -0.12329763769E+02  0.34650782436E+02 -0.83917704834E+02  0.91623583113E+02  0.00000000000E+00 0. -1.
         -5    1    5    5    0  502 -0.87370734171E+02 -0.18478370564E+02 -0.63646102686E+02  0.10976343542E+03  0.47000000000E+01 0.  1.
         13    1    6    6    0    0 -0.16458623150E+02  0.69832087124E+02 -0.12394647725E+03  0.14321360233E+03  0.00000000000E+00 0. -1.
        -14    1    6    6    0    0 -0.96551591354E+00 -0.17296809628E+02 -0.92000828871E+02  0.93617649817E+02  0.00000000000E+00 0.  1.
</event>
<event>
12    1  0.8133506E-002  0.2528662E+03  0.7818608E-02  0.1112848E+00
         21   -1    0    0  501  502  0.00000000000E+00  0.00000000000E+00  0.24702869895E+03  0.24702869895E+03  0.00000000000E+00 0. -1.
         21   -1    0    0  502  503 -0.00000000000E+00 -0.00000000000E+00 -0.34150848028E+03  0.34150848028E+03  0.00000000000E+00 0.  1.
         -6    2    1    2    0  503 -0.14568919644E+03 -0.95094746538E+02 -0.19874885604E+03  0.31501685378E+03  0.17165709309E+03 0.  0.
        -24    2    3    3    0    0 -0.48763709105E+02 -0.62926078617E+02 -0.29882621909E+02  0.11761556624E+03  0.81257981971E+02 0.  0.
          6    2    1    2  501    0  0.14568919644E+03  0.95094746538E+02  0.10426907471E+03  0.27352032545E+03  0.18350197741E+03 0.  0.
         24    2    5    5    0    0  0.97032638145E+02  0.11738487498E+03  0.12879044523E+03  0.21446358914E+03  0.78823286814E+02 0.  0.
          5    1    5    5  501    0  0.48656558293E+02 -0.22290128442E+02 -0.24521370521E+02  0.59056736306E+02  0.47000000000E+01 0. -1.
        -11    1    6    6    0    0  0.14467459062E+01 -0.64972285532E+01 -0.52116384977E+01  0.84538883610E+01  0.00000000000E+00 0.  1.
         12    1    6    6    0    0  0.95585892239E+02  0.12388210353E+03  0.13400208373E+03  0.20600970078E+03  0.00000000000E+00 0. -1.
         -5    1    3    3    0  503 -0.96925487332E+02 -0.32168667921E+02 -0.16886623413E+03  0.19740128754E+03  0.47000000000E+01 0.  1.
         11    1    4    4    0    0 -0.70171584735E+02 -0.35709578192E+02 -0.16207750062E+02  0.80386046308E+02  0.00000000000E+00 0. -1.
        -12    1    4    4    0    0  0.21407875630E+02 -0.27216500425E+02 -0.13674871847E+02  0.37229519933E+02  0.00000000000E+00 0.  1.
</event>
<event>
12    1  0.8133506E-002  0.1824858E+03  0.7818608E-02  0.1166080E+00
         21   -1    0    0  503  502  0.00000000000E+00  0.00000000000E+00  0.71617325516E+03  0.71617325516E+03  0.00000000000E+00 0. -1.
         21   -1    0    0  501  503 -0.00000000000E+00 -0.00000000000E+00 -0.46349787494E+02  0.46349787494E+02  0.00000000000E+00 0. -1.
          6    2    1    2  501    0 -0.17967652189E+02  0.53553771185E+02  0.29080378284E+03  0.34186050052E+03  0.17061922157E+03 0.  0.
         24    2    3    3    0    0 -0.75732180359E+02  0.50546282589E+02  0.21054322017E+03  0.24281690596E+03  0.79632357975E+02 0.  0.
         -6    2    1    2    0  502  0.17967652189E+02 -0.53553771185E+02  0.37901968483E+03  0.42066254214E+03  0.17352293778E+03 0.  0.
        -24    2    5    5    0    0  0.39862245528E+02 -0.82271467557E+02  0.17165269799E+03  0.21012219794E+03  0.79555617957E+02 0.  0.
          5    1    3    3  501    0  0.57764528171E+02  0.30074885952E+01  0.80260562669E+02  0.99043594555E+02  0.47000000000E+01 0. -1.
        -11    1    4    4    0    0 -0.75408193807E+02  0.15447352674E+02  0.96185411745E+02  0.12319354622E+03  0.00000000000E+00 0.  1.
         12    1    4    4    0    0 -0.32398655215E+00  0.35098929916E+02  0.11435780842E+03  0.11962335974E+03  0.00000000000E+00 0. -1.
         -5    1    5    5    0  502 -0.21894593339E+02  0.28717696372E+02  0.20736698685E+03  0.21054034420E+03  0.47000000000E+01 0.  1.
         13    1    6    6    0    0 -0.17956245838E+02 -0.38755046749E+02  0.33945505015E+02  0.54558938074E+02  0.00000000000E+00 0. -1.
        -14    1    6    6    0    0  0.57818491366E+02 -0.43516420808E+02  0.13770719297E+03  0.15556325987E+03  0.00000000000E+00 0.  1.
</event>
<event>
12    1  0.8133506E-002  0.1793804E+03  0.7818608E-02  0.1168629E+00
         21   -1    0    0  503  502  0.00000000000E+00  0.00000000000E+00  0.10583320289E+03  0.10583320289E+03  0.00000000000E+00 0.  1.
         21   -1    0    0  501  503 -0.00000000000E+00 -0.00000000000E+00 -0.33534113949E+03  0.33534113949E+03  0.00000000000E+00 0.  1.
          6    2    1    2  501    0 -0.48787743789E+02  0.13267386382E+02 -0.18354510613E+03  0.25599899206E+03  0.17114441406E+03 0.  0.
         24    2    3    3    0    0 -0.25567928347E+02 -0.52973462896E+02 -0.36562362043E+02  0.93047996351E+02  0.62138688236E+02 0.  0.
         -6    2    1    2    0  502  0.48787743789E+02 -0.13267386382E+02 -0.45962830471E+02  0.18517535032E+03  0.17210770203E+03 0.  0.
        -24    2    5    5    0    0  0.31701629270E+02  0.32876142177E+01 -0.96880606942E+02  0.12877753729E+03  0.78625698112E+02 0.  0.
          5    1    3    3  501    0 -0.23219815443E+02  0.66240849278E+02 -0.14698274409E+03  0.16295099571E+03  0.47000000000E+01 0. -1.
        -11    1    4    4    0    0 -0.35756377774E+02 -0.17508584414E+02 -0.39434504404E+02  0.56037034337E+02  0.00000000000E+00 0.  1.
         12    1    4    4    0    0  0.10188449427E+02 -0.35464878482E+02  0.28721423616E+01  0.37010962014E+02  0.00000000000E+00 0. -1.
         -5    1    5    5    0  502  0.17086114519E+02 -0.16555000600E+02  0.50917776471E+02  0.56397813034E+02  0.47000000000E+01 0.  1.
         11    1    6    6    0    0 -0.96969571051E+01 -0.12418854741E+02 -0.79765651865E+02  0.81306937882E+02  0.00000000000E+00 0. -1.
        -12    1    6    6    0    0  0.41398586375E+02  0.15706468959E+02 -0.17114955076E+02  0.47470599409E+02  0.00000000000E+00 0.  1.
</event>
<event>
12    1  0.8133506E-002  0.1855199E+03  0.7818608E-02  0.1163024E+00
         21   -1    0    0  501  502  0.00000000000E+00  0.00000000000E+00  0.26132159975E+03  0.26132159975E+03  0.00000000000E+00 0.  1.
         21   -1    0    0  502  503 -0.00000000000E+00 -0.00000000000E+00 -0.16369018905E+03  0.16369018905E+03  0.00000000000E+00 0.  1.
         -6    2    1    2    0  503 -0.60396178281E+02 -0.36551192683E+02  0.14455856135E+03  0.23364884980E+03  0.16944296774E+03 0.  0.
        -24    2    3    3    0    0 -0.43611754925E+02 -0.76005556229E+02  0.41605589376E+02  0.12202551842E+03  0.74029536894E+02 0.  0.
          6    2    1    2  501    0  0.60396178281E+02  0.36551192683E+02 -0.46927150650E+02  0.19136293900E+03  0.17156319220E+03 0.  0.
         24    2    5    5    0    0 -0.19458869399E+02  0.10903282193E+02 -0.65613687370E+02  0.10530528038E+03  0.79287558574E+02 0.  0.
          5    1    5    5  501    0  0.79855047680E+02  0.25647910490E+02  0.18686536719E+02  0.86057658619E+02  0.47000000000E+01 0. -1.
        -13    1    6    6    0    0  0.15111192889E+02  0.36237330967E+02 -0.27329259375E+02  0.47837022525E+02  0.00000000000E+00 0.  1.
         14    1    6    6    0    0 -0.34570062287E+02 -0.25334048774E+02 -0.38284427995E+02  0.57468257854E+02  0.00000000000E+00 0. -1.
         -5    1    3    3    0  503 -0.16784423356E+02  0.39454363546E+02  0.10295297197E+03  0.11162333138E+03  0.47000000000E+01 0.  1.
         11    1    4    4    0    0 -0.31211361789E+02  0.59878155098E+01  0.12142580415E+02  0.34021247749E+02  0.00000000000E+00 0. -1.
        -12    1    4    4    0    0 -0.12400393136E+02 -0.81993371739E+02  0.29463008961E+02  0.88004270669E+02  0.00000000000E+00 0.  1.
</event>
<event>
12    1  0.8133506E-002  0.1770401E+03  0.7818608E-02  0.1170984E+00
         21   -1    0    0  503  502  0.00000000000E+00  0.00000000000E+00  0.66409388665E+03  0.66409388665E+03  0.00000000000E+00 0.  1.
         21   -1    0    0  501  503 -0.00000000000E+00 -0.00000000000E+00 -0.80805495891E+02  0.80805495891E+02  0.00000000000E+00 0.  1.
          6    2    1    2  501    0 -0.40599941289E+02  0.90723354740E+01  0.50905298009E+02  0.18421335452E+03  0.17208296869E+03 0.  0.
         24    2    3    3    0    0 -0.90633635751E+02  0.27028546080E+02  0.34271926746E+02  0.12831563434E+03  0.79657635050E+02 0.  0.
         -6    2    1    2    0  502  0.40599941289E+02 -0.90723354740E+01  0.53238309275E+03  0.56068602803E+03  0.17089880652E+03 0.  0.
        -24    2    5    5    0    0  0.53220822668E+02 -0.67307039664E+02  0.33609119239E+03  0.35549546399E+03  0.77826998953E+02 0.  0.
          5    1    3    3  501    0  0.50033694463E+02 -0.17956210606E+02  0.16633371263E+02  0.55897720172E+02  0.47000000000E+01 0. -1.
        -13    1    4    4    0    0 -0.17990693421E+02  0.17295611034E+02 -0.24043919829E+02  0.34654195872E+02  0.00000000000E+00 0.  1.
         14    1    4    4    0    0 -0.72642942330E+02  0.97329350454E+01  0.58315846575E+02  0.93661438472E+02  0.00000000000E+00 0. -1.
         -5    1    5    5    0  502 -0.12620881379E+02  0.58234704190E+02  0.19629190037E+03  0.20519056403E+03  0.47000000000E+01 0.  1.
         13    1    6    6    0    0  0.32773121244E+02  0.36227515449E+01  0.48964861561E+02  0.59031851339E+02  0.00000000000E+00 0. -1.
        -14    1    6    6    0    0  0.20447701424E+02 -0.70929791209E+02  0.28712633083E+03  0.29646361265E+03  0.00000000000E+00 0.  1.
</event>
<event>
12    1  0.8133506E-002  0.1822871E+03  0.7818608E-02  0.1165796E+00
         21   -1    0    0  503  502  0.00000000000E+00  0.00000000000E+00  0.15698856167E+03  0.15698856167E+03  0.00000000000E+00 0. -1.
         21   -1    0    0  501  503 -0.00000000000E+00 -0.00000000000E+00 -0.23667632075E+03  0.23667632075E+03  0.00000000000E+00 0. -1.
          6    2    1    2  501    0  0.31567253158E+02  0.51183332581E+02 -0.10491900521E+03  0.20963992484E+03  0.17124449021E+03 0.  0.
         24    2    3    3    0    0  0.58168852160E+02 -0.16532256477E+02 -0.89761699471E+02  0.13517597391E+03  0.80984259988E+02 0.  0.
         -6    2    1    2    0  502 -0.31567253158E+02 -0.51183332581E+02  0.25231246124E+02  0.18402495757E+03  0.17208237627E+03 0.  0.
        -24    2    5    5    0    0 -0.36392085983E+01 -0.89478629831E+02  0.50770863779E+02  0.12997990660E+03  0.79356326000E+02 0.  0.
          5    1    3    3  501    0 -0.26601599002E+02  0.67715589058E+02 -0.15157305741E+02  0.74463950931E+02  0.47000000000E+01 0. -1.
        -11    1    4    4    0    0 -0.41099103272E+01 -0.10130549574E+02 -0.68032705033E+02  0.68905503058E+02  0.00000000000E+00 0.  1.
         12    1    4    4    0    0  0.62278762487E+02 -0.64017069036E+01 -0.21728994438E+02  0.66270470856E+02  0.00000000000E+00 0. -1.
         -5    1    5    5    0  502 -0.27928044559E+02  0.38295297250E+02 -0.25539617655E+02  0.54045050969E+02  0.47000000000E+01 0.  1.
         11    1    6    6    0    0  0.16230583460E+02 -0.60564547581E+02 -0.62691517752E+01  0.63014272408E+02  0.00000000000E+00 0. -1.
        -12    1    6    6    0    0 -0.19869792058E+02 -0.28914082250E+02  0.57040015554E+02  0.66965634195E+02  0.00000000000E+00 0.  1.
</event>
<event>
12    1  0.8133506E-002  0.1854649E+03  0.7818608E-02  0.1163361E+00
         21   -1    0    0  501  502  0.00000000000E+00  0.00000000000E+00  0.15369822693E+03  0.15369822693E+03  0.00000000000E+00 0. -1.
         21   -1    0    0  502  503 -0.00000000000E+00 -0.00000000000E+00 -0.27905324998E+03  0.27905324998E+03  0.00000000000E+00 0. -1.
         -6    2    1    2    0  503  0.30239578919E+02 -0.46616812302E+02  0.37293568344E+02  0.18606989241E+03  0.17361922503E+03 0.  0.
        -24    2    3    3    0    0 -0.18291848129E+02 -0.83106028881E+02  0.38620989499E+02  0.12515507989E+03  0.83252684322E+02 0.  0.
          6    2    1    2  501    0 -0.30239578919E+02  0.46616812302E+02 -0.16264859140E+03  0.24668158450E+03  0.17694541679E+03 0.  0.
         24    2    5    5    0    0  0.16319849004E+02  0.66987200705E+02 -0.39016892097E+02  0.11292949994E+03  0.80480628459E+02 0.  0.
          5    1    5    5  501    0 -0.46559427923E+02 -0.20370388404E+02 -0.12363169930E+03  0.13375208456E+03  0.47000000000E+01 0. -1.
        -11    1    6    6    0    0 -0.11388412559E+02 -0.76531219213E+01  0.12117521357E+02  0.18305751544E+02  0.00000000000E+00 0.  1.
         12    1    6    6    0    0  0.27708261563E+02  0.74640322627E+02 -0.51134413453E+02  0.94623748393E+02  0.00000000000E+00 0. -1.
         -5    1    3    3    0  503  0.48531427048E+02  0.36489216580E+02 -0.13274211545E+01  0.60914812524E+02  0.47000000000E+01 0.  1.
         13    1    4    4    0    0 -0.37967614137E+02 -0.58804703200E+01  0.20006941178E+02  0.43317402389E+02  0.00000000000E+00 0. -1.
        -14    1    4    4    0    0  0.19675766007E+02 -0.77225558562E+02  0.18614048321E+02  0.81837677497E+02  0.00000000000E+00 0.  1.
</event>
<event>
12    1  0.8133506E-002  0.2092083E+03  0.7818608E-02  0.1142664E+00
         21   -1    0    0  503  502  0.00000000000E+00  0.00000000000E+00  0.84514240881E+02  0.84514240881E+02  0.00000000000E+00 0. -1.
         21   -1    0    0  501  503 -0.00000000000E+00 -0.00000000000E+00 -0.60442028814E+03  0.60442028814E+03  0.00000000000E+00 0.  1.
          6    2    1    2  501    0 -0.10039225136E+03 -0.53524728643E+02 -0.39583296294E+03  0.44771851023E+03  0.17556944251E+03 0.  0.
         24    2    3    3    0    0 -0.38846205031E+01  0.26399389926E+02 -0.17834930594E+03  0.19667505063E+03  0.78489378570E+02 0.  0.
         -6    2    1    2    0  502  0.10039225136E+03  0.53524728643E+02 -0.12407308432E+03  0.24121601880E+03  0.17276439668E+03 0.  0.
        -24    2    5    5    0    0  0.31878418908E+02  0.68399650084E+01  0.65509835153E+01  0.86431169756E+02  0.79777271243E+02 0.  0.
          5    1    3    3  501    0 -0.96507630861E+02 -0.79924118569E+02 -0.21748365700E+03  0.25104345959E+03  0.47000000000E+01 0. -1.
        -13    1    4    4    0    0  0.90025182178E+01 -0.26344624129E+02 -0.48346582903E+02  0.55789574592E+02  0.00000000000E+00 0.  1.
         14    1    4    4    0    0 -0.12887138721E+02  0.52744014055E+02 -0.13000272304E+03  0.14088547604E+03  0.00000000000E+00 0. -1.
         -5    1    5    5    0  502  0.68513832455E+02  0.46684763634E+02 -0.13062406784E+03  0.15478484904E+03  0.47000000000E+01 0.  1.
         13    1    6    6    0    0  0.19311189696E+02  0.38110148144E+02 -0.16284865617E+02  0.45722010971E+02  0.00000000000E+00 0. -1.
        -14    1    6    6    0    0  0.12567229212E+02 -0.31270183136E+02  0.22835849132E+02  0.40709158786E+02  0.00000000000E+00 0.  1.
</event>
<event>
12    1  0.8133506E-002  0.2549624E+03  0.7818608E-02  0.1112313E+00
         21   -1    0    0  503  502  0.00000000000E+00  0.00000000000E+00  0.40309490626E+03  0.40309490626E+03  0.00000000000E+00 0.  1.
         21   -1    0    0  501  503 -0.00000000000E+00 -0.00000000000E+00 -0.43005848106E+03  0.43005848106E+03  0.00000000000E+00 0.  1.
          6    2    1    2  501    0 -0.85250964990E+02  0.16201049482E+03 -0.34794240779E+03  0.43135802418E+03  0.17745618734E+03 0.  0.
         24    2    3    3    0    0 -0.45784807480E+02  0.16671627255E+03 -0.34125102075E+03  0.39077987005E+03  0.79787740543E+02 0.  0.
         -6    2    1    2    0  502  0.85250964990E+02 -0.16201049482E+03  0.32097883299E+03  0.40179536314E+03  0.15778775348E+03 0.  0.
        -24    2    5    5    0    0  0.32996758418E+02 -0.79993634391E+02  0.26358518285E+03  0.28877594633E+03  0.80166270670E+02 0.  0.
          5    1    3    3  501    0 -0.39466157510E+02 -0.47057777267E+01 -0.66913870358E+01  0.40578154136E+02  0.47000000000E+01 0. -1.
        -13    1    4    4    0    0 -0.31351760085E+01  0.10543052062E+03 -0.13428083776E+03  0.17075352821E+03  0.00000000000E+00 0.  1.
         14    1    4    4    0    0 -0.42649631472E+02  0.61285751929E+02 -0.20697018300E+03  0.22002634184E+03  0.00000000000E+00 0. -1.
         -5    1    5    5    0  502  0.52254206572E+02 -0.82016860428E+02  0.57393650140E+02  0.11301941681E+03  0.47000000000E+01 0.  1.
         11    1    6    6    0    0 -0.23167432500E+02 -0.41609092205E+02  0.81451131549E+02  0.94352177047E+02  0.00000000000E+00 0. -1.
        -12    1    6    6    0    0  0.56164190918E+02 -0.38384542186E+02  0.18213405130E+03  0.19442376928E+03  0.00000000000E+00 0.  1.
</event>
<event>
12    1  0.8133506E-002  0.2414034E+03  0.7818608E-02  0.1120726E+00
         21   -1    0    0  503  502  0.00000000000E+00  0.00000000000E+00  0.13219694906E+04  0.13219694906E+04  0.00000000000E+00 0.  1.
         21   -1    0    0  501  503 -0.00000000000E+00 -0.00000000000E+00 -0.42377581222E+02  0.42377581222E+02  0.00000000000E+00 0.  1.
          6    2    1    2  501    0  0.64011985394E+02  0.14584404958E+03  0.71023061421E+03  0.75013541568E+03  0.18140450774E+03 0.  0.
         24    2    3    3    0    0  0.58695851558E+02  0.17239513296E+03  0.50005718614E+03  0.53817272752E+03  0.80046301456E+02 0.  0.
         -6    2    1    2    0  502 -0.64011985394E+02 -0.14584404958E+03  0.56936129518E+03  0.61421165615E+03  0.16648018810E+03 0.  0.
        -24    2    5    5    0    0 -0.89491188702E+02 -0.15602360339E+03  0.53452944280E+03  0.56962285647E+03  0.79977720119E+02 0.  0.
          5    1    3    3  501    0  0.53161338356E+01 -0.26551083378E+02  0.21017342806E+03  0.21196268816E+03  0.47000000000E+01 0. -1.
        -11    1    4    4    0    0  0.34641450060E+02  0.10602824968E+03  0.40304624443E+03  0.41819647888E+03  0.00000000000E+00 0.  1.
         12    1    4    4    0    0  0.24054401499E+02  0.66366883280E+02  0.97010941709E+02  0.11997624865E+03  0.00000000000E+00 0. -1.
         -5    1    5    5    0  502  0.25479203308E+02  0.10179553812E+02  0.34831852374E+02  0.44588799679E+02  0.47000000000E+01 0.  1.
         13    1    6    6    0    0  0.52854143051E+01 -0.22227623796E+02  0.22841888120E+02  0.32307192958E+02  0.00000000000E+00 0. -1.
        -14    1    6    6    0    0 -0.94776603007E+02 -0.13379597960E+03  0.51168755468E+03  0.53731566351E+03  0.00000000000E+00 0.  1.
</event>
<event>
12    1  0.8133506E-002  0.2170571E+03  0.7818608E-02  0.1136286E+00
         21   -1    0    0  503  502  0.00000000000E+00  0.00000000000E+00  0.14593958899E+04  0.14593958899E+04  0.00000000000E+00 0. -1.
         21   -1    0    0  501  503 -0.00000000000E+00 -0.00000000000E+00 -0.10805076594E+03  0.10805076594E+03  0.00000000000E+00 0. -1.
          6    2    1    2  501    0 -0.62525747030E+02 -0.11227754722E+03  0.18283808784E+02  0.21682966810E+03  0.17368100257E+03 0.  0.
         24    2    3    3    0    0 -0.69512296924E+02 -0.62863663704E+02  0.72377421411E+02  0.14308176853E+03  0.80312525292E+02 0.  0.
         -6    2    1    2    0  502  0.62525747030E+02  0.11227754722E+03  0.13330613151E+04  0.13506169877E+04  0.17492301424E+03 0.  0.
        -24    2    5    5    0    0  0.54179679563E+02  0.82489151254E+02  0.47444339050E+03  0.49142909447E+03  0.81646349263E+02 0.  0.
          5    1    3    3  501    0  0.69865498940E+01 -0.49413883514E+02 -0.54093612626E+02  0.73747899565E+02  0.47000000000E+01 0. -1.
        -13    1    4    4    0    0 -0.51001865820E+02 -0.74246445848E+00  0.56945949848E+02  0.76449870992E+02  0.00000000000E+00 0.  1.
         14    1    4    4    0    0 -0.18510431103E+02 -0.62121199246E+02  0.15431471562E+02  0.66631897541E+02  0.00000000000E+00 0. -1.
         -5    1    5    5    0  502  0.83460674663E+01  0.29788395965E+02  0.85861792465E+03  0.85918789325E+03  0.47000000000E+01 0.  1.
         11    1    6    6    0    0  0.63858692185E+02  0.23190394708E+02  0.24404977760E+03  0.25332986583E+03  0.00000000000E+00 0. -1.
        -12    1    6    6    0    0 -0.96790126219E+01  0.59298756545E+02  0.23039361290E+03  0.23809922864E+03  0.00000000000E+00 0.  1.
</event>
<event>
12    1  0.8133506E-002  0.3962068E+03  0.7818608E-02  0.1045117E+00
         21   -1    0    0  501  502  0.00000000000E+00  0.00000000000E+00  0.11686403687E+04  0.11686403687E+04  0.00000000000E+00 0. -1.
         21   -1    0    0  502  503 -0.00000000000E+00 -0.00000000000E+00 -0.17028611050E+03  0.17028611050E+03  0.00000000000E+00 0.  1.
         -6    2    1    2    0  503  0.27306310484E+03  0.23074261065E+03  0.19118537733E+03  0.43975941585E+03  0.17038451728E+03 0.  0.
        -24    2    3    3    0    0  0.25403924935E+03  0.13367110487E+03  0.14439552666E+03  0.33023241261E+03  0.76154275867E+02 0.  0.
          6    2    1    2  501    0 -0.27306310484E+03 -0.23074261065E+03  0.80716888089E+03  0.89916706338E+03  0.17080454910E+03 0.  0.
         24    2    5    5    0    0 -0.27247897906E+03 -0.16305779943E+03  0.64569516802E+03  0.72401734222E+03  0.80288366841E+02 0.  0.
          5    1    5    5  501    0 -0.58412577746E+00 -0.67684811215E+02  0.16147371287E+03  0.17514972116E+03  0.47000000000E+01 0. -1.
        -11    1    6    6    0    0 -0.69736942945E+02 -0.81725249460E+01  0.10732995061E+03  0.12825657751E+03  0.00000000000E+00 0.  1.
         12    1    6    6    0    0 -0.20274203611E+03 -0.15488527449E+03  0.53836521741E+03  0.59576076472E+03  0.00000000000E+00 0. -1.
         -5    1    3    3    0  503  0.19023855491E+02  0.97071505782E+02  0.46789850672E+02  0.10952700324E+03  0.47000000000E+01 0.  1.
         13    1    4    4    0    0  0.43521236652E+02  0.46132522187E+02  0.59450524438E+02  0.86929123422E+02  0.00000000000E+00 0. -1.
        -14    1    4    4    0    0  0.21051801269E+03  0.87538582681E+02  0.84945002225E+02  0.24330328919E+03  0.00000000000E+00 0.  1.
</event>
<event>
12    1  0.8133506E-002  0.3272746E+03  0.7818608E-02  0.1072374E+00
         21   -1    0    0  501  502  0.00000000000E+00  0.00000000000E+00  0.19453184278E+03  0.19453184278E+03  0.00000000000E+00 0.  1.
         21   -1    0    0  502  503 -0.00000000000E+00 -0.00000000000E+00 -0.64176904074E+03  0.64176904074E+03  0.00000000000E+00 0. -1.
         -6    2    1    2    0  503 -0.22335243980E+03  0.16685221511E+03 -0.38161377023E+03  0.50273029855E+03  0.17141385416E+03 0.  0.
        -24    2    3    3    0    0 -0.79364677672E+02  0.13404098120E+03 -0.25167999912E+03  0.30597174705E+03  0.77525165790E+02 0.  0.
          6    2    1    2  501    0  0.22335243980E+03 -0.16685221511E+03 -0.65623427738E+02  0.33357058497E+03  0.17098808975E+03 0.  0.
         24    2    5    5    0    0  0.32552938312E+02 -0.41573152820E+02  0.17311971169E+01  0.95541114722E+02  0.79605820960E+02 0.  0.
          5    1    5    5  501    0  0.19079950149E+03 -0.12527906229E+03 -0.67354624855E+02  0.23802947025E+03  0.47000000000E+01 0. -1.
        -13    1    6    6    0    0  0.41913987009E+02 -0.60010718109E+02 -0.60482747744E+01  0.73448282640E+02  0.00000000000E+00 0.  1.
         14    1    6    6    0    0 -0.93610486975E+01  0.18437565289E+02  0.77794718914E+01  0.22092832082E+02  0.00000000000E+00 0. -1.
         -5    1    3    3    0  503 -0.14398776213E+03  0.32811233904E+02 -0.12993377111E+03  0.19675855150E+03  0.47000000000E+01 0.  1.
         13    1    4    4    0    0 -0.63268483311E+02  0.45824354924E+02 -0.77377004143E+02  0.10995441444E+03  0.00000000000E+00 0. -1.
        -14    1    4    4    0    0 -0.16096194361E+02  0.88216626280E+02 -0.17430299498E+03  0.19601733261E+03  0.00000000000E+00 0.  1.
</event>
<event>
12    1  0.8133506E-002  0.1887445E+03  0.7818608E-02  0.1159965E+00
         21   -1    0    0  503  502  0.00000000000E+00  0.00000000000E+00  0.30643182037E+03  0.30643182037E+03  0.00000000000E+00 0.  1.
         21   -1    0    0  501  503 -0.00000000000E+00 -0.00000000000E+00 -0.11683220977E+03  0.11683220977E+03  0.00000000000E+00 0.  1.
          6    2    1    2  501    0  0.72549671022E+02  0.20820524247E+02  0.69923796245E+02  0.19977621849E+03  0.17124325154E+03 0.  0.
         24    2    3    3    0    0  0.11621010557E+03  0.16369339829E+02  0.61853672937E+02  0.15490681379E+03  0.79984374604E+02 0.  0.
         -6    2    1    2    0  502 -0.72549671022E+02 -0.20820524247E+02  0.11967581435E+03  0.22348781165E+03  0.17299581620E+03 0.  0.
        -24    2    5    5    0    0 -0.11665609883E+03 -0.12724351633E+02  0.99139983983E+02  0.17394252617E+03  0.81588672412E+02 0.  0.
          5    1    3    3  501    0 -0.43660434548E+02  0.44511844176E+01  0.80701233080E+01  0.44869404697E+02  0.47000000000E+01 0. -1.
        -13    1    4    4    0    0  0.23476310511E+02 -0.28141121042E+02  0.29591801840E+02  0.47103445573E+02  0.00000000000E+00 0.  1.
         14    1    4    4    0    0  0.92733795059E+02  0.44510460871E+02  0.32261871097E+02  0.10780336822E+03  0.00000000000E+00 0. -1.
         -5    1    5    5    0  502  0.44106427810E+02 -0.80961726133E+01  0.20535830366E+02  0.49545285487E+02  0.47000000000E+01 0.  1.
         13    1    6    6    0    0 -0.28612977781E+01 -0.19228240445E+02 -0.44263430989E+01  0.19937521632E+02  0.00000000000E+00 0. -1.
        -14    1    6    6    0    0 -0.11379480105E+03  0.65038888121E+01  0.10356632708E+03  0.15400500454E+03  0.00000000000E+00 0.  1.
</event>
<event>
12    1  0.8133506E-002  0.2136308E+03  0.7818608E-02  0.1142258E+00
         21   -1    0    0  501  502  0.00000000000E+00  0.00000000000E+00  0.65079217671E+03  0.65079217671E+03  0.00000000000E+00 0. -1.
         21   -1    0    0  502  503 -0.00000000000E+00 -0.00000000000E+00 -0.65324497989E+02  0.65324497989E+02  0.00000000000E+00 0. -1.
         -6    2    1    2    0  503 -0.15828868593E+02  0.94152721828E+02  0.34483505602E+03  0.40564680969E+03  0.19110947189E+03 0.  0.
        -24    2    3    3    0    0 -0.31467014238E+02 -0.92735348404E+01  0.69585588312E+02  0.11115419240E+03  0.80230473973E+02 0.  0.
          6    2    1    2  501    0  0.15828868593E+02 -0.94152721828E+02  0.24063262270E+03  0.31046986500E+03  0.17138316679E+03 0.  0.
         24    2    5    5    0    0  0.27418499912E+02  0.13808126098E+02  0.12512354997E+03  0.15186879274E+03  0.80410129761E+02 0.  0.
          5    1    5    5  501    0 -0.11589631319E+02 -0.10796084793E+03  0.11550907273E+03  0.15860107226E+03  0.47000000000E+01 0. -1.
        -11    1    6    6    0    0 -0.28740511119E+02  0.55163148811E+01  0.44720642567E+02  0.53445136176E+02  0.00000000000E+00 0.  1.
         12    1    6    6    0    0  0.56159011030E+02  0.82918112167E+01  0.80402907402E+02  0.98423656566E+02  0.00000000000E+00 0. -1.
         -5    1    3    3    0  503  0.15638145645E+02  0.10342625667E+03  0.27524946771E+03  0.29449261729E+03  0.47000000000E+01 0.  1.
         11    1    4    4    0    0 -0.10364225855E+02  0.27007816347E+02  0.62116997451E+02  0.68522702032E+02  0.00000000000E+00 0. -1.
        -12    1    4    4    0    0 -0.21102788383E+02 -0.36281351188E+02  0.74685908606E+01  0.42631490368E+02  0.00000000000E+00 0.  1.
</event>
<event>
12    1  0.8133506E-002  0.2482186E+03  0.7818608E-02  0.1114549E+00
         21   -1    0    0  501  502  0.00000000000E+00  0.00000000000E+00  0.57635465105E+03  0.57635465105E+03  0.00000000000E+00 0. -1.
         21   -1    0    0  502  503 -0.00000000000E+00 -0.00000000000E+00 -0.30361286862E+03  0.30361286862E+03  0.00000000000E+00 0.  1.
         -6    2    1    2    0  503  0.11684531829E+03 -0.13535532844E+03 -0.21812490165E+03  0.32991061387E+03  0.17113926225E+03 0.  0.
        -24    2    3    3    0    0  0.55125776652E+02 -0.93964338716E+02 -0.46716666216E+02  0.14302725714E+03  0.80038747997E+02 0.  0.
          6    2    1    2  501    0 -0.11684531829E+03  0.13535532844E+03  0.49086668407E+03  0.55005690579E+03  0.17215866152E+03 0.  0.
         24    2    5    5    0    0 -0.10216941314E+03  0.13534939063E+03  0.26597645115E+03  0.32463931754E+03  0.76740910900E+02 0.  0.
          5    1    5    5  501    0 -0.14675905156E+02  0.59378060082E-02  0.22489023292E+03  0.22541758825E+03  0.47000000000E+01 0. -1.
        -13    1    6    6    0    0 -0.16500816179E+02  0.27716779780E+02  0.95449364763E+01  0.33639301840E+02  0.00000000000E+00 0.  1.
         14    1    6    6    0    0 -0.85668596957E+02  0.10763261085E+03  0.25643151467E+03  0.29100001570E+03  0.00000000000E+00 0. -1.
         -5    1    3    3    0  503  0.61719541639E+02 -0.41390989720E+02 -0.17140823543E+03  0.18688335673E+03  0.47000000000E+01 0.  1.
         13    1    4    4    0    0  0.21396227225E+02 -0.29550830924E+02  0.22314925604E+02  0.42766880322E+02  0.00000000000E+00 0. -1.
        -14    1    4    4    0    0  0.33729549428E+02 -0.64413507792E+02 -0.69031591820E+02  0.10026037682E+03  0.00000000000E+00 0.  1.
</event>
<event>
12    1  0.8133506E-002  0.2299607E+03  0.7818608E-02  0.1127216E+00
         21   -1    0    0  503  502  0.00000000000E+00  0.00000000000E+00  0.40855530462E+03  0.40855530462E+03  0.00000000000E+00 0. -1.
         21   -1    0    0  501  503 -0.00000000000E+00 -0.00000000000E+00 -0.39160015373E+03  0.39160015373E+03  0.00000000000E+00 0. -1.
          6    2    1    2  501    0  0.12218101879E+03 -0.90215800332E+02 -0.31996820658E+03  0.39223477543E+03  0.16852707156E+03 0.  0.
         24    2    3    3    0    0  0.56370058428E+01 -0.16000444815E+01 -0.13403221548E+03  0.15552917362E+03  0.78678796911E+02 0.  0.
         -6    2    1    2    0  502 -0.12218101879E+03  0.90215800332E+02  0.33692335747E+03  0.40792068292E+03  0.17266975058E+03 0.  0.
        -24    2    5    5    0    0 -0.11424473601E+03  0.96386520293E+02  0.16720625525E+03  0.23784115107E+03  0.79172345852E+02 0.  0.
          5    1    3    3  501    0  0.11654401295E+03 -0.88615755850E+02 -0.18593599110E+03  0.23670560181E+03  0.47000000000E+01 0. -1.
        -13    1    4    4    0    0 -0.30080670972E+01  0.31029935967E+02 -0.10936327725E+03  0.11371997100E+03  0.00000000000E+00 0.  1.
         14    1    4    4    0    0  0.86450729400E+01 -0.32629980449E+02 -0.24668938230E+02  0.41809202619E+02  0.00000000000E+00 0. -1.
         -5    1    5    5    0  502 -0.79362827802E+01 -0.61707199614E+01  0.16971710222E+03  0.17007953185E+03  0.47000000000E+01 0.  1.
         11    1    6    6    0    0 -0.94617137564E+01  0.37475567520E+02  0.81522182187E+02  0.90220886588E+02  0.00000000000E+00 0. -1.
        -12    1    6    6    0    0 -0.10478302226E+03  0.58910952773E+02  0.85684073065E+02  0.14762026449E+03  0.00000000000E+00 0.  1.
</event>
<event>
12    1  0.8133506E-002  0.2192629E+03  0.7818608E-02  0.1134565E+00
         21   -1    0    0  501  502  0.00000000000E+00  0.00000000000E+00  0.25868494492E+02  0.25868494492E+02  0.00000000000E+00 0. -1.
         21   -1    0    0  502  503 -0.00000000000E+00 -0.00000000000E+00 -0.21054964328E+04  0.21054964328E+04  0.00000000000E+00 0. -1.
         -6    2    1    2    0  503  0.13153479120E+03 -0.28755505181E+02 -0.14106374125E+04  0.14275763159E+04  0.17305475348E+03 0.  0.
        -24    2    3    3    0    0  0.15030937316E+03 -0.55657091797E+02 -0.10296639756E+04  0.10451641954E+04  0.80434277992E+02 0.  0.
          6    2    1    2  501    0 -0.13153479120E+03  0.28755505181E+02 -0.66899052583E+03  0.70378861145E+03  0.17216795747E+03 0.  0.
         24    2    5    5    0    0 -0.83435106990E+02  0.20942476760E+02 -0.63092325023E+03  0.64177385106E+03  0.80059501696E+02 0.  0.
          5    1    5    5  501    0 -0.48099684212E+02  0.78130284208E+01 -0.38067275600E+02  0.62014760388E+02  0.47000000000E+01 0. -1.
        -13    1    6    6    0    0 -0.45679642743E+02 -0.81320791323E+01 -0.12038832151E+03  0.12901979859E+03  0.00000000000E+00 0.  1.
         14    1    6    6    0    0 -0.37755464247E+02  0.29074555893E+02 -0.51053492872E+03  0.51275405247E+03  0.00000000000E+00 0. -1.
         -5    1    3    3    0  503 -0.18774581962E+02  0.26901586616E+02 -0.38097343686E+03  0.38241212048E+03  0.47000000000E+01 0.  1.
         13    1    4    4    0    0  0.78136771807E+02 -0.45163654102E+02 -0.77579888922E+03  0.78103074669E+03  0.00000000000E+00 0. -1.
        -14    1    4    4    0    0  0.72172601357E+02 -0.10493437695E+02 -0.25386508640E+03  0.26413344868E+03  0.00000000000E+00 0.  1.
</event>
<event>
12    1  0.8133506E-002  0.1806034E+03  0.7818608E-02  0.1167612E+00
         21   -1    0    0  503  502  0.00000000000E+00  0.00000000000E+00  0.13433598187E+04  0.13433598187E+04  0.00000000000E+00 0.  1.
         21   -1    0    0  501  503 -0.00000000000E+00 -0.00000000000E+00 -0.13128184452E+03  0.13128184452E+03  0.00000000000E+00 0.  1.
          6    2    1    2  501    0 -0.53788750327E+01  0.51153344722E+02 -0.60788357041E+02  0.18902652657E+03  0.17143572097E+03 0.  0.
         24    2    3    3    0    0 -0.54052140967E+02  0.76796943097E+02 -0.44128169292E+02  0.13135215783E+03  0.80539987761E+02 0.  0.
         -6    2    1    2    0  502  0.53788750327E+01 -0.51153344722E+02  0.12728663312E+04  0.12856151366E+04  0.17312419080E+03 0.  0.
        -24    2    5    5    0    0  0.75155167530E+01  0.20419880707E+02  0.32181900412E+03  0.33186443535E+03  0.78058167518E+02 0.  0.
          5    1    3    3  501    0  0.48673265934E+02 -0.25643598375E+02 -0.16660187749E+02  0.57674368745E+02  0.47000000000E+01 0. -1.
        -11    1    4    4    0    0  0.15530687514E+02  0.19235854566E+02 -0.31691992589E+02  0.40194561197E+02  0.00000000000E+00 0.  1.
         12    1    4    4    0    0 -0.69582828481E+02  0.57561088531E+02 -0.12436176703E+02  0.91157596630E+02  0.00000000000E+00 0. -1.
         -5    1    5    5    0  502 -0.21366417203E+01 -0.71573225429E+02  0.95104732708E+03  0.95375070127E+03  0.47000000000E+01 0.  1.
         11    1    6    6    0    0  0.22610822331E+02  0.28477865581E+02  0.65030161953E+02  0.74506107657E+02  0.00000000000E+00 0. -1.
        -12    1    6    6    0    0 -0.15095305578E+02 -0.80579848744E+01  0.25678884217E+03  0.25735832770E+03  0.00000000000E+00 0.  1.
</event>
<event>
12    1  0.8133506E-002  0.3545025E+03  0.7818608E-02  0.1060813E+00
         21   -1    0    0  501  502  0.00000000000E+00  0.00000000000E+00  0.21759938716E+03  0.21759938716E+03  0.00000000000E+00 0. -1.
         21   -1    0    0  502  503 -0.00000000000E+00 -0.00000000000E+00 -0.12300061709E+04  0.12300061709E+04  0.00000000000E+00 0.  1.
         -6    2    1    2    0  503 -0.30699821508E+03 -0.41152265946E+02 -0.10334673270E+04  0.10924780236E+04  0.17179086996E+03 0.  0.
        -24    2    3    3    0    0 -0.14055854741E+03 -0.82182177612E+02 -0.48469044677E+03  0.51753126876E+03  0.80019806176E+02 0.  0.
          6    2    1    2  501    0  0.30699821508E+03  0.41152265946E+02  0.21060543263E+02  0.35512753446E+03  0.17242565411E+03 0.  0.
         24    2    5    5    0    0  0.80034640064E+02  0.51000229472E+02 -0.14845616694E+02  0.12508234522E+03  0.80116376197E+02 0.  0.
          5    1    5    5  501    0  0.22696357502E+03 -0.98479635262E+01  0.35906159957E+02  0.23004518924E+03  0.47000000000E+01 0. -1.
        -13    1    6    6    0    0 -0.32384687994E+00 -0.45674966096E+00 -0.28660316490E+02  0.28665785152E+02  0.00000000000E+00 0.  1.
         14    1    6    6    0    0  0.80358486944E+02  0.51456979133E+02  0.13814699796E+02  0.96416560071E+02  0.00000000000E+00 0. -1.
         -5    1    3    3    0  503 -0.16643966767E+03  0.41029911666E+02 -0.54877688020E+03  0.57494675481E+03  0.47000000000E+01 0.  1.
         13    1    4    4    0    0 -0.14688429595E+03 -0.62487246902E+02 -0.44519907768E+03  0.47295017834E+03  0.00000000000E+00 0. -1.
        -14    1    4    4    0    0  0.63257485358E+01 -0.19694930710E+02 -0.39491369089E+02  0.44581090416E+02  0.00000000000E+00 0.  1.
</event>
<event>
12    1  0.8133506E-002  0.2916190E+03  0.7818608E-02  0.1089559E+00
         21   -1    0    0  501  502  0.00000000000E+00  0.00000000000E+00  0.37099967052E+03  0.37099967052E+03  0.00000000000E+00 0.  1.
         21   -1    0    0  502  503 -0.00000000000E+00 -0.00000000000E+00 -0.30731817822E+03  0.30731817822E+03  0.00000000000E+00 0.  1.
         -6    2    1    2    0  503  0.14653410311E+03 -0.18429550841E+03  0.20313816789E+03  0.35506905222E+03  0.17138214257E+03 0.  0.
        -24    2    3    3    0    0  0.11644380185E+03 -0.13169582301E+03  0.64661073812E+02  0.20384025628E+03  0.80416707385E+02 0.  0.
          6    2    1    2  501    0 -0.14653410311E+03  0.18429550841E+03 -0.13945667560E+03  0.32324879652E+03  0.17205970559E+03 0.  0.
         24    2    5    5    0    0 -0.14332932895E+03  0.11145211920E+03 -0.15135298663E+03  0.24922148977E+03  0.78985777119E+02 0.  0.
          5    1    5    5  501    0 -0.32047741604E+01  0.72843389213E+02  0.11896311030E+02  0.74027306756E+02  0.47000000000E+01 0. -1.
        -11    1    6    6    0    0 -0.60738803666E+02  0.93628141905E+02 -0.10301284961E+03  0.15187849885E+03  0.00000000000E+00 0.  1.
         12    1    6    6    0    0 -0.82590525287E+02  0.17823977296E+02 -0.48340137016E+02  0.97342990917E+02  0.00000000000E+00 0. -1.
         -5    1    3    3    0  503  0.30090301262E+02 -0.52599685400E+02  0.13847709408E+03  0.15122879593E+03  0.47000000000E+01 0.  1.
         13    1    4    4    0    0  0.76324644428E+02 -0.12823557661E+03  0.66834589861E+02  0.16351353723E+03  0.00000000000E+00 0. -1.
        -14    1    4    4    0    0  0.40119157423E+02 -0.34602464015E+01 -0.21735160492E+01  0.40326719052E+02  0.00000000000E+00 0.  1.
</event>
<event>
12    1  0.8133506E-002  0.2068526E+03  0.7818608E-02  0.1144277E+00
         21   -1    0    0  503  502  0.00000000000E+00  0.00000000000E+00  0.12612719296E+03  0.12612719296E+03  0.00000000000E+00 0. -1.
         21   -1    0    0  501  503 -0.00000000000E+00 -0.00000000000E+00 -0.40735133186E+03  0.40735133186E+03  0.00000000000E+00 0.  1.
          6    2    1    2  501    0 -0.26430899409E+02 -0.11165957737E+03 -0.30022381733E+02  0.20807059737E+03  0.17095489588E+03 0.  0.
         24    2    3    3    0    0  0.41267173387E+02 -0.10256404509E+03 -0.97759070166E+01  0.13667194538E+03  0.79757691487E+02 0.  0.
         -6    2    1    2    0  502  0.26430899409E+02  0.11165957737E+03 -0.25120175717E+03  0.32540792744E+03  0.17210910137E+03 0.  0.
        -24    2    5    5    0    0  0.75962463604E+02  0.28454334679E+02 -0.11315960723E+03  0.15672415993E+03  0.71954294921E+02 0.  0.
          5    1    3    3  501    0 -0.67698072797E+02 -0.90955322780E+01 -0.20246474716E+02  0.71398651992E+02  0.47000000000E+01 0. -1.
        -13    1    4    4    0    0 -0.54867924177E+01  0.11284639409E+02 -0.49908866407E+01  0.13503959682E+02  0.00000000000E+00 0.  1.
         14    1    4    4    0    0  0.46753965805E+02 -0.11384868450E+03 -0.47850203759E+01  0.12316798570E+03  0.00000000000E+00 0. -1.
         -5    1    5    5    0  502 -0.49531564195E+02  0.83205242693E+02 -0.13804214994E+03  0.16868376752E+03  0.47000000000E+01 0.  1.
         13    1    6    6    0    0  0.47033416128E+02 -0.19995201402E+02 -0.43790337069E+02  0.67301886544E+02  0.00000000000E+00 0. -1.
        -14    1    6    6    0    0  0.28929047476E+02  0.48449536081E+02 -0.69369270162E+02  0.89422273384E+02  0.00000000000E+00 0.  1.
</event>
<event>
12    1  0.8133506E-002  0.1753435E+03  0.7818608E-02  0.1172737E+00
         21   -1    0    0  501  502  0.00000000000E+00  0.00000000000E+00  0.23116841064E+03  0.23116841064E+03  0.00000000000E+00 0. -1.
         21   -1    0    0  502  503 -0.00000000000E+00 -0.00000000000E+00 -0.18384314019E+03  0.18384314019E+03  0.00000000000E+00 0. -1.
         -6    2    1    2    0  503 -0.10653231344E+02  0.36033748484E+01 -0.86654217464E+02  0.19434021930E+03  0.17358770632E+03 0.  0.
        -24    2    3    3    0    0  0.33862954732E+02  0.20110512532E+02 -0.11048115330E+03  0.14101115322E+03  0.78274693749E+02 0.  0.
          6    2    1    2  501    0  0.10653231344E+02 -0.36033748484E+01  0.13397948792E+03  0.22067133153E+03  0.17498244978E+03 0.  0.
         24    2    5    5    0    0 -0.15947901745E+02  0.43768299176E+02  0.21138501236E+02  0.95344263201E+02  0.80459261170E+02 0.  0.
          5    1    5    5  501    0  0.26601133089E+02 -0.47371674024E+02  0.11284098668E+03  0.12532706833E+03  0.47000000000E+01 0. -1.
        -13    1    6    6    0    0 -0.27470958353E+02 -0.15994774447E+02  0.35245746539E+01  0.31982948409E+02  0.00000000000E+00 0.  1.
         14    1    6    6    0    0  0.11523056609E+02  0.59763073623E+02  0.17613926582E+02  0.63361314792E+02  0.00000000000E+00 0. -1.
         -5    1    3    3    0  503 -0.44516186076E+02 -0.16507137683E+02  0.23826935836E+02  0.53329066077E+02  0.47000000000E+01 0.  1.
         11    1    4    4    0    0  0.41176620615E+02 -0.17744985546E+02 -0.80599417553E+02  0.92231581940E+02  0.00000000000E+00 0. -1.
        -12    1    4    4    0    0 -0.73136658825E+01  0.37855498078E+02 -0.29881735747E+02  0.48779571283E+02  0.00000000000E+00 0.  1.
</event>
<event>
12    1  0.8133506E-002  0.2741141E+03  0.7818608E-02  0.1099053E+00
         21   -1    0    0  503  502  0.00000000000E+00  0.00000000000E+00  0.39551149496E+03  0.39551149496E+03  0.00000000000E+00 0.  1.
         21   -1    0    0  501  503 -0.00000000000E+00 -0.00000000000E+00 -0.24051011158E+03  0.24051011158E+03  0.00000000000E+00 0.  1.
          6    2    1    2  501    0 -0.15879889103E+03  0.14200359805E+03 -0.69094240380E+02  0.28196316620E+03  0.17130996290E+03 0.  0.
         24    2    3    3    0    0 -0.12194319922E+03  0.34965556784E+02 -0.76972752452E+02  0.16838656100E+03  0.79602106180E+02 0.  0.
         -6    2    1    2    0  502  0.15879889103E+03 -0.14200359805E+03  0.22409562376E+03  0.35405844034E+03  0.17250049547E+03 0.  0.
        -24    2    5    5    0    0  0.92995638710E+02 -0.33557400437E+02  0.41481838532E+02  0.13166120487E+03  0.76417550312E+02 0.  0.
          5    1    3    3  501    0 -0.36855691811E+02  0.10703804126E+03  0.78785120723E+01  0.11357660520E+03  0.47000000000E+01 0. -1.
        -13    1    4    4    0    0 -0.55698326447E+02  0.56487787917E+02 -0.32390641041E+02  0.85687381683E+02  0.00000000000E+00 0.  1.
         14    1    4    4    0    0 -0.66244872777E+02 -0.21522231133E+02 -0.44582111411E+02  0.82699179319E+02  0.00000000000E+00 0. -1.
         -5    1    5    5    0  502  0.65803252325E+02 -0.10844619761E+03  0.18261378523E+03  0.22239723548E+03  0.47000000000E+01 0.  1.
         13    1    6    6    0    0 -0.28640827972E+01 -0.19977290285E+02 -0.94279581764E+01  0.22275131712E+02  0.00000000000E+00 0. -1.
        -14    1    6    6    0    0  0.95859721507E+02 -0.13580110152E+02  0.50909796708E+02  0.10938607315E+03  0.00000000000E+00 0.  1.
</event>
<event>
12    1  0.8133506E-002  0.2793112E+03  0.7818608E-02  0.1096124E+00
         21   -1    0    0  503  502  0.00000000000E+00  0.00000000000E+00  0.53392281234E+03  0.53392281234E+03  0.00000000000E+00 0. -1.
         21   -1    0    0  501  503 -0.00000000000E+00 -0.00000000000E+00 -0.22607350967E+03  0.22607350967E+03  0.00000000000E+00 0.  1.
          6    2    1    2  501    0 -0.19151813924E+03 -0.10717031461E+03 -0.72303552231E+02  0.28851780366E+03  0.17277165674E+03 0.  0.
         24    2    3    3    0    0 -0.17619892472E+03 -0.52559408420E+02 -0.48705487158E+01  0.20027762363E+03  0.79239206196E+02 0.  0.
         -6    2    1    2    0  502  0.19151813924E+03  0.10717031461E+03  0.38015285490E+03  0.47147851834E+03  0.17207883711E+03 0.  0.
        -24    2    5    5    0    0  0.20485510492E+03  0.11860226498E+03  0.37799201505E+03  0.45316668142E+03  0.80311683059E+02 0.  0.
          5    1    3    3  501    0 -0.15319214526E+02 -0.54610906190E+02 -0.67433003515E+02  0.88240180030E+02  0.47000000000E+01 0. -1.
        -11    1    4    4    0    0 -0.12054217467E+02  0.98336594467E+00 -0.23689730563E+02  0.26598392836E+02  0.00000000000E+00 0.  1.
         12    1    4    4    0    0 -0.16414470725E+03 -0.53542774364E+02  0.18819181847E+02  0.17367923080E+03  0.00000000000E+00 0. -1.
         -5    1    5    5    0  502 -0.13336965678E+02 -0.11431950373E+02  0.21608398526E+01  0.18311836929E+02  0.47000000000E+01 0.  1.
         13    1    6    6    0    0  0.10735723944E+03  0.22359226272E+02  0.20510262702E+03  0.23257815777E+03  0.00000000000E+00 0. -1.
        -14    1    6    6    0    0  0.97497865485E+02  0.96243038712E+02  0.17288938803E+03  0.22058852365E+03  0.00000000000E+00 0.  1.
</event>
<event>
12    1  0.8133506E-002  0.3143943E+03  0.7818608E-02  0.1078400E+00
         21   -1    0    0  501  502  0.00000000000E+00  0.00000000000E+00  0.25928465465E+04  0.25928465465E+04  0.00000000000E+00 0. -1.
         21   -1    0    0  502  503 -0.00000000000E+00 -0.00000000000E+00 -0.48655145899E+02  0.48655145899E+02  0.00000000000E+00 0.  1.
         -6    2    1    2    0  503 -0.14908943451E+03  0.21559497575E+03  0.65146372090E+03  0.72284022230E+03  0.17141806869E+03 0.  0.
        -24    2    3    3    0    0 -0.95776892382E+02  0.14920330067E+03  0.57932234597E+03  0.61114174583E+03  0.80280850233E+02 0.  0.
          6    2    1    2  501    0  0.14908943451E+03 -0.21559497575E+03  0.18927276797E+04  0.19186614701E+04  0.17359410789E+03 0.  0.
         24    2    5    5    0    0  0.83814241435E+02 -0.32910350566E+02  0.76874421268E+03  0.77804959604E+03  0.79281720027E+02 0.  0.
          5    1    5    5  501    0  0.65275193079E+02 -0.18268462518E+03  0.11239834670E+04  0.11406118741E+04  0.47000000000E+01 0. -1.
        -11    1    6    6    0    0  0.39719682198E+02 -0.24901429308E+02  0.13859905547E+03  0.14631278998E+03  0.00000000000E+00 0.  1.
         12    1    6    6    0    0  0.44094559237E+02 -0.80089212589E+01  0.63014515721E+03  0.63173680606E+03  0.00000000000E+00 0. -1.
         -5    1    3    3    0  503 -0.53312542132E+02  0.66391675077E+02  0.72141374933E+02  0.11169847647E+03  0.47000000000E+01 0.  1.
         13    1    4    4    0    0 -0.73914936153E+02  0.51817116719E+02  0.34139302381E+03  0.35312551321E+03  0.00000000000E+00 0. -1.
        -14    1    4    4    0    0 -0.21861956229E+02  0.97386183952E+02  0.23792932216E+03  0.25801623262E+03  0.00000000000E+00 0.  1.
</event>
<event>
12    1  0.8133506E-002  0.2030630E+03  0.7818608E-02  0.1151232E+00
         21   -1    0    0  501  502  0.00000000000E+00  0.00000000000E+00  0.66169575689E+02  0.66169575689E+02  0.00000000000E+00 0. -1.
         21   -1    0    0  502  503 -0.00000000000E+00 -0.00000000000E+00 -0.58083569271E+03  0.58083569271E+03  0.00000000000E+00 0. -1.
         -6    2    1    2    0  503  0.58902691528E+02  0.31442080372E+02 -0.29450072213E+03  0.34749337519E+03  0.17193847441E+03 0.  0.
        -24    2    3    3    0    0  0.72543771361E+02  0.73661861831E+02 -0.26015223420E+03  0.29118620311E+03  0.80134582226E+02 0.  0.
          6    2    1    2  501    0 -0.58902691528E+02 -0.31442080372E+02 -0.22016539489E+03  0.29951189320E+03  0.19177184772E+03 0.  0.
         24    2    5    5    0    0 -0.99636602103E+02 -0.45627405966E+02 -0.90720588151E+02  0.16298891739E+03  0.79535208710E+02 0.  0.
          5    1    5    5  501    0  0.40733910575E+02  0.14185325594E+02 -0.12944480674E+03  0.13652297581E+03  0.47000000000E+01 0. -1.
        -11    1    6    6    0    0 -0.71889852241E+02  0.15993064233E+01 -0.22180632378E+02  0.75250841118E+02  0.00000000000E+00 0.  1.
         12    1    6    6    0    0 -0.27746749862E+02 -0.47226712389E+02 -0.68539955773E+02  0.87738076275E+02  0.00000000000E+00 0. -1.
         -5    1    3    3    0  503 -0.13641079833E+02 -0.42219781459E+02 -0.34348487932E+02  0.56307172089E+02  0.47000000000E+01 0.  1.
         11    1    4    4    0    0  0.15395212528E+00  0.56174384455E+02 -0.10478991900E+03  0.11889706596E+03  0.00000000000E+00 0. -1.
        -12    1    4    4    0    0  0.72389819235E+02  0.17487477376E+02 -0.15536231520E+03  0.17228913714E+03  0.00000000000E+00 0.  1.
</event>
<event>
12    1  0.8133506E-002  0.2582137E+03  0.7818608E-02  0.1108367E+00
         21   -1    0    0  501  502  0.00000000000E+00  0.00000000000E+00  0.93572038756E+03  0.93572038756E+03  0.00000000000E+00 0.  1.
         21   -1    0    0  502  503 -0.00000000000E+00 -0.00000000000E+00 -0.76486968110E+02  0.76486968110E+02  0.00000000000E+00 0. -1.
         -6    2    1    2    0  503 -0.16257214317E+03 -0.10193893039E+03  0.29320109600E+03  0.39006034798E+03  0.17134452167E+03 0.  0.
        -24    2    3    3    0    0 -0.11464899331E+03 -0.38570317691E+02  0.27139222375E+03  0.30753807052E+03  0.79333880748E+02 0.  0.
          6    2    1    2  501    0  0.16257214317E+03  0.10193893039E+03  0.56603232345E+03  0.62214700770E+03  0.17278038294E+03 0.  0.
         24    2    5    5    0    0  0.16839838974E+03  0.10993354462E+03  0.57055688639E+03  0.61029708468E+03  0.80523096468E+02 0.  0.
          5    1    5    5  501    0 -0.58262465715E+01 -0.79946142268E+01 -0.45245629344E+01  0.11849923016E+02  0.47000000000E+01 0. -1.
        -11    1    6    6    0    0  0.15586909325E+01  0.21100160806E+02  0.11754454130E+03  0.11943351914E+03  0.00000000000E+00 0.  1.
         12    1    6    6    0    0  0.16683969881E+03  0.88833383810E+02  0.45301234509E+03  0.49086356554E+03  0.00000000000E+00 0. -1.
         -5    1    3    3    0  503 -0.47923149860E+02 -0.63368612698E+02  0.21808872251E+02  0.82522277457E+02  0.47000000000E+01 0.  1.
         11    1    4    4    0    0 -0.95477714739E+01 -0.27775046343E+02  0.22022897907E+02  0.36709960116E+02  0.00000000000E+00 0. -1.
        -12    1    4    4    0    0 -0.10510122183E+03 -0.10795271348E+02  0.24936932584E+03  0.27082811040E+03  0.00000000000E+00 0.  1.
</event>
<event>
12    1  0.8133506E-002  0.2807101E+03  0.7818608E-02  0.1096446E+00
         21   -1    0    0  503  502  0.00000000000E+00  0.00000000000E+00  0.14561459076E+04  0.14561459076E+04  0.00000000000E+00 0. -1.
         21   -1    0    0  501  503 -0.00000000000E+00 -0.00000000000E+00 -0.17020355624E+03  0.17020355624E+03  0.00000000000E+00 0. -1.
          6    2    1    2  501    0  0.54059183853E+02  0.21505433552E+03 -0.36114228978E+02  0.27482004060E+03  0.15827524948E+03 0.  0.
         24    2    3    3    0    0  0.43197670270E+02  0.15958383816E+03  0.32522088359E+02  0.18578082109E+03  0.78254630110E+02 0.  0.
         -6    2    1    2    0  502 -0.54059183853E+02 -0.21505433552E+03  0.13220565803E+04  0.13515294232E+04  0.17212616798E+03 0.  0.
        -24    2    5    5    0    0 -0.85191698830E+02 -0.20709585165E+03  0.12499869738E+04  0.12724807728E+04  0.81200770278E+02 0.  0.
          5    1    3    3  501    0  0.10861513583E+02  0.55470497356E+02 -0.68636317337E+02  0.89039219515E+02  0.47000000000E+01 0. -1.
        -13    1    4    4    0    0  0.21913545044E+02  0.65970724380E+01 -0.10878463863E+02  0.25339017289E+02  0.00000000000E+00 0.  1.
         14    1    4    4    0    0  0.21284125226E+02  0.15298676572E+03  0.43400552222E+02  0.16044180380E+03  0.00000000000E+00 0. -1.
         -5    1    5    5    0  502  0.31132514977E+02 -0.79584838617E+01  0.72069606497E+02  0.79048650430E+02  0.47000000000E+01 0.  1.
         13    1    6    6    0    0 -0.60446504110E+01 -0.10827275563E+03  0.68076835490E+03  0.68935120253E+03  0.00000000000E+00 0. -1.
        -14    1    6    6    0    0 -0.79147048419E+02 -0.98823096029E+02  0.56921861890E+03  0.58312957023E+03  0.00000000000E+00 0.  1.
</event>
<event>
12    1  0.8133506E-002  0.1738746E+03  0.7818608E-02  0.1174489E+00
         21   -1    0    0  503  502  0.00000000000E+00  0.00000000000E+00  0.41817132171E+03  0.41817132171E+03  0.00000000000E+00 0. -1.
         21   -1    0    0  501  503 -0.00000000000E+00 -0.00000000000E+00 -0.18740043398E+03  0.18740043398E+03  0.00000000000E+00 0. -1.
          6    2    1    2  501    0  0.46144365044E+01 -0.30458877394E+01 -0.12326142280E+03  0.21114651474E+03  0.17134439553E+03 0.  0.
         24    2    3    3    0    0 -0.71757034320E+01 -0.44978803321E+02 -0.13162691974E+02  0.92650956434E+02  0.79601255016E+02 0.  0.
         -6    2    1    2    0  502 -0.46144365044E+01  0.30458877394E+01  0.35403231054E+03  0.39442524095E+03  0.17378671795E+03 0.  0.
        -24    2    5    5    0    0 -0.17847444575E+02  0.11427720287E+02  0.36537655801E+03  0.37452173447E+03  0.79481924863E+02 0.  0.
          5    1    3    3  501    0  0.11790139936E+02  0.41932915581E+02 -0.11009873083E+03  0.11849555831E+03  0.47000000000E+01 0. -1.
        -13    1    4    4    0    0  0.17681312145E+02 -0.49039436941E+02 -0.32028130973E+02  0.61182483999E+02  0.00000000000E+00 0.  1.
         14    1    4    4    0    0 -0.24857015577E+02  0.40606336205E+01  0.18865438998E+02  0.31468472435E+02  0.00000000000E+00 0. -1.
         -5    1    5    5    0  502  0.13233008071E+02 -0.83818325480E+01 -0.11344247469E+02  0.19903506478E+02  0.47000000000E+01 0.  1.
         13    1    6    6    0    0 -0.40322295340E+02  0.25529789807E+02  0.14733466766E+03  0.15487143689E+03  0.00000000000E+00 0. -1.
        -14    1    6    6    0    0  0.22474850765E+02 -0.14102069519E+02  0.21804189035E+03  0.21965029758E+03  0.00000000000E+00 0.  1.
</event>
<event>
12    1  0.8133506E-002  0.1885484E+03  0.7818608E-02  0.1160095E+00
         21   -1    0    0  503  502  0.00000000000E+00  0.00000000000E+00  0.76993015514E+03  0.76993015514E+03  0.00000000000E+00 0. -1.
         21   -1    0    0  501  503 -0.00000000000E+00 -0.00000000000E+00 -0.15746472697E+03  0.15746472697E+03  0.00000000000E+00 0. -1.
          6    2    1    2  501    0  0.74844946720E+02 -0.14046187275E+02 -0.84519033657E+02  0.20535760236E+03  0.17096554147E+03 0.  0.
         24    2    3    3    0    0 -0.22419529545E+02 -0.15436290591E+02 -0.53827528908E+02  0.10324800832E+03  0.83796384063E+02 0.  0.
         -6    2    1    2    0  502 -0.74844946720E+02  0.14046187275E+02  0.69698446183E+03  0.72203727975E+03  0.17248603392E+03 0.  0.
        -24    2    5    5    0    0 -0.11842212713E+03  0.19133013153E+02  0.52782454218E+03  0.54721732991E+03  0.80362842380E+02 0.  0.
          5    1    3    3  501    0  0.97264476265E+02  0.13901033156E+01 -0.30691504748E+02  0.10210959404E+03  0.47000000000E+01 0. -1.
        -13    1    4    4    0    0 -0.65816030517E+01 -0.27758795833E+02  0.14523252301E+02  0.32012389823E+02  0.00000000000E+00 0.  1.
         14    1    4    4    0    0 -0.15837926493E+02  0.12322505242E+02 -0.68350781209E+02  0.71235618499E+02  0.00000000000E+00 0. -1.
         -5    1    5    5    0  502  0.43577180406E+02 -0.50868258778E+01  0.16915991964E+03  0.17481994984E+03  0.47000000000E+01 0.  1.
         11    1    6    6    0    0 -0.19326184411E+02  0.23112469019E+02  0.25782613750E+03  0.25958043995E+03  0.00000000000E+00 0. -1.
        -12    1    6    6    0    0 -0.99095942715E+02 -0.39794558665E+01  0.26999840468E+03  0.28763688996E+03  0.00000000000E+00 0.  1.
</event>
<event>
12    1  0.8133506E-002  0.1950440E+03  0.7818608E-02  0.1157310E+00
         21   -1    0    0  503  502  0.00000000000E+00  0.00000000000E+00  0.16442893437E+02  0.16442893437E+02  0.00000000000E+00 0. -1.
         21   -1    0    0  501  503 -0.00000000000E+00 -0.00000000000E+00 -0.21577418800E+04  0.21577418800E+04  0.00000000000E+00 0. -1.
          6    2    1    2  501    0 -0.10954399747E+02  0.91131452428E+02 -0.12005388160E+04  0.12162794187E+04  0.17209658657E+03 0.  0.
         24    2    3    3    0    0 -0.63046164667E+02  0.97676960404E+02 -0.87823851885E+03  0.88969716689E+03  0.82113003284E+02 0.  0.
         -6    2    1    2    0  502  0.10954399747E+02 -0.91131452428E+02 -0.94076017064E+03  0.95790535482E+03  0.15533199813E+03 0.  0.
        -24    2    5    5    0    0  0.18331890351E+02 -0.31501660625E+02 -0.26831162031E+03  0.28276145736E+03  0.81452460677E+02 0.  0.
          5    1    3    3  501    0  0.52091764920E+02 -0.65455079762E+01 -0.32230029712E+03  0.32658225177E+03  0.47000000000E+01 0. -1.
        -11    1    4    4    0    0 -0.49593254354E+02  0.99101178206E+01 -0.41068259198E+03  0.41378483862E+03  0.00000000000E+00 0.  1.
         12    1    4    4    0    0 -0.13452910313E+02  0.87766842583E+02 -0.46755592687E+03  0.47591232827E+03  0.00000000000E+00 0. -1.
         -5    1    5    5    0  502 -0.73774906042E+01 -0.59629791803E+02 -0.67244855033E+03  0.67514389747E+03  0.47000000000E+01 0.  1.
         11    1    6    6    0    0  0.23002441553E+02 -0.33091747975E+02 -0.27299802367E+03  0.27595669412E+03  0.00000000000E+00 0. -1.
        -12    1    6    6    0    0 -0.46705512019E+01  0.15900873503E+01  0.46864033615E+01  0.68047632418E+01  0.00000000000E+00 0.  1.
</event>
<event>
12    1  0.8133506E-002  0.1984621E+03  0.7818608E-02  0.1151052E+00
         21   -1    0    0  501  502  0.00000000000E+00  0.00000000000E+00  0.28824493234E+03  0.28824493234E+03  0.00000000000E+00 0.  1.
         21   -1    0    0  502  503 -0.00000000000E+00 -0.00000000000E+00 -0.20318714781E+03  0.20318714781E+03  0.00000000000E+00 0.  1.
         -6    2    1    2    0  503  0.37719458973E+02 -0.91122709655E+02 -0.98113250913E+02  0.22138971121E+03  0.17222394846E+03 0.  0.
        -24    2    3    3    0    0 -0.66017226989E+01 -0.11600485881E+03 -0.48457208866E+02  0.15017664357E+03  0.81879259724E+02 0.  0.
          6    2    1    2  501    0 -0.37719458973E+02  0.91122709655E+02  0.18317103545E+03  0.27004236894E+03  0.17217766114E+03 0.  0.
         24    2    5    5    0    0  0.43115569154E+02  0.51248399094E+02  0.12768115290E+03  0.16409200565E+03  0.78347678981E+02 0.  0.
          5    1    5    5  501    0 -0.80835028127E+02  0.39874310562E+02  0.55489882553E+02  0.10595036329E+03  0.47000000000E+01 0. -1.
        -11    1    6    6    0    0  0.33743489903E+02  0.17902919575E+02  0.12341672309E+03  0.12919297651E+03  0.00000000000E+00 0.  1.
         12    1    6    6    0    0  0.93720792511E+01  0.33345479518E+02  0.42644298033E+01  0.34899029146E+02  0.00000000000E+00 0. -1.
         -5    1    3    3    0  503  0.44321181672E+02  0.24882149150E+02 -0.49656042047E+02  0.71213067641E+02  0.47000000000E+01 0.  1.
         11    1    4    4    0    0 -0.24584772995E+02 -0.13849055281E+02  0.11383075463E+02  0.30426662689E+02  0.00000000000E+00 0. -1.
        -12    1    4    4    0    0  0.17983050296E+02 -0.10215580352E+03 -0.59840284329E+02  0.11974998088E+03  0.00000000000E+00 0.  1.
</event>
<event>
12    1  0.8133506E-002  0.1752418E+03  0.7818608E-02  0.1172692E+00
         21   -1    0    0  501  502  0.00000000000E+00  0.00000000000E+00  0.11000100138E+03  0.11000100138E+03  0.00000000000E+00 0. -1.
         21   -1    0    0  502  503 -0.00000000000E+00 -0.00000000000E+00 -0.64688491624E+03  0.64688491624E+03  0.00000000000E+00 0. -1.
         -6    2    1    2    0  503  0.52008003066E+00  0.37329734825E+02 -0.55399814435E+03  0.58081039085E+03  0.17039068810E+03 0.  0.
        -24    2    3    3    0    0  0.64656924115E+01 -0.37588745496E+02 -0.39839299430E+03  0.40794286434E+03  0.79029638054E+02 0.  0.
          6    2    1    2  501    0 -0.52008003066E+00 -0.37329734825E+02  0.17114229492E+02  0.17607552677E+03  0.17121890868E+03 0.  0.
         24    2    5    5    0    0 -0.23458964634E+02 -0.50026314714E+02  0.67544749769E+02  0.11904287872E+03  0.80968874070E+02 0.  0.
          5    1    5    5  501    0  0.22938884604E+02  0.12696579889E+02 -0.50430520276E+02  0.57032648046E+02  0.47000000000E+01 0. -1.
        -11    1    6    6    0    0 -0.39018390583E+02 -0.12905045562E+01  0.68042461244E+01  0.39628247135E+02  0.00000000000E+00 0.  1.
         12    1    6    6    0    0  0.15559425948E+02 -0.48735810158E+02  0.60740503644E+02  0.79414631590E+02  0.00000000000E+00 0. -1.
         -5    1    3    3    0  503 -0.59456123808E+01  0.74918480321E+02 -0.15560515005E+03  0.17286752651E+03  0.47000000000E+01 0.  1.
         13    1    4    4    0    0 -0.16883742540E+02  0.18908106273E+02 -0.87562002823E+02  0.91157454898E+02  0.00000000000E+00 0. -1.
        -14    1    4    4    0    0  0.23349434951E+02 -0.56496851769E+02 -0.31083099147E+03  0.31678540944E+03  0.00000000000E+00 0.  1.
</event>
<event>
12    1  0.8133506E-002  0.2490025E+03  0.7818608E-02  0.1114007E+00
         21   -1    0    0  501  502  0.00000000000E+00  0.00000000000E+00  0.64417714061E+03  0.64417714061E+03  0.00000000000E+00 0.  1.
         21   -1    0    0  502  503 -0.00000000000E+00 -0.00000000000E+00 -0.11274087475E+03  0.11274087475E+03  0.00000000000E+00 0. -1.
         -6    2    1    2    0  503 -0.15518211612E+03 -0.91680379341E+02  0.41141262693E+03  0.48089770026E+03  0.17180066182E+03 0.  0.
        -24    2    3    3    0    0 -0.56808779336E+02 -0.23450236676E+02  0.80004087596E+02  0.12849682668E+03  0.79584102843E+02 0.  0.
          6    2    1    2  501    0  0.15518211612E+03  0.91680379341E+02  0.12002363893E+03  0.27602031510E+03  0.17115711883E+03 0.  0.
         24    2    5    5    0    0  0.12922545386E+03  0.12390345369E+03  0.65179421247E+02  0.20715774871E+03  0.81330757618E+02 0.  0.
          5    1    5    5  501    0  0.25956662261E+02 -0.32223074353E+02  0.54844217680E+02  0.68862566387E+02  0.47000000000E+01 0. -1.
        -11    1    6    6    0    0  0.27790840349E+02  0.72827744248E+02  0.49930908605E+02  0.92570550251E+02  0.00000000000E+00 0.  1.
         12    1    6    6    0    0  0.10143461351E+03  0.51075709446E+02  0.15248512642E+02  0.11458719846E+03  0.00000000000E+00 0. -1.
         -5    1    3    3    0  503 -0.98373336783E+02 -0.68230142665E+02  0.33140853933E+03  0.35240087358E+03  0.47000000000E+01 0.  1.
         11    1    4    4    0    0 -0.62536279828E+02 -0.45390558529E+02  0.55687066838E+02  0.95247774312E+02  0.00000000000E+00 0. -1.
        -12    1    4    4    0    0  0.57275004922E+01  0.21940321853E+02  0.24317020759E+02  0.33249052370E+02  0.00000000000E+00 0.  1.
</event>
<event>
12    1  0.8133506E-002  0.1737163E+03  0.7818608E-02  0.1174049E+00
         21   -1    0    0  503  502  0.00000000000E+00  0.00000000000E+00  0.28521356159E+03  0.28521356159E+03  0.00000000000E+00 0. -1.
         21   -1    0    0  501  503 -0.00000000000E+00 -0.00000000000E+00 -0.24573556590E+03  0.24573556590E+03  0.00000000000E+00 0. -1.
          6    2    1    2  501    0 -0.11269221105E+02  0.26722251567E+02 -0.18062634485E+03  0.25060570194E+03  0.17127833289E+03 0.  0.
         24    2    3    3    0    0 -0.35993488541E+02  0.31859704579E+02 -0.30067847475E+02  0.97871835508E+02  0.79776241706E+02 0.  0.
         -6    2    1    2    0  502  0.11269221105E+02 -0.26722251567E+02  0.22010434054E+03  0.28034342555E+03  0.17118832161E+03 0.  0.
        -24    2    5    5    0    0 -0.48363011620E+02  0.90851437592E+01  0.72402265214E+02  0.11701502694E+03  0.77646041693E+02 0.  0.
          5    1    3    3  501    0  0.24724267436E+02 -0.51374530123E+01 -0.15055849737E+03  0.15273386643E+03  0.47000000000E+01 0. -1.
        -11    1    4    4    0    0  0.22006280977E+01  0.48195480430E+02 -0.31005042764E+01  0.48345219253E+02  0.00000000000E+00 0.  1.
         12    1    4    4    0    0 -0.38194116639E+02 -0.16335775851E+02 -0.26967343198E+02  0.49526616254E+02  0.00000000000E+00 0. -1.
         -5    1    5    5    0  502  0.59632232726E+02 -0.35807395326E+02  0.14770207533E+03  0.16332839862E+03  0.47000000000E+01 0.  1.
         13    1    6    6    0    0 -0.32847599018E+02 -0.89508830077E+01  0.83934257465E+02  0.90576170398E+02  0.00000000000E+00 0. -1.
        -14    1    6    6    0    0 -0.15515412603E+02  0.18036026767E+02 -0.11531992251E+02  0.26438856538E+02  0.00000000000E+00 0.  1.
</event>
<event>
12    1  0.8133506E-002  0.2513240E+03  0.7818608E-02  0.1113005E+00
         21   -1    0    0  503  502  0.00000000000E+00  0.00000000000E+00  0.17528864794E+03  0.17528864794E+03  0.00000000000E+00 0. -1.
         21   -1    0    0  501  503 -0.00000000000E+00 -0.00000000000E+00 -0.38335096706E+03  0.38335096706E+03  0.00000000000E+00 0.  1.
          6    2    1    2  501    0  0.82622456815E+02 -0.16202651110E+03 -0.29415786339E+02  0.25303960651E+03  0.17344939697E+03 0.  0.
         24    2    3    3    0    0  0.11042136723E+03 -0.16336454353E+03 -0.48864130715E+02  0.21876282355E+03  0.81170297989E+02 0.  0.
         -6    2    1    2    0  502 -0.82622456815E+02  0.16202651110E+03 -0.17864653278E+03  0.30560000849E+03  0.16851623319E+03 0.  0.
        -24    2    5    5    0    0 -0.31987113596E+02  0.17239751058E+02 -0.32246736327E+02  0.93510088256E+02  0.79899312570E+02 0.  0.
          5    1    3    3  501    0 -0.27798910412E+02  0.13380324304E+01  0.19448344376E+02  0.34276782957E+02  0.47000000000E+01 0. -1.
        -13    1    4    4    0    0  0.27962494659E+02 -0.24899414687E+02 -0.43666114012E+02  0.57520530875E+02  0.00000000000E+00 0.  1.
         14    1    4    4    0    0  0.82458872569E+02 -0.13846512884E+03 -0.51980167033E+01  0.16124229268E+03  0.00000000000E+00 0. -1.
         -5    1    5    5    0  502 -0.50635343219E+02  0.14478676004E+03 -0.14639979645E+03  0.21208992024E+03  0.47000000000E+01 0.  1.
         13    1    6    6    0    0 -0.44988810547E+02  0.39673018333E+02 -0.13415846340E+02  0.61464838656E+02  0.00000000000E+00 0. -1.
        -14    1    6    6    0    0  0.13001696951E+02 -0.22433267275E+02 -0.18830889987E+02  0.32045249600E+02  0.00000000000E+00 0.  1.
</event>
<event>
12    1  0.8133506E-002  0.1847603E+03  0.7818608E-02  0.1163551E+00
         21   -1    0    0  501  502  0.00000000000E+00  0.00000000000E+00  0.16378492483E+03  0.16378492483E+03  0.00000000000E+00 0.  1.
         21   -1    0    0  502  503 -0.00000000000E+00 -0.00000000000E+00 -0.20745000379E+03  0.20745000379E+03  0.00000000000E+00 0.  1.
         -6    2    1    2    0  503  0.65269190380E+02  0.16387148534E+02 -0.29471500483E+02  0.18593023712E+03  0.17080069638E+03 0.  0.
        -24    2    3    3    0    0  0.11341685179E+02 -0.10994095637E+02  0.42548149569E+02  0.91766399350E+02  0.79757275883E+02 0.  0.
          6    2    1    2  501    0 -0.65269190380E+02 -0.16387148534E+02 -0.14193578484E+02  0.18530469150E+03  0.17206907094E+03 0.  0.
         24    2    5    5    0    0  0.16608841922E+02 -0.33359460891E+02  0.21358925522E+02  0.94320395596E+02  0.83972769782E+02 0.  0.
          5    1    5    5  501    0 -0.81878032302E+02  0.16972312357E+02 -0.35552504007E+02  0.90984295906E+02  0.47000000000E+01 0. -1.
        -13    1    6    6    0    0 -0.73004916842E+01  0.14935132533E+02 -0.20277148812E+02  0.26220566862E+02  0.00000000000E+00 0.  1.
         14    1    6    6    0    0  0.23909333606E+02 -0.48294593425E+02  0.41636074335E+02  0.68099828733E+02  0.00000000000E+00 0. -1.
         -5    1    3    3    0  503  0.53927505201E+02  0.27381244171E+02 -0.72019650052E+02  0.94163837768E+02  0.47000000000E+01 0.  1.
         13    1    4    4    0    0  0.24851110382E+01  0.29779554871E+02 -0.29556136357E+01  0.30028874723E+02  0.00000000000E+00 0. -1.
        -14    1    4    4    0    0  0.88565741413E+01 -0.40773650508E+02  0.45503763204E+02  0.61737524627E+02  0.00000000000E+00 0.  1.
</event>
<event>
12    1  0.8133506E-002  0.2888888E+03  0.7818608E-02  0.1092041E+00
         21   -1    0    0  503  502  0.00000000000E+00  0.00000000000E+00  0.26125851791E+03  0.26125851791E+03  0.00000000000E+00 0. -1.
         21   -1    0    0  501  503 -0.00000000000E+00 -0.00000000000E+00 -0.39043949202E+03  0.39043949202E+03  0.00000000000E+00 0. -1.
          6    2    1    2  501    0  0.59641242339E+02 -0.22327509557E+03 -0.21145874907E+03  0.35132092957E+03  0.15906837179E+03 0.  0.
         24    2    3    3    0    0  0.58199392238E+02 -0.58578630985E+02 -0.90607933293E+02  0.14698293982E+03  0.81089837578E+02 0.  0.
         -6    2    1    2    0  502 -0.59641242339E+02  0.22327509557E+03  0.82277774962E+02  0.30037708036E+03  0.17334333579E+03 0.  0.
        -24    2    5    5    0    0 -0.33858882194E+02  0.15884930208E+03  0.12442007260E+03  0.21905379826E+03  0.78260381990E+02 0.  0.
          5    1    3    3  501    0  0.14418501014E+01 -0.16469646459E+03 -0.12085081578E+03  0.20433798975E+03  0.47000000000E+01 0. -1.
        -13    1    4    4    0    0  0.74001846295E+02 -0.49158131409E+02 -0.92782224505E+02  0.12845752731E+03  0.00000000000E+00 0.  1.
         14    1    4    4    0    0 -0.15802454057E+02 -0.94204995759E+01  0.21742912114E+01  0.18525412513E+02  0.00000000000E+00 0. -1.
         -5    1    5    5    0  502 -0.25782360145E+02  0.64425793491E+02 -0.42142297639E+02  0.81323282102E+02  0.47000000000E+01 0.  1.
         11    1    6    6    0    0 -0.13364748094E+02  0.30958576903E+02 -0.71043143613E+01  0.34460430323E+02  0.00000000000E+00 0. -1.
        -12    1    6    6    0    0 -0.20494134100E+02  0.12789072518E+03  0.13152438696E+03  0.18459336793E+03  0.00000000000E+00 0.  1.
</event>
<event>
12    1  0.8133506E-002  0.2008567E+03  0.7818608E-02  0.1149028E+00
         21   -1    0    0  503  502  0.00000000000E+00  0.00000000000E+00  0.21710701945E+03  0.21710701945E+03  0.00000000000E+00 0.  1.
         21   -1    0    0  501  503 -0.00000000000E+00 -0.00000000000E+00 -0.21477594446E+03  0.21477594446E+03  0.00000000000E+00 0.  1.
          6    2    1    2  501    0 -0.25129887721E+02 -0.10039364630E+03 -0.78181452494E+02  0.21549054968E+03  0.17208556597E+03 0.  0.
         24    2    3    3    0    0  0.33474291773E+02 -0.67467755534E+02  0.19346206253E+01  0.11080416418E+03  0.81248961818E+02 0.  0.
         -6    2    1    2    0  502  0.25129887721E+02  0.10039364630E+03  0.80512527490E+02  0.21639241423E+03  0.17214242469E+03 0.  0.
        -24    2    5    5    0    0  0.56196838157E+02  0.13225108088E+02  0.41837493662E+02  0.11598644974E+03  0.91484930697E+02 0.  0.
          5    1    3    3  501    0 -0.58604179494E+02 -0.32925890768E+02 -0.80116073120E+02  0.10468638550E+03  0.47000000000E+01 0. -1.
        -11    1    4    4    0    0  0.70581334882E+01 -0.50327373598E+02 -0.35421536364E+02  0.61946323701E+02  0.00000000000E+00 0.  1.
         12    1    4    4    0    0  0.26416158285E+02 -0.17140381936E+02  0.37356156989E+02  0.48857840481E+02  0.00000000000E+00 0. -1.
         -5    1    5    5    0  502 -0.31066950436E+02  0.87168538214E+02  0.38675033828E+02  0.10040596449E+03  0.47000000000E+01 0.  1.
         13    1    6    6    0    0  0.73597596370E+02  0.31933073776E+02  0.41743168764E+02  0.90436826187E+02  0.00000000000E+00 0. -1.
        -14    1    6    6    0    0 -0.17400758213E+02 -0.18707965687E+02  0.94324897882E-01  0.25549623554E+02  0.00000000000E+00 0.  1.
</event>
<event>
12    1  0.8133506E-002  0.2948502E+03  0.7818608E-02  0.1088638E+00
         21   -1    0    0  501  502  0.00000000000E+00  0.00000000000E+00  0.68780736718E+03  0.68780736718E+03  0.00000000000E+00 0. -1.
         21   -1    0    0  502  503 -0.00000000000E+00 -0.00000000000E+00 -0.14829645650E+03  0.14829645650E+03  0.00000000000E+00 0. -1.
         -6    2    1    2    0  503  0.10803528187E+03  0.20656443357E+03  0.10213738828E+03  0.31203951216E+03  0.18054396617E+03 0.  0.
        -24    2    3    3    0    0  0.11277376082E+03  0.23101458920E+03  0.99876866387E+02  0.28659421295E+03  0.77943523800E+02 0.  0.
          6    2    1    2  501    0 -0.10803528187E+03 -0.20656443357E+03  0.43737352240E+03  0.52406431152E+03  0.17031534624E+03 0.  0.
         24    2    5    5    0    0  0.70927160489E+01 -0.77085335940E+02  0.13218165512E+03  0.17308930032E+03  0.80594418530E+02 0.  0.
          5    1    5    5  501    0 -0.11512799792E+03 -0.12947909763E+03  0.30519186728E+03  0.35097501120E+03  0.47000000000E+01 0. -1.
        -11    1    6    6    0    0 -0.12448006827E+02  0.13694020380E+02  0.16913685142E+02  0.25070935627E+02  0.00000000000E+00 0.  1.
         12    1    6    6    0    0  0.19540722876E+02 -0.90779356320E+02  0.11526796998E+03  0.14801836470E+03  0.00000000000E+00 0. -1.
         -5    1    3    3    0  503 -0.47384789466E+01 -0.24450155627E+02  0.22605218913E+01  0.25445299215E+02  0.47000000000E+01 0.  1.
         13    1    4    4    0    0  0.78622009008E+02  0.83801376769E+02  0.62963394338E+02  0.13102854680E+03  0.00000000000E+00 0. -1.
        -14    1    4    4    0    0  0.34151751812E+02  0.14721321243E+03  0.36913472049E+02  0.15556566615E+03  0.00000000000E+00 0.  1.
</event>
<event>
12    1  0.8133506E-002  0.3965194E+03  0.7818608E-02  0.1045137E+00
         21   -1    0    0  501  502  0.00000000000E+00  0.00000000000E+00  0.99265631492E+02  0.99265631492E+02  0.00000000000E+00 0.  1.
         21   -1    0    0  502  503 -0.00000000000E+00 -0.00000000000E+00 -0.20235744302E+04  0.20235744302E+04  0.00000000000E+00 0.  1.
         -6    2    1    2    0  503 -0.18298853921E+03  0.30447964261E+03 -0.14590476753E+04  0.15115336366E+04  0.17239825295E+03 0.  0.
        -24    2    3    3    0    0 -0.82737962293E+02  0.26209447663E+03 -0.10814105030E+04  0.11184959738E+04  0.77752700389E+02 0.  0.
          6    2    1    2  501    0  0.18298853921E+03 -0.30447964261E+03 -0.46526112344E+03  0.61130642509E+03  0.17616746048E+03 0.  0.
         24    2    5    5    0    0  0.19654101664E+03 -0.31391465858E+03 -0.44995362328E+03  0.58830427885E+03  0.80454193873E+02 0.  0.
          5    1    5    5  501    0 -0.13552477426E+02  0.94350159764E+01 -0.15307500160E+02  0.23002146248E+02  0.47000000000E+01 0. -1.
        -13    1    6    6    0    0  0.55994674293E+02 -0.10502396009E+03 -0.90833134302E+02  0.14972005220E+03  0.00000000000E+00 0.  1.
         14    1    6    6    0    0  0.14054634234E+03 -0.20889069849E+03 -0.35912048898E+03  0.43858422665E+03  0.00000000000E+00 0. -1.
         -5    1    3    3    0  503 -0.10025057692E+03  0.42385165980E+02 -0.37763717231E+03  0.39303766280E+03  0.47000000000E+01 0.  1.
         13    1    4    4    0    0 -0.22541240619E+02  0.12542472413E+02 -0.15691681120E+03  0.15902297564E+03  0.00000000000E+00 0. -1.
        -14    1    4    4    0    0 -0.60196721674E+02  0.24955200421E+03 -0.92449369178E+03  0.95947299819E+03  0.00000000000E+00 0.  1.
</event>
<event>
12    1  0.8133506E-002  0.3040786E+03  0.7818608E-02  0.1083324E+00
         21   -1    0    0  503  502  0.00000000000E+00  0.00000000000E+00  0.12498593721E+04  0.12498593721E+04  0.00000000000E+00 0. -1.
         21   -1    0    0  501  503 -0.00000000000E+00 -0.00000000000E+00 -0.74086336269E+02  0.74086336269E+02  0.00000000000E+00 0. -1.
          6    2    1    2  501    0  0.15755143479E+03  0.19358107699E+03  0.63016071074E+03  0.69932051684E+03  0.17219342595E+03 0.  0.
         24    2    3    3    0    0  0.56871051653E+02  0.24147583578E+02  0.27108974940E+03  0.28968861682E+03  0.81316789018E+02 0.  0.
         -6    2    1    2    0  502 -0.15755143479E+03 -0.19358107699E+03  0.54561232508E+03  0.62462519151E+03  0.17368860822E+03 0.  0.
        -24    2    5    5    0    0 -0.12973650667E+03 -0.12508167944E+03  0.24242508836E+03  0.31251875423E+03  0.80131520518E+02 0.  0.
          5    1    3    3  501    0  0.10068038314E+03  0.16943349341E+03  0.35907096134E+03  0.40963190002E+03  0.47000000000E+01 0. -1.
        -13    1    4    4    0    0  0.64911681531E+02 -0.32379665451E+01  0.12552934878E+03  0.14135638730E+03  0.00000000000E+00 0.  1.
         14    1    4    4    0    0 -0.80406298773E+01  0.27385550123E+02  0.14556040062E+03  0.14833222951E+03  0.00000000000E+00 0. -1.
         -5    1    5    5    0  502 -0.27814928121E+02 -0.68499397550E+02  0.30318723671E+03  0.31210643729E+03  0.47000000000E+01 0.  1.
         11    1    6    6    0    0 -0.37365544711E+02 -0.17765688300E+02  0.11430913044E+03  0.12156636424E+03  0.00000000000E+00 0. -1.
        -12    1    6    6    0    0 -0.92370961961E+02 -0.10731599114E+03  0.12811595792E+03  0.19095238999E+03  0.00000000000E+00 0.  1.
</event>
<event>
12    1  0.8133506E-002  0.1757672E+03  0.7818608E-02  0.1172150E+00
         21   -1    0    0  503  502  0.00000000000E+00  0.00000000000E+00  0.22017099720E+03  0.22017099720E+03  0.00000000000E+00 0. -1.
         21   -1    0    0  501  503 -0.00000000000E+00 -0.00000000000E+00 -0.14103409413E+03  0.14103409413E+03  0.00000000000E+00 0.  1.
          6    2    1    2  501    0  0.84375631029E+01  0.28823582658E+02  0.22084332866E+02  0.17641030173E+03  0.17242646378E+03 0.  0.
         24    2    3    3    0    0  0.61939607521E+01  0.58642961788E+02  0.68501691879E+02  0.12099468713E+03  0.80435504643E+02 0.  0.
         -6    2    1    2    0  502 -0.84375631029E+01 -0.28823582658E+02  0.57052570205E+02  0.18479478960E+03  0.17318235218E+03 0.  0.
        -24    2    5    5    0    0  0.15954943308E+02 -0.51868798688E+02 -0.20531735979E+02  0.10013375418E+03  0.81610563357E+02 0.  0.
          5    1    3    3  501    0  0.22436023507E+01 -0.29819379131E+02 -0.46417359013E+02  0.55415614596E+02  0.47000000000E+01 0. -1.
        -13    1    4    4    0    0 -0.15420404020E+02 -0.93254421755E+01 -0.48729768846E+01  0.18668118160E+02  0.00000000000E+00 0.  1.
         14    1    4    4    0    0  0.21614364772E+02  0.67968403964E+02  0.73374668764E+02  0.10232656897E+03  0.00000000000E+00 0. -1.
         -5    1    5    5    0  502 -0.24392506411E+02  0.23045216031E+02  0.77584306185E+02  0.84661035412E+02  0.47000000000E+01 0.  1.
         13    1    6    6    0    0  0.27416522201E+02 -0.20109679458E+02  0.25887086239E+02  0.42734133096E+02  0.00000000000E+00 0. -1.
        -14    1    6    6    0    0 -0.11461578892E+02 -0.31759119230E+02 -0.46418822219E+02  0.57399621089E+02  0.00000000000E+00 0.  1.
</event>
<event>
12    1  0.8133506E-002  0.1871712E+03  0.7818608E-02  0.1162246E+00
         21   -1    0    0  503  502  0.00000000000E+00  0.00000000000E+00  0.26907327617E+03  0.26907327617E+03  0.00000000000E+00 0.  1.
         21   -1    0    0  501  503 -0.00000000000E+00 -0.00000000000E+00 -0.24511009484E+03  0.24511009484E+03  0.00000000000E+00 0.  1.
          6    2    1    2  501    0 -0.22493881636E+01  0.60128699569E+02 -0.16667106710E+03  0.25062385389E+03  0.17723586339E+03 0.  0.
         24    2    3    3    0    0  0.12617354856E+02  0.21858941293E+02 -0.18585365023E+03  0.20506448666E+03  0.82902674422E+02 0.  0.
         -6    2    1    2    0  502  0.22493881636E+01 -0.60128699569E+02  0.19063424843E+03  0.26355951712E+03  0.17176053718E+03 0.  0.
        -24    2    5    5    0    0 -0.17232677628E+02 -0.10385343683E+03  0.12860385850E+03  0.18506580520E+03  0.81411905231E+02 0.  0.
          5    1    3    3  501    0 -0.14866743020E+02  0.38269758276E+02  0.19182583133E+02  0.45559367228E+02  0.47000000000E+01 0. -1.
        -11    1    4    4    0    0 -0.55327710927E-01 -0.20323670660E+02 -0.14005997673E+03  0.14152685870E+03  0.00000000000E+00 0.  1.
         12    1    4    4    0    0  0.12672682567E+02  0.42182611953E+02 -0.45793673500E+02  0.63537627963E+02  0.00000000000E+00 0. -1.
         -5    1    5    5    0  502  0.19482065791E+02  0.43724737263E+02  0.62030389923E+02  0.78493711915E+02  0.47000000000E+01 0.  1.
         13    1    6    6    0    0  0.32671707079E+02 -0.47726029945E+02  0.60141470674E+02  0.83439863810E+02  0.00000000000E+00 0. -1.
        -14    1    6    6    0    0 -0.49904384706E+02 -0.56127406887E+02  0.68462387830E+02  0.10162594139E+03  0.00000000000E+00 0.  1.
</event>
<event>
12    1  0.8133506E-002  0.4010525E+03  0.7818608E-02  0.1043447E+00
         21   -1    0    0  503  502  0.00000000000E+00  0.00000000000E+00  0.16126901352E+04  0.16126901352E+04  0.00000000000E+00 0.  1.
         21   -1    0    0  501  503 -0.00000000000E+00 -0.00000000000E+00 -0.24830225191E+03  0.24830225191E+03  0.00000000000E+00 0.  1.
          6    2    1    2  501    0  0.36142820741E+03  0.11933965594E+02 -0.37654941041E+02  0.40281636918E+03  0.17340808531E+03 0.  0.
         24    2    3    3    0    0  0.32514311962E+03  0.24506266133E+02 -0.80062880481E+02  0.34541259174E+03  0.81124523966E+02 0.  0.
         -6    2    1    2    0  502 -0.36142820741E+03 -0.11933965594E+02  0.14020428243E+04  0.14581760179E+04  0.17257012880E+03 0.  0.
        -24    2    5    5    0    0 -0.13929612698E+03  0.47766877401E+02  0.67868503164E+03  0.69911380832E+03  0.80384446505E+02 0.  0.
          5    1    3    3  501    0  0.36285087796E+02 -0.12572300539E+02  0.42407939440E+02  0.57403777443E+02  0.47000000000E+01 0. -1.
        -11    1    4    4    0    0  0.22637096746E+03 -0.16102933681E+02 -0.35540075043E+02  0.22970898179E+03  0.00000000000E+00 0.  1.
         12    1    4    4    0    0  0.98772152157E+02  0.40609199814E+02 -0.44522805438E+02  0.11570360995E+03  0.00000000000E+00 0. -1.
         -5    1    5    5    0  502 -0.22213208043E+03 -0.59700842995E+02  0.72335779266E+03  0.75906220958E+03  0.47000000000E+01 0.  1.
         13    1    6    6    0    0 -0.57519704273E+02  0.29170423303E+02  0.14256827107E+03  0.15647728874E+03  0.00000000000E+00 0. -1.
        -14    1    6    6    0    0 -0.81776422711E+02  0.18596454097E+02  0.53611676057E+03  0.54263651958E+03  0.00000000000E+00 0.  1.
</event>
<event>
12    1  0.8133506E-002  0.1779188E+03  0.7818608E-02  0.1170988E+00
         21   -1    0    0  503  502  0.00000000000E+00  0.00000000000E+00  0.52704921073E+03  0.52704921073E+03  0.00000000000E+00 0. -1.
         21   -1    0    0  501  503 -0.00000000000E+00 -0.00000000000E+00 -0.60203604158E+02  0.60203604158E+02  0.00000000000E+00 0. -1.
          6    2    1    2  501    0 -0.19546137117E+02 -0.10321769503E+02  0.18711402015E+03  0.25819909453E+03  0.17654043582E+03 0.  0.
         24    2    3    3    0    0  0.46836638992E+02  0.80510913869E+01  0.15763833443E+03  0.18313151811E+03  0.80179907823E+02 0.  0.
         -6    2    1    2    0  502  0.19546137117E+02  0.10321769503E+02  0.27973158643E+03  0.32905372036E+03  0.17186622715E+03 0.  0.
        -24    2    5    5    0    0  0.36919578633E+02  0.39894017031E+02  0.27757496011E+03  0.29436805573E+03  0.81548181303E+02 0.  0.
          5    1    3    3  501    0 -0.66382776109E+02 -0.18372860890E+02  0.29475685716E+02  0.75067576420E+02  0.47000000000E+01 0. -1.
        -11    1    4    4    0    0 -0.41842385490E+01  0.33910534542E+02  0.42192588619E+02  0.54292234615E+02  0.00000000000E+00 0.  1.
         12    1    4    4    0    0  0.51020877541E+02 -0.25859443155E+02  0.11544574581E+03  0.12883928350E+03  0.00000000000E+00 0. -1.
         -5    1    5    5    0  502 -0.17373441516E+02 -0.29572247527E+02  0.21566263219E+01  0.34685664633E+02  0.47000000000E+01 0.  1.
         11    1    6    6    0    0  0.70448423782E+01  0.11539627865E+02  0.23406403317E+03  0.23445418410E+03  0.00000000000E+00 0. -1.
        -12    1    6    6    0    0  0.29874736255E+02  0.28354389165E+02  0.43510926935E+02  0.59913871632E+02  0.00000000000E+00 0.  1.
</event>
<event>
12    1  0.8133506E-002  0.1897038E+03  0.7818608E-02  0.1158820E+00
         21   -1    0    0  503  502  0.00000000000E+00  0.00000000000E+00  0.88933481379E+03  0.88933481379E+03  0.00000000000E+00 0.  1.
         21   -1    0    0  501  503 -0.00000000000E+00 -0.00000000000E+00 -0.12352189934E+03  0.12352189934E+03  0.00000000000E+00 0.  1.
          6    2    1    2  501    0 -0.17489258797E+02 -0.77955880915E+02 -0.32446678163E+02  0.19245857178E+03  0.17205964484E+03 0.  0.
         24    2    3    3    0    0 -0.17305568763E+02  0.10804185193E+02 -0.54178354524E+02  0.10095590059E+03  0.82707839026E+02 0.  0.
         -6    2    1    2    0  502  0.17489258797E+02  0.77955880915E+02  0.79825959261E+03  0.82039814135E+03  0.17161509141E+03 0.  0.
        -24    2    5    5    0    0  0.51351937590E+02  0.17260640492E+02  0.64315065797E+03  0.65036442461E+03  0.79976026053E+02 0.  0.
          5    1    3    3  501    0 -0.18369003429E+00 -0.88760066108E+02  0.21731676361E+02  0.91502671190E+02  0.47000000000E+01 0. -1.
        -11    1    4    4    0    0  0.19014082421E+02 -0.26631206097E+02 -0.16770291854E+02  0.36769541164E+02  0.00000000000E+00 0.  1.
         12    1    4    4    0    0 -0.36319651184E+02  0.37435391290E+02 -0.37408062671E+02  0.64186359423E+02  0.00000000000E+00 0. -1.
         -5    1    5    5    0  502 -0.33862678793E+02  0.60695240423E+02  0.15510893464E+03  0.17003371674E+03  0.47000000000E+01 0.  1.
         13    1    6    6    0    0  0.31122473532E+02 -0.26855445661E+02  0.17782000289E+03  0.18250966206E+03  0.00000000000E+00 0. -1.
        -14    1    6    6    0    0  0.20229464057E+02  0.44116086152E+02  0.46533065509E+03  0.46785476255E+03  0.00000000000E+00 0.  1.
</event>
<event>
12    1  0.8133506E-002  0.2692353E+03  0.7818608E-02  0.1102588E+00
         21   -1    0    0  501  502  0.00000000000E+00  0.00000000000E+00  0.26189059585E+03  0.26189059585E+03  0.00000000000E+00 0. -1.
         21   -1    0    0  502  503 -0.00000000000E+00 -0.00000000000E+00 -0.46002785823E+03  0.46002785823E+03  0.00000000000E+00 0. -1.
         -6    2    1    2    0  503 -0.16475161750E+03 -0.11132248913E+03 -0.33129950714E+03  0.42690401072E+03  0.18152652391E+03 0.  0.
        -24    2    3    3    0    0 -0.11795215123E+03 -0.10305789228E+02 -0.25319337497E+03  0.29082601255E+03  0.80336574350E+02 0.  0.
          6    2    1    2  501    0  0.16475161750E+03  0.11132248913E+03  0.13316224477E+03  0.29501444336E+03  0.17252694371E+03 0.  0.
         24    2    5    5    0    0  0.16735338022E+03  0.55901528562E+02  0.57397358501E+02  0.20098965923E+03  0.77267403154E+02 0.  0.
          5    1    5    5  501    0 -0.26017627191E+01  0.55420960568E+02  0.75764886268E+02  0.94024784130E+02  0.47000000000E+01 0. -1.
        -13    1    6    6    0    0  0.68559192959E+02  0.36415542291E+02 -0.12197698997E+02  0.78582685882E+02  0.00000000000E+00 0.  1.
         14    1    6    6    0    0  0.98794187257E+02  0.19485986272E+02  0.69595057498E+02  0.12240697335E+03  0.00000000000E+00 0. -1.
         -5    1    3    3    0  503 -0.46799466268E+02 -0.10101669990E+03 -0.78106132177E+02  0.13607799817E+03  0.47000000000E+01 0.  1.
         13    1    4    4    0    0 -0.91764205489E+02 -0.25578645294E+02 -0.23913053982E+03  0.25740697656E+03  0.00000000000E+00 0. -1.
        -14    1    4    4    0    0 -0.26187945740E+02  0.15272856066E+02 -0.14062835143E+02  0.33419035993E+02  0.00000000000E+00 0.  1.
</event>
<event>
12    1  0.8133506E-002  0.2119520E+03  0.7818608E-02  0.1140084E+00
         21   -1    0    0  503  502  0.00000000000E+00  0.00000000000E+00  0.28329446566E+03  0.28329446566E+03  0.00000000000E+00 0. -1.
         21   -1    0    0  501  503 -0.00000000000E+00 -0.00000000000E+00 -0.17684264717E+03  0.17684264717E+03  0.00000000000E+00 0. -1.
          6    2    1    2  501    0 -0.26767673165E+02 -0.12036753570E+03  0.12761760005E+03  0.24740638243E+03  0.17239145642E+03 0.  0.
         24    2    3    3    0    0 -0.66787024620E+02 -0.87192940800E+02  0.30512332860E+02  0.13716290120E+03  0.76285932029E+02 0.  0.
         -6    2    1    2    0  502  0.26767673165E+02  0.12036753570E+03 -0.21165781562E+02  0.21273073041E+03  0.17205092669E+03 0.  0.
        -24    2    5    5    0    0  0.82351657116E+02  0.99794847067E+02 -0.21048647481E+02  0.15327554973E+03  0.79432623350E+02 0.  0.
          5    1    3    3  501    0  0.40019351456E+02 -0.33174594900E+02  0.97105267192E+02  0.11024348123E+03  0.47000000000E+01 0. -1.
        -11    1    4    4    0    0 -0.22266242587E+02 -0.70753079235E+02 -0.98963437210E+01  0.74831286233E+02  0.00000000000E+00 0.  1.
         12    1    4    4    0    0 -0.44520782033E+02 -0.16439861565E+02  0.40408676581E+02  0.62331614965E+02  0.00000000000E+00 0. -1.
         -5    1    5    5    0  502 -0.55583983951E+02  0.20572688633E+02 -0.11713408144E+00  0.59455180682E+02  0.47000000000E+01 0.  1.
         13    1    6    6    0    0  0.41428340708E+02  0.21519888184E+01 -0.22904832309E+02  0.47387443619E+02  0.00000000000E+00 0. -1.
        -14    1    6    6    0    0  0.40923316408E+02  0.97642858249E+02  0.18561848279E+01  0.10588810611E+03  0.00000000000E+00 0.  1.
</event>
<event>
12    1  0.8133506E-002  0.1913205E+03  0.7818608E-02  0.1157636E+00
         21   -1    0    0  501  502  0.00000000000E+00  0.00000000000E+00  0.11761443310E+03  0.11761443310E+03  0.00000000000E+00 0.  1.
         21   -1    0    0  502  503 -0.00000000000E+00 -0.00000000000E+00 -0.45227219153E+03  0.45227219153E+03  0.00000000000E+00 0.  1.
         -6    2    1    2    0  503 -0.68938586106E+02 -0.43616549096E+02 -0.72176434683E+01  0.19145662080E+03  0.17305667067E+03 0.  0.
        -24    2    3    3    0    0 -0.48232108141E+02 -0.87567391899E+01 -0.68789395093E+02  0.11758419581E+03  0.81798811054E+02 0.  0.
          6    2    1    2  501    0  0.68938586106E+02  0.43616549096E+02 -0.32744011496E+03  0.37843000383E+03  0.17128136765E+03 0.  0.
         24    2    5    5    0    0  0.65601635427E+02  0.78784760816E+02 -0.31605819416E+03  0.34101908996E+03  0.76750403993E+02 0.  0.
          5    1    5    5  501    0  0.33369506796E+01 -0.35168211720E+02 -0.11381920801E+02  0.37410913869E+02  0.47000000000E+01 0. -1.
        -13    1    6    6    0    0  0.10558136063E+02  0.54828467077E+02 -0.80750785096E+02  0.98174967954E+02  0.00000000000E+00 0.  1.
         14    1    6    6    0    0  0.55043499363E+02  0.23956293739E+02 -0.23530740906E+03  0.24284412200E+03  0.00000000000E+00 0. -1.
         -5    1    3    3    0  503 -0.20706477965E+02 -0.34859809906E+02  0.61571751625E+02  0.73872424995E+02  0.47000000000E+01 0.  1.
         13    1    4    4    0    0 -0.39328678928E+02  0.29185800070E+02 -0.15118129304E+02  0.51255377723E+02  0.00000000000E+00 0. -1.
        -14    1    4    4    0    0 -0.89034292132E+01 -0.37942539260E+02 -0.53671265790E+02  0.66328818086E+02  0.00000000000E+00 0.  1.
</event>
<event>
12    1  0.8133506E-002  0.2425563E+03  0.7818608E-02  0.1118279E+00
         21   -1    0    0  503  502  0.00000000000E+00  0.00000000000E+00  0.66089372580E+02  0.66089372580E+02  0.00000000000E+00 0. -1.
         21   -1    0    0  501  503 -0.00000000000E+00 -0.00000000000E+00 -0.91340731727E+03  0.91340731727E+03  0.00000000000E+00 0. -1.
          6    2    1    2  501    0  0.10782734455E+03  0.13080864893E+03 -0.50716655713E+03  0.56172101653E+03  0.17197367494E+03 0.  0.
         24    2    3    3    0    0  0.50737463774E+02  0.87732899631E+02 -0.45524293644E+03  0.47321719147E+03  0.80106349408E+02 0.  0.
         -6    2    1    2    0  502 -0.10782734455E+03 -0.13080864893E+03 -0.34015138756E+03  0.41777567332E+03  0.17348172206E+03 0.  0.
        -24    2    5    5    0    0 -0.79584644186E+02 -0.99203300469E+02 -0.12522976397E+03  0.19866396103E+03  0.87234541405E+02 0.  0.
          5    1    3    3  501    0  0.57089880781E+02  0.43075749299E+02 -0.51923620692E+02  0.88503825064E+02  0.47000000000E+01 0. -1.
        -11    1    4    4    0    0 -0.17780112390E+02  0.12451569493E+02 -0.38255050628E+02  0.43984348102E+02  0.00000000000E+00 0.  1.
         12    1    4    4    0    0  0.68517576164E+02  0.75281330138E+02 -0.41698788581E+03  0.42923284336E+03  0.00000000000E+00 0. -1.
         -5    1    5    5    0  502 -0.28242700369E+02 -0.31605348460E+02 -0.21492162359E+03  0.21911171229E+03  0.47000000000E+01 0.  1.
         11    1    6    6    0    0 -0.27346114323E+02 -0.66402506130E+02 -0.11580686053E+03  0.13626566601E+03  0.00000000000E+00 0. -1.
        -12    1    6    6    0    0 -0.52238529863E+02 -0.32800794339E+02 -0.94229034396E+01  0.62398295015E+02  0.00000000000E+00 0.  1.
</event>
<event>
12    1  0.8133506E-002  0.1833802E+03  0.7818608E-02  0.1165763E+00
         21   -1    0    0  503  502  0.00000000000E+00  0.00000000000E+00  0.14550358477E+02  0.14550358477E+02  0.00000000000E+00 0.  1.
         21   -1    0    0  501  503 -0.00000000000E+00 -0.00000000000E+00 -0.23758685416E+04  0.23758685416E+04  0.00000000000E+00 0.  1.
          6    2    1    2  501    0 -0.51728544711E+01  0.47817060009E+02 -0.14722836815E+04  0.14836601769E+04  0.17696059498E+03 0.  0.
         24    2    3    3    0    0 -0.25293005257E+02  0.60092684498E+02 -0.14417571515E+04  0.14448082727E+04  0.67501068842E+02 0.  0.
         -6    2    1    2    0  502  0.51728544711E+01 -0.47817060009E+02 -0.88903450169E+03  0.90675872321E+03  0.17180165092E+03 0.  0.
        -24    2    5    5    0    0  0.48760316504E+01 -0.57613823415E+02 -0.26305149245E+03  0.28068134577E+03  0.79011403287E+02 0.  0.
          5    1    3    3  501    0  0.20120150785E+02 -0.12275624489E+02 -0.30526529983E+02  0.38851904162E+02  0.47000000000E+01 0. -1.
        -13    1    4    4    0    0 -0.81392230737E+01  0.26821221839E+02 -0.15546076471E+03  0.15796732022E+03  0.00000000000E+00 0.  1.
         14    1    4    4    0    0 -0.17153782183E+02  0.33271462659E+02 -0.12862963868E+04  0.12868409525E+04  0.00000000000E+00 0. -1.
         -5    1    5    5    0  502  0.29682282077E+00  0.97967634057E+01 -0.62598300925E+03  0.62607737744E+03  0.47000000000E+01 0.  1.
         11    1    6    6    0    0 -0.22490513962E+02  0.97343365178E+01 -0.81890932935E+02  0.85479268964E+02  0.00000000000E+00 0. -1.
        -12    1    6    6    0    0  0.27366545612E+02 -0.67348159933E+02 -0.18116055951E+03  0.19520207680E+03  0.00000000000E+00 0.  1.
</event>
<event>
12    1  0.8133506E-002  0.1981905E+03  0.7818608E-02  0.1151508E+00
         21   -1    0    0  501  502  0.00000000000E+00  0.00000000000E+00  0.51813614013E+02  0.51813614013E+02  0.00000000000E+00 0. -1.
         21   -1    0    0  502  503 -0.00000000000E+00 -0.00000000000E+00 -0.90929749550E+03  0.90929749550E+03  0.00000000000E+00 0.  1.
         -6    2    1    2    0  503 -0.67733727566E+02  0.63858443772E+02 -0.22911476637E+03  0.30222779720E+03  0.17373055729E+03 0.  0.
        -24    2    3    3    0    0 -0.71087870014E+02 -0.22347320711E+02 -0.11712535566E+03  0.16078380752E+03  0.81118406165E+02 0.  0.
          6    2    1    2  501    0  0.67733727566E+02 -0.63858443772E+02 -0.62836911511E+03  0.65888331231E+03  0.17496775625E+03 0.  0.
         24    2    5    5    0    0  0.85807822921E+02 -0.28287788959E+02 -0.24049881130E+03  0.26893792257E+03  0.79528274711E+02 0.  0.
          5    1    5    5  501    0 -0.18074095355E+02 -0.35570654813E+02 -0.38787030381E+03  0.38994538975E+03  0.47000000000E+01 0. -1.
        -11    1    6    6    0    0  0.32655232516E+02  0.27671290976E+02 -0.96302184798E+02  0.10538584038E+03  0.00000000000E+00 0.  1.
         12    1    6    6    0    0  0.53152590405E+02 -0.55959079934E+02 -0.14419662650E+03  0.16355208219E+03  0.00000000000E+00 0. -1.
         -5    1    3    3    0  503  0.33541424479E+01  0.86205764482E+02 -0.11198941072E+03  0.14144398967E+03  0.47000000000E+01 0.  1.
         11    1    4    4    0    0 -0.32496418888E+02  0.24893584846E+02 -0.18736679833E+02  0.45019673235E+02  0.00000000000E+00 0. -1.
        -12    1    4    4    0    0 -0.38591451126E+02 -0.47240905557E+02 -0.98388675823E+02  0.11576413429E+03  0.00000000000E+00 0.  1.
</event>
<event>
12    1  0.8133506E-002  0.2283091E+03  0.7818608E-02  0.1128206E+00
         21   -1    0    0  501  502  0.00000000000E+00  0.00000000000E+00  0.33093649670E+03  0.33093649670E+03  0.00000000000E+00 0.  1.
         21   -1    0    0  502  503 -0.00000000000E+00 -0.00000000000E+00 -0.18079994814E+03  0.18079994814E+03  0.00000000000E+00 0.  1.
         -6    2    1    2    0  503 -0.61365070459E+02 -0.13664700609E+03 -0.19836403950E+02  0.22710361356E+03  0.16954200726E+03 0.  0.
        -24    2    3    3    0    0 -0.55973350460E+02 -0.10196077209E+03 -0.75073297421E+02  0.16148799138E+03  0.83146595657E+02 0.  0.
          6    2    1    2  501    0  0.61365070459E+02  0.13664700609E+03  0.16997295250E+03  0.28463283128E+03  0.17229906533E+03 0.  0.
         24    2    5    5    0    0 -0.76081133910E+01  0.13661107379E+03  0.13274862909E+03  0.20611505218E+03  0.78362920676E+02 0.  0.
          5    1    5    5  501    0  0.68973183850E+02  0.35932296122E-01  0.37224323409E+02  0.78517779100E+02  0.47000000000E+01 0. -1.
        -13    1    6    6    0    0  0.11630574422E+02  0.53277091492E+02  0.83721788228E+01  0.55170754186E+02  0.00000000000E+00 0.  1.
         14    1    6    6    0    0 -0.19238687813E+02  0.83333982298E+02  0.12437645027E+03  0.15094429799E+03  0.00000000000E+00 0. -1.
         -5    1    3    3    0  503 -0.53917199986E+01 -0.34686233999E+02  0.55236893471E+02  0.65615622179E+02  0.47000000000E+01 0.  1.
         13    1    4    4    0    0 -0.61377368656E+02 -0.64611206993E+02 -0.84263777990E+02  0.12264653983E+03  0.00000000000E+00 0. -1.
        -14    1    4    4    0    0  0.54040181955E+01 -0.37349565095E+02  0.91904805691E+01  0.38841451550E+02  0.00000000000E+00 0.  1.
</event>
<event>
12    1  0.8133506E-002  0.1988360E+03  0.7818608E-02  0.1151015E+00
         21   -1    0    0  501  502  0.00000000000E+00  0.00000000000E+00  0.35442353905E+02  0.35442353905E+02  0.00000000000E+00 0.  1.
         21   -1    0    0  502  503 -0.00000000000E+00 -0.00000000000E+00 -0.11090757824E+04  0.11090757824E+04  0.00000000000E+00 0.  1.
         -6    2    1    2    0  503 -0.12988196632E+02  0.10077741073E+03 -0.51618721436E+03  0.55267182491E+03  0.16932845603E+03 0.  0.
        -24    2    3    3    0    0 -0.34906508282E+01  0.10399543204E+03 -0.22102868261E+03  0.25730559817E+03  0.80779067738E+02 0.  0.
          6    2    1    2  501    0  0.12988196632E+02 -0.10077741073E+03 -0.55744621411E+03  0.59184631136E+03  0.17091224323E+03 0.  0.
         24    2    5    5    0    0 -0.76348441775E+00 -0.13046693294E+03 -0.35548341659E+03  0.38719627339E+03  0.80810216919E+02 0.  0.
          5    1    5    5  501    0  0.13751681050E+02  0.29689522212E+02 -0.20196279752E+03  0.20465003797E+03  0.47000000000E+01 0. -1.
        -11    1    6    6    0    0  0.39444995388E+02 -0.76506949056E+02 -0.19261703411E+03  0.21097521832E+03  0.00000000000E+00 0.  1.
         12    1    6    6    0    0 -0.40208479806E+02 -0.53959983881E+02 -0.16286638248E+03  0.17622105507E+03  0.00000000000E+00 0. -1.
         -5    1    3    3    0  503 -0.94975458041E+01 -0.32180213132E+01 -0.29515853175E+03  0.29536622674E+03  0.47000000000E+01 0.  1.
         13    1    4    4    0    0 -0.75542646640E+00 -0.72488996535E+01 -0.66400502436E+02  0.66799280977E+02  0.00000000000E+00 0. -1.
        -14    1    4    4    0    0 -0.27352243618E+01  0.11124433169E+03 -0.15462818017E+03  0.19050631719E+03  0.00000000000E+00 0.  1.
</event>
<event>
12    1  0.8133506E-002  0.2024555E+03  0.7818608E-02  0.1147715E+00
         21   -1    0    0  501  502  0.00000000000E+00  0.00000000000E+00  0.13920406959E+04  0.13920406959E+04  0.00000000000E+00 0. -1.
         21   -1    0    0  502  503 -0.00000000000E+00 -0.00000000000E+00 -0.29473952257E+02  0.29473952257E+02  0.00000000000E+00 0. -1.
         -6    2    1    2    0  503 -0.28944553338E+02  0.10159045947E+03  0.65132875439E+03  0.68202313203E+03  0.17253404798E+03 0.  0.
        -24    2    3    3    0    0 -0.53658776657E+02  0.13177143663E+03  0.51589312066E+03  0.54100332811E+03  0.79346791052E+02 0.  0.
          6    2    1    2  501    0  0.28944553338E+02 -0.10159045947E+03  0.71123798928E+03  0.73949151615E+03  0.17271310443E+03 0.  0.
         24    2    5    5    0    0 -0.43174981745E+02 -0.46882507061E+02  0.25782835883E+03  0.27711010391E+03  0.79072742187E+02 0.  0.
          5    1    5    5  501    0  0.72119535084E+02 -0.54707952406E+02  0.45340963045E+03  0.46238141223E+03  0.47000000000E+01 0. -1.
        -11    1    6    6    0    0 -0.12157515265E+02  0.21590851061E+02  0.87305959371E+02  0.90754066403E+02  0.00000000000E+00 0.  1.
         12    1    6    6    0    0 -0.31017466480E+02 -0.68473358123E+02  0.17052239946E+03  0.18635603751E+03  0.00000000000E+00 0. -1.
         -5    1    3    3    0  503  0.24714223318E+02 -0.30180977164E+02  0.13543563372E+03  0.14101980392E+03  0.47000000000E+01 0.  1.
         11    1    4    4    0    0 -0.26480239041E+02  0.19464012051E+02  0.42567373956E+02  0.53777617559E+02  0.00000000000E+00 0. -1.
        -12    1    4    4    0    0 -0.27178537616E+02  0.11230742458E+03  0.47332574671E+03  0.48722571055E+03  0.00000000000E+00 0.  1.
</event>
<event>
12    1  0.8133506E-002  0.1861816E+03  0.7818608E-02  0.1162159E+00
         21   -1    0    0  503  502  0.00000000000E+00  0.00000000000E+00  0.30309162047E+03  0.30309162047E+03  0.00000000000E+00 0. -1.
         21   -1    0    0  501  503 -0.00000000000E+00 -0.00000000000E+00 -0.12582580365E+03  0.12582580365E+03  0.00000000000E+00 0. -1.
          6    2    1    2  501    0 -0.34049397178E+02 -0.63240148098E+02  0.15508048522E+03  0.24230880942E+03  0.17176997539E+03 0.  0.
         24    2    3    3    0    0  0.32930354484E+02  0.63801588921E+01  0.57799898244E+02  0.10512689778E+03  0.81152459763E+02 0.  0.
         -6    2    1    2    0  502  0.34049397178E+02  0.63240148098E+02  0.22185331597E+02  0.18660861470E+03  0.17079785819E+03 0.  0.
        -24    2    5    5    0    0  0.56793735857E+02 -0.19487271533E+01  0.10669184302E+02  0.11645445554E+03  0.10108651123E+03 0.  0.
          5    1    3    3  501    0 -0.66979751663E+02 -0.69620306991E+02  0.97280586975E+02  0.13718191164E+03  0.47000000000E+01 0. -1.
        -13    1    4    4    0    0  0.46553472239E+02  0.15132621157E+02  0.69600399734E+02  0.85090761213E+02  0.00000000000E+00 0.  1.
         14    1    4    4    0    0 -0.13623117755E+02 -0.87524622652E+01 -0.11800501490E+02  0.20036136566E+02  0.00000000000E+00 0. -1.
         -5    1    5    5    0  502 -0.22744338678E+02  0.65188875252E+02  0.11516147295E+02  0.70154159157E+02  0.47000000000E+01 0.  1.
         13    1    6    6    0    0  0.25809660363E+02  0.46090933753E+02 -0.13290394185E+02  0.54471527608E+02  0.00000000000E+00 0. -1.
        -14    1    6    6    0    0  0.30984075493E+02 -0.48039660907E+02  0.23959578487E+02  0.61982927936E+02  0.00000000000E+00 0.  1.
</event>
<event>
12    1  0.8133506E-002  0.1983954E+03  0.7818608E-02  0.1151141E+00
         21   -1    0    0  501  502  0.00000000000E+00  0.00000000000E+00  0.13944580636E+03  0.13944580636E+03  0.00000000000E+00 0.  1.
         21   -1    0    0  502  503 -0.00000000000E+00 -0.00000000000E+00 -0.34125001120E+03  0.34125001120E+03  0.00000000000E+00 0.  1.
         -6    2    1    2    0  503  0.88806988775E+02 -0.42589503460E+02 -0.20110161840E+03  0.28249355564E+03  0.17222137207E+03 0.  0.
        -24    2    3    3    0    0  0.53311171587E+02  0.12009370581E+02 -0.36911102170E+02  0.10579718980E+03  0.82730344540E+02 0.  0.
          6    2    1    2  501    0 -0.88806988775E+02  0.42589503460E+02 -0.70258644408E+00  0.19820226192E+03  0.17199737191E+03 0.  0.
         24    2    5    5    0    0 -0.11684633087E+03  0.54772950518E+02  0.30344411815E+02  0.15437707295E+03  0.79109772952E+02 0.  0.
          5    1    5    5  501    0  0.28039342099E+02 -0.12183447058E+02 -0.31046998259E+02  0.43825188972E+02  0.47000000000E+01 0. -1.
        -11    1    6    6    0    0 -0.47442119895E+02  0.39340902172E+02  0.51371255083E+02  0.80233828106E+02  0.00000000000E+00 0.  1.
         12    1    6    6    0    0 -0.69404210979E+02  0.15432048347E+02 -0.21026843269E+02  0.74143244842E+02  0.00000000000E+00 0. -1.
         -5    1    3    3    0  503  0.35495817188E+02 -0.54598874041E+02 -0.16419051623E+03  0.17669636585E+03  0.47000000000E+01 0.  1.
         13    1    4    4    0    0  0.21491362410E+02 -0.27758138092E+02  0.10054743870E+02  0.36516992796E+02  0.00000000000E+00 0. -1.
        -14    1    4    4    0    0  0.31819809177E+02  0.39767508673E+02 -0.46965846040E+02  0.69280197000E+02  0.00000000000E+00 0.  1.
</event>
<event>
12    1  0.8133506E-002  0.2602541E+03  0.7818608E-02  0.1107648E+00
         21   -1    0    0  503  502  0.00000000000E+00  0.00000000000E+00  0.40682951874E+03  0.40682951874E+03  0.00000000000E+00 0. -1.
         21   -1    0    0  501  503 -0.00000000000E+00 -0.00000000000E+00 -0.48254479115E+03  0.48254479115E+03  0.00000000000E+00 0.  1.
          6    2    1    2  501    0 -0.19502919086E+03  0.27179932558E+01 -0.39942282840E+03  0.47672925429E+03  0.17230325961E+03 0.  0.
         24    2    3    3    0    0 -0.14825976081E+03  0.11609040602E+02 -0.16346315495E+03  0.23596902542E+03  0.82737243313E+02 0.  0.
         -6    2    1    2    0  502  0.19502919086E+03 -0.27179932558E+01  0.32370755599E+03  0.41264505560E+03  0.16566709790E+03 0.  0.
        -24    2    5    5    0    0  0.99622653048E+02 -0.60023744363E+02  0.22072069124E+03  0.26093895526E+03  0.76446006727E+02 0.  0.
          5    1    3    3  501    0 -0.46769430048E+02 -0.88910473457E+01 -0.23595967345E+03  0.24076022887E+03  0.47000000000E+01 0. -1.
        -11    1    4    4    0    0 -0.86482030227E+02 -0.25155303642E+02 -0.12606619603E+03  0.15493423326E+03  0.00000000000E+00 0.  1.
         12    1    4    4    0    0 -0.61777730584E+02  0.36764344244E+02 -0.37396958914E+02  0.81034792156E+02  0.00000000000E+00 0. -1.
         -5    1    5    5    0  502  0.95406537811E+02  0.57305751107E+02  0.10298686475E+03  0.15170610033E+03  0.47000000000E+01 0.  1.
         13    1    6    6    0    0  0.62626757840E+02 -0.37898495305E+02  0.60335891285E+02  0.94862144826E+02  0.00000000000E+00 0. -1.
        -14    1    6    6    0    0  0.36995895208E+02 -0.22125249058E+02  0.16038479995E+03  0.16607681044E+03  0.00000000000E+00 0.  1.
</event>
<event>
12    1  0.8133506E-002  0.1786707E+03  0.7818608E-02  0.1169476E+00
         21   -1    0    0  501  502  0.00000000000E+00  0.00000000000E+00  0.41945813490E+03  0.41945813490E+03  0.00000000000E+00 0. -1.
         21   -1    0    0  502  503 -0.00000000000E+00 -0.00000000000E+00 -0.80336085022E+02  0.80336085022E+02  0.00000000000E+00 0. -1.
         -6    2    1    2    0  503  0.31215201791E+02  0.34341230529E+02  0.10861394836E+03  0.20909381277E+03  0.17253847056E+03 0.  0.
        -24    2    3    3    0    0  0.24194220953E+02  0.18478680459E+02  0.14599487020E+03  0.16761685550E+03  0.76512000125E+02 0.  0.
          6    2    1    2  501    0 -0.31215201791E+02 -0.34341230529E+02  0.23050810151E+03  0.29070040715E+03  0.17093575670E+03 0.  0.
         24    2    5    5    0    0  0.12529468535E+02 -0.37351262901E+02  0.42214135456E+02  0.97311255102E+02  0.78328428525E+02 0.  0.
          5    1    5    5  501    0 -0.43744670326E+02  0.30100323711E+01  0.18829396606E+03  0.19338915205E+03  0.47000000000E+01 0. -1.
        -11    1    6    6    0    0 -0.21408104277E+02 -0.46107778860E+02  0.15198284239E+02  0.53058666059E+02  0.00000000000E+00 0.  1.
         12    1    6    6    0    0  0.33937572811E+02  0.87565159596E+01  0.27015851216E+02  0.44252589043E+02  0.00000000000E+00 0. -1.
         -5    1    3    3    0  503  0.70209808380E+01  0.15862550070E+02 -0.37380921840E+02  0.41476957269E+02  0.47000000000E+01 0.  1.
         11    1    4    4    0    0  0.94896837720E+01 -0.19665175348E+02  0.11297852789E+03  0.11506920085E+03  0.00000000000E+00 0. -1.
        -12    1    4    4    0    0  0.14704537181E+02  0.38143855807E+02  0.33016342307E+02  0.52547654647E+02  0.00000000000E+00 0.  1.
</event>
<event>
12    1  0.8133506E-002  0.3118772E+03  0.7818608E-02  0.1079578E+00
         21   -1    0    0  503  502  0.00000000000E+00  0.00000000000E+00  0.80347484893E+03  0.80347484893E+03  0.00000000000E+00 0.  1.
         21   -1    0    0  501  503 -0.00000000000E+00 -0.00000000000E+00 -0.80032964213E+03  0.80032964213E+03  0.00000000000E+00 0.  1.
          6    2    1    2  501    0 -0.30164190127E+02 -0.25694938374E+03 -0.73742417705E+03  0.80024342357E+03  0.17222733785E+03 0.  0.
         24    2    3    3    0    0  0.10577180585E+02 -0.21876190452E+03 -0.68507151340E+03  0.72355552199E+03  0.78999793160E+02 0.  0.
         -6    2    1    2    0  502  0.30164190127E+02  0.25694938374E+03  0.74056938385E+03  0.80356106749E+03  0.17416805884E+03 0.  0.
        -24    2    5    5    0    0 -0.37118645949E+02  0.66477362269E+02  0.24119225782E+03  0.26485319211E+03  0.78590550114E+02 0.  0.
          5    1    3    3  501    0 -0.40741370713E+02 -0.38187479228E+02 -0.52352663648E+02  0.76687901578E+02  0.47000000000E+01 0. -1.
        -13    1    4    4    0    0 -0.87909618398E+01 -0.81847004829E+02 -0.15219830151E+03  0.17303333838E+03  0.00000000000E+00 0.  1.
         14    1    4    4    0    0  0.19368142425E+02 -0.13691489969E+03 -0.53287321189E+03  0.55052218361E+03  0.00000000000E+00 0. -1.
         -5    1    5    5    0  502  0.67282836076E+02  0.19047202148E+03  0.49937712603E+03  0.53870787538E+03  0.47000000000E+01 0.  1.
         13    1    6    6    0    0 -0.53853954306E+02  0.61226602470E+02  0.13888048130E+03  0.16104885386E+03  0.00000000000E+00 0. -1.
        -14    1    6    6    0    0  0.16735308356E+02  0.52507597985E+01  0.10231177652E+03  0.10380433825E+03  0.00000000000E+00 0.  1.
</event>
<event>
12    1  0.8133506E-002  0.5272320E+03  0.7818608E-02  0.1006924E+00
         21   -1    0    0  503  502  0.00000000000E+00  0.00000000000E+00  0.95063508693E+03  0.95063508693E+03  0.00000000000E+00 0. -1.
         21   -1    0    0  501  503 -0.00000000000E+00 -0.00000000000E+00 -0.31963535267E+03  0.31963535267E+03  0.00000000000E+00 0.  1.
          6    2    1    2  501    0  0.16125776426E+03  0.47138316584E+03  0.12964897481E+03  0.54293867237E+03  0.17253228598E+03 0.  0.
         24    2    3    3    0    0  0.11770107865E+03  0.45601196775E+03  0.10000580691E+03  0.48785450045E+03  0.78742577749E+02 0.  0.
         -6    2    1    2    0  502 -0.16125776426E+03 -0.47138316584E+03  0.50135075945E+03  0.72733176724E+03  0.17161806448E+03 0.  0.
        -24    2    5    5    0    0 -0.18271341338E+03 -0.39019085385E+03  0.38070796248E+03  0.58026269888E+03  0.78314450520E+02 0.  0.
          5    1    3    3  501    0  0.43556685606E+02  0.15371198095E+02  0.29643167904E+02  0.55084171912E+02  0.47000000000E+01 0. -1.
        -11    1    4    4    0    0  0.61310905935E+02  0.11469491773E+03  0.44679572305E+02  0.13751441932E+03  0.00000000000E+00 0.  1.
         12    1    4    4    0    0  0.56390172714E+02  0.34131705002E+03  0.55326234603E+02  0.35034008113E+03  0.00000000000E+00 0. -1.
         -5    1    5    5    0  502  0.21455649124E+02 -0.81192311996E+02  0.12064279697E+03  0.14706906836E+03  0.47000000000E+01 0.  1.
         13    1    6    6    0    0 -0.88549225102E+02 -0.25259194961E+03  0.26956572290E+03  0.37988068816E+03  0.00000000000E+00 0. -1.
        -14    1    6    6    0    0 -0.94164188277E+02 -0.13759890424E+03  0.11114223958E+03  0.20038201072E+03  0.00000000000E+00 0.  1.
</event>
<event>
12    1  0.8133506E-002  0.1769854E+03  0.7818608E-02  0.1175658E+00
         21   -1    0    0  503  502  0.00000000000E+00  0.00000000000E+00  0.16742982671E+03  0.16742982671E+03  0.00000000000E+00 0.  1.
         21   -1    0    0  501  503 -0.00000000000E+00 -0.00000000000E+00 -0.35265386112E+03  0.35265386112E+03  0.00000000000E+00 0.  1.
          6    2    1    2  501    0 -0.34828893008E+02  0.26565773138E+02 -0.27825797742E+03  0.32013584301E+03  0.15212055711E+03 0.  0.
         24    2    3    3    0    0 -0.59792059982E+02 -0.23724523502E+02 -0.17430400882E+03  0.20189544709E+03  0.79005953017E+02 0.  0.
         -6    2    1    2    0  502  0.34828893008E+02 -0.26565773138E+02  0.93033943002E+02  0.19994784482E+03  0.17147896083E+03 0.  0.
        -24    2    5    5    0    0  0.85791574290E+02 -0.16743077923E+02  0.38902144630E+02  0.12480783005E+03  0.80144199457E+02 0.  0.
          5    1    3    3  501    0  0.24963166975E+02  0.50290296640E+02 -0.10395396860E+03  0.11824039592E+03  0.47000000000E+01 0. -1.
        -11    1    4    4    0    0 -0.87665125327E+01 -0.43485322156E+02 -0.10193040801E+03  0.11116489132E+03  0.00000000000E+00 0.  1.
         12    1    4    4    0    0 -0.51025547450E+02  0.19760798654E+02 -0.72373600810E+02  0.90730555769E+02  0.00000000000E+00 0. -1.
         -5    1    5    5    0  502 -0.50962681283E+02 -0.98226952155E+01  0.54131798373E+02  0.75140014772E+02  0.47000000000E+01 0.  1.
         13    1    6    6    0    0  0.11751716188E+02  0.25132415442E+02 -0.63453448741E+01  0.28460578717E+02  0.00000000000E+00 0. -1.
        -14    1    6    6    0    0  0.74039858103E+02 -0.41875493365E+02  0.45247489504E+02  0.96347251330E+02  0.00000000000E+00 0.  1.
</event>
<event>
12    1  0.8133506E-002  0.2407261E+03  0.7818608E-02  0.1119311E+00
         21   -1    0    0  501  502  0.00000000000E+00  0.00000000000E+00  0.19450793236E+03  0.19450793236E+03  0.00000000000E+00 0.  1.
         21   -1    0    0  502  503 -0.00000000000E+00 -0.00000000000E+00 -0.29908779045E+03  0.29908779045E+03  0.00000000000E+00 0.  1.
         -6    2    1    2    0  503  0.16726719837E+03 -0.19098449703E+02 -0.67693925490E+02  0.25006003342E+03  0.17205954300E+03 0.  0.
        -24    2    3    3    0    0  0.13502648839E+03 -0.46002217804E+02 -0.10499477402E+03  0.19369763976E+03  0.78399722375E+02 0.  0.
          6    2    1    2  501    0 -0.16726719837E+03  0.19098449703E+02 -0.36885932600E+02  0.24353568938E+03  0.17206392285E+03 0.  0.
         24    2    5    5    0    0 -0.78443803343E+01  0.55854574442E+00  0.46532941177E+00  0.78682513122E+02  0.78287132171E+02 0.  0.
          5    1    5    5  501    0 -0.15942281803E+03  0.18539903959E+02 -0.37351262011E+02  0.16485317626E+03  0.47000000000E+01 0. -1.
        -13    1    6    6    0    0 -0.24632762019E+02 -0.26376479267E+02  0.20150879886E+02  0.41334605156E+02  0.00000000000E+00 0.  1.
         14    1    6    6    0    0  0.16788381685E+02  0.26935025011E+02 -0.19685550474E+02  0.37347907966E+02  0.00000000000E+00 0. -1.
         -5    1    3    3    0  503  0.32240709982E+02  0.26903768100E+02  0.37300848531E+02  0.56362393662E+02  0.47000000000E+01 0.  1.
         11    1    4    4    0    0  0.89396588049E+01  0.61133806277E+01  0.10394980754E+02  0.15011547127E+02  0.00000000000E+00 0. -1.
        -12    1    4    4    0    0  0.12608682958E+03 -0.52115598431E+02 -0.11538975478E+03  0.17868609263E+03  0.00000000000E+00 0.  1.
</event>
<event>
12    1  0.8133506E-002  0.2703444E+03  0.7818608E-02  0.1101083E+00
         21   -1    0    0  501  502  0.00000000000E+00  0.00000000000E+00  0.42614222101E+03  0.42614222101E+03  0.00000000000E+00 0.  1.
         21   -1    0    0  502  503 -0.00000000000E+00 -0.00000000000E+00 -0.17219711735E+03  0.17219711735E+03  0.00000000000E+00 0.  1.
         -6    2    1    2    0  503  0.93022268911E+02 -0.18642038613E+03  0.14593428495E+03  0.30721803083E+03  0.17228000483E+03 0.  0.
        -24    2    3    3    0    0 -0.21180546067E+01 -0.13159234280E+03  0.10084809564E+03  0.18842135596E+03  0.89505520202E+02 0.  0.
          6    2    1    2  501    0 -0.93022268911E+02  0.18642038613E+03  0.10801081871E+03  0.29112130753E+03  0.17227761278E+03 0.  0.
         24    2    5    5    0    0 -0.11683196965E+03  0.13622046718E+03  0.34684717489E+02  0.19900322661E+03  0.78698981979E+02 0.  0.
          5    1    5    5  501    0  0.23809700743E+02  0.50199918957E+02  0.73326101218E+02  0.92118080921E+02  0.47000000000E+01 0. -1.
        -13    1    6    6    0    0 -0.12307123123E+03  0.13801716291E+03  0.41575186878E+02  0.18953564672E+03  0.00000000000E+00 0.  1.
         14    1    6    6    0    0  0.62392615775E+01 -0.17966957343E+01 -0.68904693889E+01  0.94675798910E+01  0.00000000000E+00 0. -1.
         -5    1    3    3    0  503  0.95140323517E+02 -0.54828043327E+02  0.45086189312E+02  0.11879667487E+03  0.47000000000E+01 0.  1.
         11    1    4    4    0    0 -0.39399961388E+02 -0.61522901191E+02  0.21418171917E+02  0.76132531920E+02  0.00000000000E+00 0. -1.
        -12    1    4    4    0    0  0.37281906781E+02 -0.70069441614E+02  0.79429923719E+02  0.11228882404E+03  0.00000000000E+00 0.  1.
</event>
<event>
12    1  0.8133506E-002  0.1776249E+03  0.7818608E-02  0.1170132E+00
         21   -1    0    0  503  502  0.00000000000E+00  0.00000000000E+00  0.10265084918E+03  0.10265084918E+03  0.00000000000E+00 0. -1.
         21   -1    0    0  501  503 -0.00000000000E+00 -0.00000000000E+00 -0.45839494266E+03  0.45839494266E+03  0.00000000000E+00 0. -1.
          6    2    1    2  501    0  0.14899063486E+02  0.40563909547E+02 -0.33892094021E+03  0.38262602372E+03  0.17224359921E+03 0.  0.
         24    2    3    3    0    0 -0.42819842584E+02  0.52270401679E+00 -0.10243802812E+03  0.13588521241E+03  0.78341746272E+02 0.  0.
         -6    2    1    2    0  502 -0.14899063486E+02 -0.40563909547E+02 -0.16823153274E+02  0.17841976811E+03  0.17228807944E+03 0.  0.
        -24    2    5    5    0    0  0.33099247148E+02 -0.63463125940E+02  0.25918192448E+02  0.11003026183E+03  0.79446694729E+02 0.  0.
          5    1    3    3  501    0  0.57718906070E+02  0.40041205530E+02 -0.23648291208E+03  0.24674081131E+03  0.47000000000E+01 0. -1.
        -13    1    4    4    0    0 -0.60417473771E+02  0.65628620459E+01 -0.45312181089E+02  0.75805910390E+02  0.00000000000E+00 0.  1.
         14    1    4    4    0    0  0.17597631187E+02 -0.60401580291E+01 -0.57125847033E+02  0.60079302024E+02  0.00000000000E+00 0. -1.
         -5    1    5    5    0  502 -0.47998310633E+02  0.22899216393E+02 -0.42741345723E+02  0.68389506281E+02  0.47000000000E+01 0.  1.
         11    1    6    6    0    0  0.58922090181E+02 -0.52353009340E+02  0.19421701027E+02  0.81177908134E+02  0.00000000000E+00 0. -1.
        -12    1    6    6    0    0 -0.25822843033E+02 -0.11110116600E+02  0.64964914217E+01  0.28852353699E+02  0.00000000000E+00 0.  1.
</event>
<event>
12    1  0.8133506E-002  0.1737243E+03  0.7818608E-02  0.1176546E+00
         21   -1    0    0  501  502  0.00000000000E+00  0.00000000000E+00  0.59101717420E+03  0.59101717420E+03  0.00000000000E+00 0.  1.
         21   -1    0    0  502  503 -0.00000000000E+00 -0.00000000000E+00 -0.48998949969E+02  0.48998949969E+02  0.00000000000E+00 0.  1.
         -6    2    1    2    0  503 -0.22681762390E+02 -0.28534642751E+01  0.22411839245E+03  0.27774489367E+03  0.16245173906E+03 0.  0.
        -24    2    3    3    0    0 -0.55766265578E+02 -0.71292956131E+00  0.22370688613E+03  0.24425720074E+03  0.80662411115E+02 0.  0.
          6    2    1    2  501    0  0.22681762390E+02  0.28534642751E+01  0.31789983179E+03  0.36227123050E+03  0.17221363708E+03 0.  0.
         24    2    5    5    0    0 -0.47454260745E+02 -0.19817029678E+01  0.23501967993E+03  0.25348864846E+03  0.82258196762E+02 0.  0.
          5    1    5    5  501    0  0.70136023136E+02  0.48351672429E+01  0.82880151855E+02  0.10878258204E+03  0.47000000000E+01 0. -1.
        -11    1    6    6    0    0  0.57382123342E+00 -0.34120602972E+02  0.58222033706E+02  0.67485924658E+02  0.00000000000E+00 0.  1.
         12    1    6    6    0    0 -0.48028081979E+02  0.32138900004E+02  0.17679764622E+03  0.18600272380E+03  0.00000000000E+00 0. -1.
         -5    1    3    3    0  503  0.33084503187E+02 -0.21405347137E+01  0.41150631315E+00  0.33487692925E+02  0.47000000000E+01 0.  1.
         13    1    4    4    0    0  0.16732298452E+02 -0.13130905679E+02  0.27843120788E+02  0.35037549438E+02  0.00000000000E+00 0. -1.
        -14    1    4    4    0    0 -0.72498564030E+02  0.12417976118E+02  0.19586376534E+03  0.20921965131E+03  0.00000000000E+00 0.  1.
</event>
<event>
12    1  0.8133506E-002  0.3151392E+03  0.7818608E-02  0.1077949E+00
         21   -1    0    0  503  502  0.00000000000E+00  0.00000000000E+00  0.55860880533E+03  0.55860880533E+03  0.00000000000E+00 0.  1.
         21   -1    0    0  501  503 -0.00000000000E+00 -0.00000000000E+00 -0.34775677868E+03  0.34775677868E+03  0.00000000000E+00 0. -1.
          6    2    1    2  501    0  0.56773987981E+02 -0.25758054009E+03 -0.21161434201E+03  0.37930717721E+03  0.17182050109E+03 0.  0.
         24    2    3    3    0    0  0.28371650122E+02 -0.26306651220E+03 -0.15759424662E+03  0.31784947312E+03  0.78634601942E+02 0.  0.
         -6    2    1    2    0  502 -0.56773987981E+02  0.25758054009E+03  0.42246636866E+03  0.52705840680E+03  0.17245785336E+03 0.  0.
        -24    2    5    5    0    0 -0.30125367313E+02  0.16585342163E+03  0.37829236098E+03  0.42171398977E+03  0.79515304008E+02 0.  0.
          5    1    3    3  501    0  0.28402337859E+02  0.54859721138E+01 -0.54020095383E+02  0.61457704083E+02  0.47000000000E+01 0. -1.
        -13    1    4    4    0    0  0.25691005821E+02 -0.18329989720E+03 -0.66349229749E+02  0.19662426194E+03  0.00000000000E+00 0.  1.
         14    1    4    4    0    0  0.26806443008E+01 -0.79766615001E+02 -0.91245016873E+02  0.12122521118E+03  0.00000000000E+00 0. -1.
         -5    1    5    5    0  502 -0.26648620668E+02  0.91727118463E+02  0.44174007685E+02  0.10534441703E+03  0.47000000000E+01 0.  1.
         11    1    6    6    0    0 -0.10015620347E+02  0.18156914358E+02  0.13356686811E+03  0.13516691329E+03  0.00000000000E+00 0. -1.
        -12    1    6    6    0    0 -0.20109746967E+02  0.14769650727E+03  0.24472549286E+03  0.28654707648E+03  0.00000000000E+00 0.  1.
</event>
<event>
12    1  0.8133506E-002  0.1792053E+03  0.7818608E-02  0.1168738E+00
         21   -1    0    0  501  502  0.00000000000E+00  0.00000000000E+00  0.25505877128E+02  0.25505877128E+02  0.00000000000E+00 0. -1.
         21   -1    0    0  502  503 -0.00000000000E+00 -0.00000000000E+00 -0.13236523424E+04  0.13236523424E+04  0.00000000000E+00 0. -1.
         -6    2    1    2    0  503 -0.11748891991E+02 -0.48450226663E+02 -0.49360436807E+03  0.52489945569E+03  0.17143134335E+03 0.  0.
        -24    2    3    3    0    0  0.28659937387E+02 -0.86813111422E+02 -0.36876781601E+03  0.38811188627E+03  0.79266801450E+02 0.  0.
          6    2    1    2  501    0  0.11748891991E+02  0.48450226663E+02 -0.80454209722E+03  0.82425876386E+03  0.17213094627E+03 0.  0.
         24    2    5    5    0    0  0.18259499910E+02  0.63051039674E+02 -0.26623853889E+03  0.28569736283E+03  0.80194641967E+02 0.  0.
          5    1    5    5  501    0 -0.65106079195E+01 -0.14600813011E+02 -0.53830355834E+03  0.53856140102E+03  0.47000000000E+01 0. -1.
        -13    1    6    6    0    0 -0.18785559642E+02  0.16456197313E+02 -0.18962426128E+02  0.31357252522E+02  0.00000000000E+00 0.  1.
         14    1    6    6    0    0  0.37045059552E+02  0.46594842361E+02 -0.24727611276E+03  0.25434011031E+03  0.00000000000E+00 0. -1.
         -5    1    3    3    0  503 -0.40408829377E+02  0.38362884759E+02 -0.12483655206E+03  0.13678756942E+03  0.47000000000E+01 0.  1.
         11    1    4    4    0    0  0.28912340173E+02  0.48052123385E+01 -0.83716387103E+02  0.88698629918E+02  0.00000000000E+00 0. -1.
        -12    1    4    4    0    0 -0.25240278658E+00 -0.91618323760E+02 -0.28505142891E+03  0.29941325635E+03  0.00000000000E+00 0.  1.
</event>
<event>
12    1  0.8133506E-002  0.1829077E+03  0.7818608E-02  0.1165138E+00
         21   -1    0    0  503  502  0.00000000000E+00  0.00000000000E+00  0.26172540012E+03  0.26172540012E+03  0.00000000000E+00 0.  1.
         21   -1    0    0  501  503 -0.00000000000E+00 -0.00000000000E+00 -0.29829400792E+03  0.29829400792E+03  0.00000000000E+00 0.  1.
          6    2    1    2  501    0  0.15296402610E+02  0.58394444205E+02 -0.23019009034E+03  0.29401137476E+03  0.17265954868E+03 0.  0.
         24    2    3    3    0    0  0.52033074967E+02  0.91514959238E+02 -0.15073117928E+03  0.20029712740E+03  0.79477180257E+02 0.  0.
         -6    2    1    2    0  502 -0.15296402610E+02 -0.58394444205E+02  0.19362148254E+03  0.26600803328E+03  0.17212525736E+03 0.  0.
        -24    2    5    5    0    0  0.40941452861E+02 -0.16181207202E+02  0.16758419546E+03  0.19087692066E+03  0.80071856741E+02 0.  0.
          5    1    3    3  501    0 -0.36736672357E+02 -0.33120515033E+02 -0.79458911058E+02  0.93714247361E+02  0.47000000000E+01 0. -1.
        -11    1    4    4    0    0 -0.41216183618E+01  0.55128724566E+02 -0.10677656793E+03  0.12023892660E+03  0.00000000000E+00 0.  1.
         12    1    4    4    0    0  0.56154693329E+02  0.36386234673E+02 -0.43954611350E+02  0.80058200801E+02  0.00000000000E+00 0. -1.
         -5    1    5    5    0  502 -0.56237855471E+02 -0.42213237003E+02  0.26037287083E+02  0.75131112629E+02  0.47000000000E+01 0.  1.
         11    1    6    6    0    0 -0.94215945683E+01  0.14329839086E+02  0.48580709692E+01  0.17824465938E+02  0.00000000000E+00 0. -1.
        -12    1    6    6    0    0  0.50363047429E+02 -0.30511046288E+02  0.16272612449E+03  0.17305245472E+03  0.00000000000E+00 0.  1.
</event>
<event>
12    1  0.8133506E-002  0.2250523E+03  0.7818608E-02  0.1130597E+00
         21   -1    0    0  501  502  0.00000000000E+00  0.00000000000E+00  0.22957307390E+03  0.22957307390E+03  0.00000000000E+00 0. -1.
         21   -1    0    0  502  503 -0.00000000000E+00 -0.00000000000E+00 -0.68442575103E+03  0.68442575103E+03  0.00000000000E+00 0. -1.
         -6    2    1    2    0  503 -0.76715721346E+01 -0.14485086473E+03 -0.60493101983E+03  0.64543789824E+03  0.17206950831E+03 0.  0.
        -24    2    3    3    0    0  0.47377578581E+02 -0.35998028280E+02 -0.32556735423E+03  0.34056825944E+03  0.80325240171E+02 0.  0.
          6    2    1    2  501    0  0.76715721346E+01  0.14485086473E+03  0.15007834270E+03  0.26856092670E+03  0.16899951589E+03 0.  0.
         24    2    5    5    0    0 -0.44461492274E+02  0.13581087494E+03  0.13687833791E+03  0.21382603886E+03  0.81021462960E+02 0.  0.
          5    1    5    5  501    0  0.52133064408E+02  0.90399897911E+01  0.13200004792E+02  0.54734887837E+02  0.47000000000E+01 0. -1.
        -13    1    6    6    0    0 -0.37079112223E+02  0.26930410641E+02  0.76313259869E+02  0.89015848097E+02  0.00000000000E+00 0.  1.
         14    1    6    6    0    0 -0.73823800504E+01  0.10888046430E+03  0.60565078039E+02  0.12481019077E+03  0.00000000000E+00 0. -1.
         -5    1    3    3    0  503 -0.55049150716E+02 -0.10885283645E+03 -0.27936366560E+03  0.30486963879E+03  0.47000000000E+01 0.  1.
         13    1    4    4    0    0 -0.38357976599E+01 -0.98724305158E+01 -0.22087294441E+03  0.22112674149E+03  0.00000000000E+00 0. -1.
        -14    1    4    4    0    0  0.51213376241E+02 -0.26125597764E+02 -0.10469440982E+03  0.11944151795E+03  0.00000000000E+00 0.  1.
</event>
<event>
12    1  0.8133506E-002  0.1723826E+03  0.7818608E-02  0.1181432E+00
         21   -1    0    0  503  502  0.00000000000E+00  0.00000000000E+00  0.36959788927E+03  0.36959788927E+03  0.00000000000E+00 0.  1.
         21   -1    0    0  501  503 -0.00000000000E+00 -0.00000000000E+00 -0.27070693154E+03  0.27070693154E+03  0.00000000000E+00 0.  1.
          6    2    1    2  501    0 -0.14140388681E+02  0.53934923070E+01 -0.22660199254E+03  0.27198237232E+03  0.14965596373E+03 0.  0.
         24    2    3    3    0    0  0.17474113858E+02 -0.39796307769E+02 -0.10801064714E+03  0.14110994587E+03  0.79728452644E+02 0.  0.
         -6    2    1    2    0  502  0.14140388681E+02 -0.53934923070E+01  0.32549295027E+03  0.36832244849E+03  0.17171699110E+03 0.  0.
        -24    2    5    5    0    0 -0.28348166619E+02 -0.10183762421E+02  0.94990421193E+02  0.13384061565E+03  0.89346531613E+02 0.  0.
          5    1    3    3  501    0 -0.31614502539E+02  0.45189800076E+02 -0.11859134540E+03  0.13087242645E+03  0.47000000000E+01 0. -1.
        -13    1    4    4    0    0 -0.19887399841E+02 -0.17700847923E+02 -0.90448600817E+02  0.94285619685E+02  0.00000000000E+00 0.  1.
         14    1    4    4    0    0  0.37361513699E+02 -0.22095459846E+02 -0.17562046321E+02  0.46824326185E+02  0.00000000000E+00 0. -1.
         -5    1    5    5    0  502  0.42488555300E+02  0.47902701139E+01  0.23050252908E+03  0.23448183284E+03  0.47000000000E+01 0.  1.
         13    1    6    6    0    0  0.17184059159E+02  0.27763722270E+02  0.20136875268E+02  0.38361568125E+02  0.00000000000E+00 0. -1.
        -14    1    6    6    0    0 -0.45532225778E+02 -0.37947484691E+02  0.74853545925E+02  0.95479047524E+02  0.00000000000E+00 0.  1.
</event>
<event>
12    1  0.8133506E-002  0.1850498E+03  0.7818608E-02  0.1163181E+00
         21   -1    0    0  503  502  0.00000000000E+00  0.00000000000E+00  0.30431900003E+03  0.30431900003E+03  0.00000000000E+00 0.  1.
         21   -1    0    0  501  503 -0.00000000000E+00 -0.00000000000E+00 -0.19301560797E+03  0.19301560797E+03  0.00000000000E+00 0.  1.
          6    2    1    2  501    0 -0.63165212797E+02 -0.20880368621E+02 -0.10545446683E+03  0.21233039817E+03  0.17186541104E+03 0.  0.
         24    2    3    3    0    0 -0.99740866880E+02  0.82781349725E+01 -0.45535648332E+02  0.13617035869E+03  0.80324985362E+02 0.  0.
         -6    2    1    2    0  502  0.63165212797E+02  0.20880368621E+02  0.21675785888E+03  0.28500420983E+03  0.17267772390E+03 0.  0.
        -24    2    5    5    0    0  0.37230398550E+02 -0.30366207192E+02  0.44864856143E+02  0.10370853831E+03  0.80214689961E+02 0.  0.
          5    1    3    3  501    0  0.36575654083E+02 -0.29158503593E+02 -0.59918818493E+02  0.76160039476E+02  0.47000000000E+01 0. -1.
        -11    1    4    4    0    0 -0.79438051488E+02  0.32587770375E+02 -0.56350375177E+02  0.10270214985E+03  0.00000000000E+00 0.  1.
         12    1    4    4    0    0 -0.20302815392E+02 -0.24309635402E+02  0.10814726845E+02  0.33468208840E+02  0.00000000000E+00 0. -1.
         -5    1    5    5    0  502  0.25934814247E+02  0.51246575813E+02  0.17189300274E+03  0.18129567152E+03  0.47000000000E+01 0.  1.
         11    1    6    6    0    0  0.39051162166E+02 -0.30549433769E+00 -0.10713526835E+02  0.40495262075E+02  0.00000000000E+00 0. -1.
        -12    1    6    6    0    0 -0.18207636157E+01 -0.30060712855E+02  0.55578382978E+02  0.63213276232E+02  0.00000000000E+00 0.  1.
</event>
<event>
12    1  0.8133506E-002  0.1882894E+03  0.7818608E-02  0.1160387E+00
         21   -1    0    0  503  502  0.00000000000E+00  0.00000000000E+00  0.11109491125E+03  0.11109491125E+03  0.00000000000E+00 0.  1.
         21   -1    0    0  501  503 -0.00000000000E+00 -0.00000000000E+00 -0.40021183629E+03  0.40021183629E+03  0.00000000000E+00 0.  1.
          6    2    1    2  501    0  0.69826230832E+02  0.19023386038E+02 -0.27048052959E+02  0.18861029192E+03  0.17206002824E+03 0.  0.
         24    2    3    3    0    0  0.88734025330E+02  0.10846811165E+02 -0.68549988327E+02  0.14203925254E+03  0.86513974585E+02 0.  0.
         -6    2    1    2    0  502 -0.69826230832E+02 -0.19023386038E+02 -0.26206887207E+03  0.32269645562E+03  0.17382553619E+03 0.  0.
        -24    2    5    5    0    0 -0.59457588177E+02  0.33034424206E+02 -0.24489929740E+03  0.26671066588E+03  0.80823483316E+02 0.  0.
          5    1    3    3  501    0 -0.18907794498E+02  0.81765748731E+01  0.41501935368E+02  0.46571039378E+02  0.47000000000E+01 0. -1.
        -11    1    4    4    0    0  0.81029013339E+02  0.38967911331E+02 -0.32345094131E+02  0.95553148721E+02  0.00000000000E+00 0.  1.
         12    1    4    4    0    0  0.77050119910E+01 -0.28121100167E+02 -0.36204894197E+02  0.46486103818E+02  0.00000000000E+00 0. -1.
         -5    1    5    5    0  502 -0.10368642655E+02 -0.52057810243E+02 -0.17169574676E+02  0.55985789736E+02  0.47000000000E+01 0.  1.
         13    1    6    6    0    0  0.18450744887E+02  0.16094115740E+02 -0.77869749389E+02  0.81628110466E+02  0.00000000000E+00 0. -1.
        -14    1    6    6    0    0 -0.77908333063E+02  0.16940308466E+02 -0.16702954801E+03  0.18508255542E+03  0.00000000000E+00 0.  1.
</event>
<event>
12    1  0.8133506E-002  0.1781219E+03  0.7818608E-02  0.1169724E+00
         21   -1    0    0  503  502  0.00000000000E+00  0.00000000000E+00  0.10361207872E+04  0.10361207872E+04  0.00000000000E+00 0.  1.
         21   -1    0    0  501  503 -0.00000000000E+00 -0.00000000000E+00 -0.31527171420E+02  0.31527171420E+02  0.00000000000E+00 0.  1.
          6    2    1    2  501    0  0.35384644375E+02 -0.29227352268E+02  0.40819114004E+03  0.44521455598E+03  0.17172560343E+03 0.  0.
         24    2    3    3    0    0  0.64891843405E+02 -0.16534588008E+02  0.39772246592E+03  0.41110496500E+03  0.79622788242E+02 0.  0.
         -6    2    1    2    0  502 -0.35384644375E+02  0.29227352268E+02  0.59640247574E+03  0.62243340264E+03  0.17210786290E+03 0.  0.
        -24    2    5    5    0    0 -0.11769530156E+02 -0.40255228584E+02  0.44288001668E+03  0.45220785198E+03  0.81180212783E+02 0.  0.
          5    1    3    3  501    0 -0.29507199030E+02 -0.12692764260E+02  0.10468674118E+02  0.34109590982E+02  0.47000000000E+01 0. -1.
        -13    1    4    4    0    0  0.54295122464E+02 -0.29797838607E+02  0.38484527222E+03  0.38979706907E+03  0.00000000000E+00 0.  1.
         14    1    4    4    0    0  0.10596720941E+02  0.13263250599E+02  0.12877193704E+02  0.21307895927E+02  0.00000000000E+00 0. -1.
         -5    1    5    5    0  502 -0.23615114218E+02  0.69482580852E+02  0.15352245906E+03  0.17022555066E+03  0.47000000000E+01 0.  1.
         13    1    6    6    0    0  0.34339505478E+02 -0.92805634217E+01  0.18965755072E+03  0.19296454866E+03  0.00000000000E+00 0. -1.
        -14    1    6    6    0    0 -0.46109035634E+02 -0.30974665163E+02  0.25322246596E+03  0.25924330332E+03  0.00000000000E+00 0.  1.
</event>
<event>
12    1  0.8133506E-002  0.1754922E+03  0.7818608E-02  0.1172254E+00
         21   -1    0    0  501  502  0.00000000000E+00  0.00000000000E+00  0.11286591343E+03  0.11286591343E+03  0.00000000000E+00 0. -1.
         21   -1    0    0  502  503 -0.00000000000E+00 -0.00000000000E+00 -0.27318788188E+03  0.27318788188E+03  0.00000000000E+00 0. -1.
         -6    2    1    2    0  503 -0.73120754416E+01  0.34614213417E+02 -0.87711397196E+02  0.19619071617E+03  0.17188920180E+03 0.  0.
        -24    2    3    3    0    0 -0.53773092337E+02  0.57470561585E+02 -0.89983775743E+02  0.14414945901E+03  0.80545488564E+02 0.  0.
          6    2    1    2  501    0  0.73120754416E+01 -0.34614213417E+02 -0.72610571253E+02  0.18986307913E+03  0.17182573597E+03 0.  0.
         24    2    5    5    0    0 -0.42601347504E+02  0.24699543823E+02 -0.21329354808E+02  0.96796840633E+02  0.80558951742E+02 0.  0.
          5    1    5    5  501    0  0.49913422946E+02 -0.59313757241E+02 -0.51281216445E+02  0.93066238499E+02  0.47000000000E+01 0. -1.
        -13    1    6    6    0    0 -0.91051268014E+01  0.50934221541E+02 -0.91859148320E+01  0.52550730626E+02  0.00000000000E+00 0.  1.
         14    1    6    6    0    0 -0.33496220703E+02 -0.26234677718E+02 -0.12143439976E+02  0.44246110007E+02  0.00000000000E+00 0. -1.
         -5    1    3    3    0  503  0.46461016895E+02 -0.22856348167E+02  0.22723785476E+01  0.52041257159E+02  0.47000000000E+01 0.  1.
         13    1    4    4    0    0  0.56999113490E-01  0.31526611900E+02  0.50115973931E+01  0.31922509538E+02  0.00000000000E+00 0. -1.
        -14    1    4    4    0    0 -0.53830091450E+02  0.25943949685E+02 -0.94995373136E+02  0.11222694947E+03  0.00000000000E+00 0.  1.
</event>
<event>
12    1  0.8133506E-002  0.1742254E+03  0.7818608E-02  0.1173676E+00
         21   -1    0    0  501  502  0.00000000000E+00  0.00000000000E+00  0.52317064284E+02  0.52317064284E+02  0.00000000000E+00 0. -1.
         21   -1    0    0  502  503 -0.00000000000E+00 -0.00000000000E+00 -0.59070337701E+03  0.59070337701E+03  0.00000000000E+00 0. -1.
         -6    2    1    2    0  503  0.25525146628E+02  0.68241791763E+01 -0.31576413297E+03  0.36032779327E+03  0.17155473879E+03 0.  0.
        -24    2    3    3    0    0 -0.18890544125E+02 -0.36378687961E+02 -0.26450722183E+03  0.27977593262E+03  0.81426288633E+02 0.  0.
          6    2    1    2  501    0 -0.25525146628E+02 -0.68241791763E+01 -0.22262217975E+03  0.28269264802E+03  0.17221032430E+03 0.  0.
         24    2    5    5    0    0  0.24505576469E+02 -0.33331964899E+02 -0.20314764091E+03  0.22263364686E+03  0.81149451904E+02 0.  0.
          5    1    5    5  501    0 -0.50030723098E+02  0.26507785722E+02 -0.19474538842E+02  0.60059001163E+02  0.47000000000E+01 0. -1.
        -11    1    6    6    0    0  0.32693141709E+02 -0.22327113105E+02 -0.31913171436E+02  0.50850683432E+02  0.00000000000E+00 0.  1.
         12    1    6    6    0    0 -0.81875652397E+01 -0.11004851794E+02 -0.17123446948E+03  0.17178296343E+03  0.00000000000E+00 0. -1.
         -5    1    3    3    0  503  0.44415690753E+02  0.43202867137E+02 -0.51256911144E+02  0.80551860649E+02  0.47000000000E+01 0.  1.
         13    1    4    4    0    0 -0.18381756709E+02 -0.57696372426E+02 -0.12785088178E+03  0.14146592644E+03  0.00000000000E+00 0. -1.
        -14    1    4    4    0    0 -0.50878741581E+00  0.21317684465E+02 -0.13665634005E+03  0.13831000619E+03  0.00000000000E+00 0.  1.
</event>
<event>
12    1  0.8133506E-002  0.1899685E+03  0.7818608E-02  0.1158879E+00
         21   -1    0    0  501  502  0.00000000000E+00  0.00000000000E+00  0.10215788836E+04  0.10215788836E+04  0.00000000000E+00 0.  1.
         21   -1    0    0  502  503 -0.00000000000E+00 -0.00000000000E+00 -0.83662677182E+02  0.83662677182E+02  0.00000000000E+00 0.  1.
         -6    2    1    2    0  503 -0.33237600636E+02 -0.74300407772E+02  0.48418213243E+02  0.19604174203E+03  0.17164717462E+03 0.  0.
        -24    2    3    3    0    0 -0.50555922231E+02  0.15929244307E+02  0.35612095798E+02  0.10315793816E+03  0.81016644844E+02 0.  0.
          6    2    1    2  501    0  0.33237600636E+02  0.74300407772E+02  0.88949799313E+03  0.90919981871E+03  0.16974198616E+03 0.  0.
         24    2    5    5    0    0 -0.43573684740E+02  0.29786198954E+02  0.53433004789E+03  0.54307436525E+03  0.81457243124E+02 0.  0.
          5    1    5    5  501    0  0.76811285376E+02  0.44514208817E+02  0.35516794523E+03  0.36612545346E+03  0.47000000000E+01 0. -1.
        -11    1    6    6    0    0 -0.12633564657E+02  0.18904528640E+01  0.43721162789E+03  0.43739820339E+03  0.00000000000E+00 0.  1.
         12    1    6    6    0    0 -0.30940120082E+02  0.27895746090E+02  0.97118420004E+02  0.10567616186E+03  0.00000000000E+00 0. -1.
         -5    1    3    3    0  503  0.17318321595E+02 -0.90229652079E+02  0.12806117445E+02  0.92883803869E+02  0.47000000000E+01 0.  1.
         11    1    4    4    0    0  0.18161261706E+02  0.10723843505E+02  0.26152908442E+02  0.33597721147E+02  0.00000000000E+00 0. -1.
        -12    1    4    4    0    0 -0.68717183937E+02  0.52054008023E+01  0.94591873552E+01  0.69560217015E+02  0.00000000000E+00 0.  1.
</event>
<event>
12    1  0.8133506E-002  0.2117849E+03  0.7818608E-02  0.1140313E+00
         21   -1    0    0  501  502  0.00000000000E+00  0.00000000000E+00  0.20382413412E+04  0.20382413412E+04  0.00000000000E+00 0.  1.
         21   -1    0    0  502  503 -0.00000000000E+00 -0.00000000000E+00 -0.30204653554E+02  0.30204653554E+02  0.00000000000E+00 0. -1.
         -6    2    1    2    0  503 -0.69433009511E+02 -0.10305547849E+03  0.15468353992E+04  0.15612663473E+04  0.17149775635E+03 0.  0.
        -24    2    3    3    0    0  0.21878405485E+02 -0.63782305119E+02  0.57394665994E+03  0.58330175402E+03  0.79242165033E+02 0.  0.
          6    2    1    2  501    0  0.69433009511E+02  0.10305547849E+03  0.46120128838E+03  0.50717964742E+03  0.17053794856E+03 0.  0.
         24    2    5    5    0    0  0.71768109420E+02  0.50613743330E+02  0.42789112139E+03  0.44483186877E+03  0.84096178044E+02 0.  0.
          5    1    5    5  501    0 -0.23350999092E+01  0.52441735165E+02  0.33310166994E+02  0.62347778660E+02  0.47000000000E+01 0. -1.
        -13    1    6    6    0    0 -0.16406155444E+02  0.19527959309E+02  0.13475015903E+03  0.13714265744E+03  0.00000000000E+00 0.  1.
         14    1    6    6    0    0  0.88174264864E+02  0.31085784020E+02  0.29314096236E+03  0.30768921133E+03  0.00000000000E+00 0. -1.
         -5    1    3    3    0  503 -0.91311414996E+02 -0.39273173376E+02  0.97288873929E+03  0.97796459328E+03  0.47000000000E+01 0.  1.
         11    1    4    4    0    0  0.70819441854E+00 -0.39061724269E+02  0.88192598367E+02  0.96458562341E+02  0.00000000000E+00 0. -1.
        -12    1    4    4    0    0  0.21170211066E+02 -0.24720580850E+02  0.48575406157E+03  0.48684319168E+03  0.00000000000E+00 0.  1.
</event>
<event>
12    1  0.8133506E-002  0.2002582E+03  0.7818608E-02  0.1149740E+00
         21   -1    0    0  501  502  0.00000000000E+00  0.00000000000E+00  0.33435130934E+03  0.33435130934E+03  0.00000000000E+00 0. -1.
         21   -1    0    0  502  503 -0.00000000000E+00 -0.00000000000E+00 -0.12045505956E+03  0.12045505956E+03  0.00000000000E+00 0. -1.
         -6    2    1    2    0  503 -0.47138329031E+02 -0.91082942280E+02  0.84641574078E+02  0.21645766411E+03  0.17079695505E+03 0.  0.
        -24    2    3    3    0    0  0.22690666915E+02 -0.72729335478E+02  0.66749782917E+01  0.11009120504E+03  0.79190248690E+02 0.  0.
          6    2    1    2  501    0  0.47138329031E+02  0.91082942280E+02  0.12925467570E+03  0.23834870479E+03  0.17200351580E+03 0.  0.
         24    2    5    5    0    0  0.77749532076E+02  0.55809060174E+02  0.14409357978E+03  0.18911888065E+03  0.76441810229E+02 0.  0.
          5    1    5    5  501    0 -0.30611203045E+02  0.35273882106E+02 -0.14838904073E+02  0.49229824139E+02  0.47000000000E+01 0. -1.
        -13    1    6    6    0    0  0.50159963987E+02  0.13839425483E+02  0.20889908821E+02  0.56070847822E+02  0.00000000000E+00 0.  1.
         14    1    6    6    0    0  0.27589568089E+02  0.41969634692E+02  0.12320367095E+03  0.13304803283E+03  0.00000000000E+00 0. -1.
         -5    1    3    3    0  503 -0.69828995946E+02 -0.18353606802E+02  0.77966595787E+02  0.10636645907E+03  0.47000000000E+01 0.  1.
         11    1    4    4    0    0  0.29133724841E+00 -0.83346376346E+02  0.13375762209E+02  0.84413354050E+02  0.00000000000E+00 0. -1.
        -12    1    4    4    0    0  0.22399329666E+02  0.10617040867E+02 -0.67007839175E+01  0.25677850989E+02  0.00000000000E+00 0.  1.
</event>
<event>
12    1  0.8133506E-002  0.2687175E+03  0.7818608E-02  0.1102066E+00
         21   -1    0    0  501  502  0.00000000000E+00  0.00000000000E+00  0.65332007797E+03  0.65332007797E+03  0.00000000000E+00 0. -1.
         21   -1    0    0  502  503 -0.00000000000E+00 -0.00000000000E+00 -0.24101012810E+03  0.24101012810E+03  0.00000000000E+00 0.  1.
         -6    2    1    2    0  503  0.11665667745E+03  0.16858057787E+03 -0.12311304676E+03  0.29525853216E+03  0.17318367968E+03 0.  0.
        -24    2    3    3    0    0  0.11912980188E+03  0.69786999231E+02 -0.40683732688E+02  0.16648365363E+03  0.83663049568E+02 0.  0.
          6    2    1    2  501    0 -0.11665667745E+03 -0.16858057787E+03  0.53542299663E+03  0.59907167391E+03  0.17372649059E+03 0.  0.
         24    2    5    5    0    0 -0.11306520307E+03 -0.18223491703E+03  0.53697647276E+03  0.58411029181E+03  0.82751408245E+02 0.  0.
          5    1    5    5  501    0 -0.35914743767E+01  0.13654339166E+02 -0.15534761317E+01  0.14961382100E+02  0.47000000000E+01 0. -1.
        -11    1    6    6    0    0 -0.61114158253E+02 -0.15682162853E+03  0.34948439740E+03  0.38790115692E+03  0.00000000000E+00 0.  1.
         12    1    6    6    0    0 -0.51951044816E+02 -0.25413288498E+02  0.18749207536E+03  0.19620913489E+03  0.00000000000E+00 0. -1.
         -5    1    3    3    0  503 -0.24731244301E+01  0.98793578636E+02 -0.82429314072E+02  0.12877487854E+03  0.47000000000E+01 0.  1.
         13    1    4    4    0    0  0.72861694012E+02  0.23706405659E+02  0.17979488737E+02  0.78702491312E+02  0.00000000000E+00 0. -1.
        -14    1    4    4    0    0  0.46268107863E+02  0.46080593572E+02 -0.58663221425E+02  0.87781162314E+02  0.00000000000E+00 0.  1.
</event>
<event>
12    1  0.8133506E-002  0.1945477E+03  0.7818608E-02  0.1154696E+00
         21   -1    0    0  501  502  0.00000000000E+00  0.00000000000E+00  0.15766170804E+03  0.15766170804E+03  0.00000000000E+00 0. -1.
         21   -1    0    0  502  503 -0.00000000000E+00 -0.00000000000E+00 -0.32119204915E+03  0.32119204915E+03  0.00000000000E+00 0. -1.
         -6    2    1    2    0  503 -0.87281706867E+02 -0.57291267192E+01 -0.20342601304E+03  0.28147991286E+03  0.17377537029E+03 0.  0.
        -24    2    3    3    0    0 -0.12923069855E+03 -0.13852896180E+02 -0.14974047439E+03  0.21270534931E+03  0.76999219303E+02 0.  0.
          6    2    1    2  501    0  0.87281706867E+02  0.57291267192E+01  0.39895671927E+02  0.19737384433E+03  0.17237705920E+03 0.  0.
         24    2    5    5    0    0  0.23307796338E+02  0.50148210700E+02  0.64052590067E+02  0.11569543259E+03  0.78896149594E+02 0.  0.
          5    1    5    5  501    0  0.63973910529E+02 -0.44419083981E+02 -0.24156918140E+02  0.81678411738E+02  0.47000000000E+01 0. -1.
        -13    1    6    6    0    0 -0.22441301689E+02 -0.61847446467E+01  0.10674241362E+02  0.25608641442E+02  0.00000000000E+00 0.  1.
         14    1    6    6    0    0  0.45749098028E+02  0.56332955347E+02  0.53378348704E+02  0.90086791145E+02  0.00000000000E+00 0. -1.
         -5    1    3    3    0  503  0.41948991679E+02  0.81237694606E+01 -0.53685538642E+02  0.68774563557E+02  0.47000000000E+01 0.  1.
         11    1    4    4    0    0 -0.96684534868E+02 -0.22192676355E+02 -0.57779918423E+02  0.11479953458E+03  0.00000000000E+00 0. -1.
        -12    1    4    4    0    0 -0.32546163679E+02  0.83397801750E+01 -0.91960555970E+02  0.97905814729E+02  0.00000000000E+00 0.  1.
</event>
<event>
12    1  0.8133506E-002  0.2102322E+03  0.7818608E-02  0.1141451E+00
         21   -1    0    0  501  502  0.00000000000E+00  0.00000000000E+00  0.19247856585E+03  0.19247856585E+03  0.00000000000E+00 0.  1.
         21   -1    0    0  502  503 -0.00000000000E+00 -0.00000000000E+00 -0.57420187593E+03  0.57420187593E+03  0.00000000000E+00 0.  1.
         -6    2    1    2    0  503 -0.11784767049E+03  0.24366293830E+02 -0.48804581350E+03  0.53140032855E+03  0.17238272358E+03 0.  0.
        -24    2    3    3    0    0 -0.12975672098E+03  0.23065586625E+02 -0.26194715479E+03  0.30493573795E+03  0.83669973414E+02 0.  0.
          6    2    1    2  501    0  0.11784767049E+03 -0.24366293830E+02  0.10632250342E+03  0.23528011324E+03  0.17196065607E+03 0.  0.
         24    2    5    5    0    0  0.36437316363E+02 -0.70832526806E+02  0.40041908272E+02  0.12038031403E+03  0.80889682344E+02 0.  0.
          5    1    5    5  501    0  0.81410354128E+02  0.46466232976E+02  0.66280595144E+02  0.11489979921E+03  0.47000000000E+01 0. -1.
        -13    1    6    6    0    0  0.31048298457E+02 -0.39461778570E+02  0.63417417913E+02  0.80888798358E+02  0.00000000000E+00 0.  1.
         14    1    6    6    0    0  0.53890179057E+01 -0.31370748236E+02 -0.23375509641E+02  0.39491515669E+02  0.00000000000E+00 0. -1.
         -5    1    3    3    0  503  0.11909050493E+02  0.13007072057E+01 -0.22609865871E+03  0.22646459059E+03  0.47000000000E+01 0.  1.
         11    1    4    4    0    0 -0.83251497121E+02 -0.18889213264E+02 -0.10108050846E+03  0.13230602156E+03  0.00000000000E+00 0. -1.
        -12    1    4    4    0    0 -0.46505223863E+02  0.41954799889E+02 -0.16086664633E+03  0.17262971639E+03  0.00000000000E+00 0.  1.
</event>
<event>
12    1  0.8133506E-002  0.1850941E+03  0.7818608E-02  0.1163218E+00
         21   -1    0    0  503  502  0.00000000000E+00  0.00000000000E+00  0.10530650686E+04  0.10530650686E+04  0.00000000000E+00 0. -1.
         21   -1    0    0  501  503 -0.00000000000E+00 -0.00000000000E+00 -0.42854955577E+02  0.42854955577E+02  0.00000000000E+00 0. -1.
          6    2    1    2  501    0  0.63906165372E+02 -0.20516563247E+02  0.23482657461E+03  0.29900391359E+03  0.17249606621E+03 0.  0.
         24    2    3    3    0    0  0.80275529966E+01  0.50920721216E+02  0.12735894743E+03  0.15830179624E+03  0.78624396651E+02 0.  0.
         -6    2    1    2    0  502 -0.63906165372E+02  0.20516563247E+02  0.77538353837E+03  0.79691611055E+03  0.17132054264E+03 0.  0.
        -24    2    5    5    0    0 -0.68470720760E+01 -0.46315876553E+02  0.32884633587E+03  0.34178988811E+03  0.80550432512E+02 0.  0.
          5    1    3    3  501    0  0.55878612375E+02 -0.71437284463E+02  0.10746762718E+03  0.14070211734E+03  0.47000000000E+01 0. -1.
        -13    1    4    4    0    0  0.17158494681E+02 -0.17676819467E+02  0.29249558742E+02  0.38241607874E+02  0.00000000000E+00 0.  1.
         14    1    4    4    0    0 -0.91309416840E+01  0.68597540683E+02  0.98109388683E+02  0.12006018837E+03  0.00000000000E+00 0. -1.
         -5    1    5    5    0  502 -0.57059093295E+02  0.66832439800E+02  0.44653720250E+03  0.45512622244E+03  0.47000000000E+01 0.  1.
         13    1    6    6    0    0 -0.24818560711E+02 -0.52211194016E+02  0.30905103061E+03  0.31441136948E+03  0.00000000000E+00 0. -1.
        -14    1    6    6    0    0  0.17971488635E+02  0.58953174631E+01  0.19795305261E+02  0.27378518625E+02  0.00000000000E+00 0.  1.
</event>
<event>
12    1  0.8133506E-002  0.2072822E+03  0.7818608E-02  0.1144589E+00
         21   -1    0    0  503  502  0.00000000000E+00  0.00000000000E+00  0.98264702961E+03  0.98264702961E+03  0.00000000000E+00 0.  1.
         21   -1    0    0  501  503 -0.00000000000E+00 -0.00000000000E+00 -0.52598874210E+02  0.52598874210E+02  0.00000000000E+00 0.  1.
          6    2    1    2  501    0 -0.10736589493E+03 -0.21450503489E+02  0.23827943406E+03  0.31308951073E+03  0.17105669686E+03 0.  0.
         24    2    3    3    0    0  0.22455674201E+01 -0.39539380229E+02  0.74465158594E+02  0.11510191772E+03  0.78326154360E+02 0.  0.
         -6    2    1    2    0  502  0.10736589493E+03  0.21450503489E+02  0.69176872134E+03  0.72215639308E+03  0.17600662702E+03 0.  0.
        -24    2    5    5    0    0  0.10210710071E+03 -0.46246344522E+02  0.43462487917E+03  0.45615721317E+03  0.81339001352E+02 0.  0.
          5    1    3    3  501    0 -0.10961146235E+03  0.18088876740E+02  0.16381427546E+03  0.19798759301E+03  0.47000000000E+01 0. -1.
        -13    1    4    4    0    0 -0.37499886744E+02 -0.25196734463E+02  0.43497393139E+02  0.62714752198E+02  0.00000000000E+00 0.  1.
         14    1    4    4    0    0  0.39745454164E+02 -0.14342645766E+02  0.30967765455E+02  0.52387165523E+02  0.00000000000E+00 0. -1.
         -5    1    5    5    0  502  0.52587942224E+01  0.67696848011E+02  0.25714384217E+03  0.26599917991E+03  0.47000000000E+01 0.  1.
         13    1    6    6    0    0  0.75978196565E+02 -0.66123755779E+02  0.26741504489E+03  0.28575486639E+03  0.00000000000E+00 0. -1.
        -14    1    6    6    0    0  0.26128904143E+02  0.19877411257E+02  0.16720983428E+03  0.17040234678E+03  0.00000000000E+00 0.  1.
</event>
<event>
12    1  0.8133506E-002  0.2150090E+03  0.7818608E-02  0.1137730E+00
         21   -1    0    0  503  502  0.00000000000E+00  0.00000000000E+00  0.58482215711E+02  0.58482215711E+02  0.00000000000E+00 0.  1.
         21   -1    0    0  501  503 -0.00000000000E+00 -0.00000000000E+00 -0.79216191942E+03  0.79216191942E+03  0.00000000000E+00 0.  1.
          6    2    1    2  501    0  0.75256222260E+02  0.10529998355E+03 -0.39345853041E+03  0.44837315267E+03  0.17168949693E+03 0.  0.
         24    2    3    3    0    0  0.24149882541E+02  0.47798387830E+02 -0.34261239953E+03  0.35603837864E+03  0.80698005221E+02 0.  0.
         -6    2    1    2    0  502 -0.75256222260E+02 -0.10529998355E+03 -0.34022117330E+03  0.40227098246E+03  0.17123057860E+03 0.  0.
        -24    2    5    5    0    0 -0.25775481213E+02 -0.76185495040E+02 -0.32324217200E+03  0.34221789211E+03  0.78479161795E+02 0.  0.
          5    1    3    3  501    0  0.51106339719E+02  0.57501595717E+02 -0.50846130884E+02  0.92334774031E+02  0.47000000000E+01 0. -1.
        -11    1    4    4    0    0  0.47664062284E+02  0.50094878591E+02 -0.29354494960E+03  0.30157917224E+03  0.00000000000E+00 0.  1.
         12    1    4    4    0    0 -0.23514179743E+02 -0.22964907606E+01 -0.49067449928E+02  0.54459206396E+02  0.00000000000E+00 0. -1.
         -5    1    5    5    0  502 -0.49480741047E+02 -0.29114488507E+02 -0.16979001295E+02  0.60053090350E+02  0.47000000000E+01 0.  1.
         13    1    6    6    0    0 -0.45120158627E+02 -0.29160630244E+02 -0.22808991777E+03  0.23433135014E+03  0.00000000000E+00 0. -1.
        -14    1    6    6    0    0  0.19344677414E+02 -0.47024864796E+02 -0.95152254230E+02  0.10788654197E+03  0.00000000000E+00 0.  1.
</event>
<event>
12    1  0.8133506E-002  0.2419969E+03  0.7818608E-02  0.1119039E+00
         21   -1    0    0  503  502  0.00000000000E+00  0.00000000000E+00  0.11507948380E+04  0.11507948380E+04  0.00000000000E+00 0.  1.
         21   -1    0    0  501  503 -0.00000000000E+00 -0.00000000000E+00 -0.93480919670E+02  0.93480919670E+02  0.00000000000E+00 0.  1.
          6    2    1    2  501    0  0.13766170437E+03  0.10240102229E+03  0.95414884139E+03  0.98435893108E+03  0.17066276531E+03 0.  0.
         24    2    3    3    0    0  0.15052660501E+03  0.72183727939E+02  0.58982120377E+03  0.61852384791E+03  0.82546645132E+02 0.  0.
         -6    2    1    2    0  502 -0.13766170437E+03 -0.10240102229E+03  0.10316507698E+03  0.25991682663E+03  0.16576190587E+03 0.  0.
        -24    2    5    5    0    0 -0.76097804847E+02  0.80234518866E+01  0.65972786748E+02  0.12804933755E+03  0.78670023344E+02 0.  0.
          5    1    3    3  501    0 -0.12864900645E+02  0.30217294355E+02  0.36432763762E+03  0.36583508317E+03  0.47000000000E+01 0. -1.
        -13    1    4    4    0    0  0.44047559240E+02 -0.14912962431E+02  0.19341615247E+03  0.19892810751E+03  0.00000000000E+00 0.  1.
         14    1    4    4    0    0  0.10647904577E+03  0.87096690370E+02  0.39640505130E+03  0.41959574040E+03  0.00000000000E+00 0. -1.
         -5    1    5    5    0  502 -0.61563899522E+02 -0.11042447418E+03  0.37192290235E+02  0.13186748908E+03  0.47000000000E+01 0.  1.
         11    1    6    6    0    0 -0.89714692133E+01  0.87074136296E-01  0.59470484233E+02  0.60143439681E+02  0.00000000000E+00 0. -1.
        -12    1    6    6    0    0 -0.67126335634E+02  0.79363777503E+01  0.65023025153E+01  0.67905897869E+02  0.00000000000E+00 0.  1.
</event>
<event>
12    1  0.8133506E-002  0.2790595E+03  0.7818608E-02  0.1096853E+00
         21   -1    0    0  503  502  0.00000000000E+00  0.00000000000E+00  0.23224281794E+03  0.23224281794E+03  0.00000000000E+00 0. -1.
         21   -1    0    0  501  503 -0.00000000000E+00 -0.00000000000E+00 -0.56256116855E+03  0.56256116855E+03  0.00000000000E+00 0. -1.
          6    2    1    2  501    0  0.17647385768E+03 -0.12840266883E+03 -0.42001219605E+03  0.50168419816E+03  0.16627243322E+03 0.  0.
         24    2    3    3    0    0  0.19410611901E+03 -0.10142764421E+03 -0.31950370747E+03  0.39603101614E+03  0.82420836069E+02 0.  0.
         -6    2    1    2    0  502 -0.17647385768E+03  0.12840266883E+03  0.89693845437E+02  0.29311978832E+03  0.17390789687E+03 0.  0.
        -24    2    5    5    0    0 -0.15548077468E+03  0.15583179260E+03  0.46998974932E+02  0.23800165762E+03  0.77317957200E+02 0.  0.
          5    1    3    3  501    0 -0.17632261330E+02 -0.26975024622E+02 -0.10050848858E+03  0.10565318202E+03  0.47000000000E+01 0. -1.
        -11    1    4    4    0    0  0.26666187783E+02  0.14369326925E+02 -0.37043235545E+02  0.47851483016E+02  0.00000000000E+00 0.  1.
         12    1    4    4    0    0  0.16743993122E+03 -0.11579697113E+03 -0.28246047192E+03  0.34817953313E+03  0.00000000000E+00 0. -1.
         -5    1    5    5    0  502 -0.20993082997E+02 -0.27429123774E+02  0.42694870504E+02  0.55118130703E+02  0.47000000000E+01 0.  1.
         11    1    6    6    0    0 -0.78506280098E+02  0.12399931596E+03  0.10737743723E+02  0.14715422357E+03  0.00000000000E+00 0. -1.
        -12    1    6    6    0    0 -0.76974494582E+02  0.31832476640E+02  0.36261231210E+02  0.90847434053E+02  0.00000000000E+00 0.  1.
</event>
<event>
12    1  0.8133506E-002  0.1885426E+03  0.7818608E-02  0.1160132E+00
         21   -1    0    0  503  502  0.00000000000E+00  0.00000000000E+00  0.33645078189E+03  0.33645078189E+03  0.00000000000E+00 0.  1.
         21   -1    0    0  501  503 -0.00000000000E+00 -0.00000000000E+00 -0.10522093472E+03  0.10522093472E+03  0.00000000000E+00 0.  1.
          6    2    1    2  501    0  0.63201466618E+02  0.49512774303E+02  0.10120011029E+03  0.21263883498E+03  0.16890195859E+03 0.  0.
         24    2    3    3    0    0  0.10527245444E+03  0.55881838686E+02  0.67184949114E+02  0.15796110471E+03  0.78948234018E+02 0.  0.
         -6    2    1    2    0  502 -0.63201466618E+02 -0.49512774303E+02  0.13002973688E+03  0.22903288164E+03  0.17059422088E+03 0.  0.
        -24    2    5    5    0    0 -0.29355724334E+02 -0.77727664040E+02  0.29427698901E+02  0.11910347557E+03  0.80101810975E+02 0.  0.
          5    1    3    3  501    0 -0.42070987823E+02 -0.63690643827E+01  0.34015161179E+02  0.54677730270E+02  0.47000000000E+01 0. -1.
        -13    1    4    4    0    0  0.11619985406E+02  0.27834874825E+02  0.50446735903E+02  0.58776504495E+02  0.00000000000E+00 0.  1.
         14    1    4    4    0    0  0.93652469035E+02  0.28046963861E+02  0.16738213211E+02  0.99184600214E+02  0.00000000000E+00 0. -1.
         -5    1    5    5    0  502 -0.33845742285E+02  0.28214889737E+02  0.10060203798E+03  0.10992940607E+03  0.47000000000E+01 0.  1.
         11    1    6    6    0    0  0.36511897094E+01  0.99141414759E+00  0.33437056138E+02  0.33650420673E+02  0.00000000000E+00 0. -1.
        -12    1    6    6    0    0 -0.33006914043E+02 -0.78719078188E+02 -0.40093572373E+01  0.85453054895E+02  0.00000000000E+00 0.  1.
</event>
<event>
12    1  0.8133506E-002  0.2252091E+03  0.7818608E-02  0.1130423E+00
         21   -1    0    0  503  502  0.00000000000E+00  0.00000000000E+00  0.11071413435E+04  0.11071413435E+04  0.00000000000E+00 0. -1.
         21   -1    0    0  501  503 -0.00000000000E+00 -0.00000000000E+00 -0.60599295144E+02  0.60599295144E+02  0.00000000000E+00 0.  1.
          6    2    1    2  501    0 -0.87778062442E+02  0.11274237958E+03  0.22913113807E+03  0.31987288960E+03  0.17146939864E+03 0.  0.
         24    2    3    3    0    0 -0.11876184751E+03  0.51988030672E+02  0.13578392891E+03  0.20417121587E+03  0.80258820574E+02 0.  0.
         -6    2    1    2    0  502  0.87778062442E+02 -0.11274237958E+03  0.81741091032E+03  0.84786774907E+03  0.17407840535E+03 0.  0.
        -24    2    5    5    0    0 -0.82479579632E+01 -0.95433513907E+02  0.51030959472E+03  0.52560403491E+03  0.81658647179E+02 0.  0.
          5    1    3    3  501    0  0.30983785068E+02  0.60754348907E+02  0.93347209152E+02  0.11570167373E+03  0.47000000000E+01 0. -1.
        -13    1    4    4    0    0 -0.25635099019E+02 -0.20935216078E+02  0.40371267742E+02  0.52204222368E+02  0.00000000000E+00 0.  1.
         14    1    4    4    0    0 -0.93126748491E+02  0.72923246750E+02  0.95412661171E+02  0.15196699350E+03  0.00000000000E+00 0. -1.
         -5    1    5    5    0  502  0.96026020405E+02 -0.17308865673E+02  0.30710131560E+03  0.32226371416E+03  0.47000000000E+01 0.  1.
         13    1    6    6    0    0  0.21987199404E+02  0.78716432648E+00  0.14366304538E+03  0.14533797567E+03  0.00000000000E+00 0. -1.
        -14    1    6    6    0    0 -0.30235157367E+02 -0.96220678233E+02  0.36664654934E+03  0.38026605924E+03  0.00000000000E+00 0.  1.
</event>
<event>
12    1  0.8133506E-002  0.2242914E+03  0.7818608E-02  0.1131086E+00
         21   -1    0    0  501  502  0.00000000000E+00  0.00000000000E+00  0.87443427265E+03  0.87443427265E+03  0.00000000000E+00 0. -1.
         21   -1    0    0  502  503 -0.00000000000E+00 -0.00000000000E+00 -0.57064740822E+02  0.57064740822E+02  0.00000000000E+00 0.  1.
         -6    2    1    2    0  503 -0.12303551216E+03  0.66875577974E+02  0.39791687430E+03  0.45677616409E+03  0.17520429517E+03 0.  0.
        -24    2    3    3    0    0 -0.14723184856E+03  0.57942744679E+02  0.39183578391E+03  0.42986282416E+03  0.78817429241E+02 0.  0.
          6    2    1    2  501    0  0.12303551216E+03 -0.66875577974E+02  0.41945265753E+03  0.47472284939E+03  0.17265911975E+03 0.  0.
         24    2    5    5    0    0  0.45772762509E+02 -0.54957136133E+01  0.83661448950E+02  0.12470164146E+03  0.80161790696E+02 0.  0.
          5    1    5    5  501    0  0.77262749653E+02 -0.61379864361E+02  0.33579120858E+03  0.35002120792E+03  0.47000000000E+01 0. -1.
        -13    1    6    6    0    0  0.48012241326E+02 -0.13289168738E+02  0.10271806262E+02  0.50865384367E+02  0.00000000000E+00 0.  1.
         14    1    6    6    0    0 -0.22394788175E+01  0.77934551252E+01  0.73389642689E+02  0.73836257097E+02  0.00000000000E+00 0. -1.
         -5    1    3    3    0  503  0.24196336399E+02  0.89328332957E+01  0.60810903877E+01  0.26913339929E+02  0.47000000000E+01 0.  1.
         11    1    4    4    0    0 -0.61974272436E+02  0.65450492118E+02  0.17761696204E+03  0.19917922223E+03  0.00000000000E+00 0. -1.
        -12    1    4    4    0    0 -0.85257576124E+02 -0.75077474395E+01  0.21421882187E+03  0.23068360193E+03  0.00000000000E+00 0.  1.
</event>
<event>
12    1  0.8133506E-002  0.2462800E+03  0.7818608E-02  0.1115930E+00
         21   -1    0    0  501  502  0.00000000000E+00  0.00000000000E+00  0.41512294388E+02  0.41512294388E+02  0.00000000000E+00 0.  1.
         21   -1    0    0  502  503 -0.00000000000E+00 -0.00000000000E+00 -0.16547687172E+04  0.16547687172E+04  0.00000000000E+00 0. -1.
         -6    2    1    2    0  503 -0.54179714238E+02 -0.16800372292E+03 -0.51189383349E+03  0.56805732546E+03  0.17173565705E+03 0.  0.
        -24    2    3    3    0    0 -0.17816694977E+01  0.11154218157E+02 -0.15146186068E+03  0.16213070652E+03  0.56728122022E+02 0.  0.
          6    2    1    2  501    0  0.54179714238E+02  0.16800372292E+03 -0.11013625893E+04  0.11282236861E+04  0.16949466190E+03 0.  0.
         24    2    5    5    0    0  0.52653878332E+02  0.21207490210E+02 -0.41244559063E+03  0.42382310179E+03  0.79325076985E+02 0.  0.
          5    1    5    5  501    0  0.15258359062E+01  0.14679623271E+03 -0.68891699867E+03  0.70440058431E+03  0.47000000000E+01 0. -1.
        -11    1    6    6    0    0 -0.84222614444E+01  0.80134785094E+00 -0.24592987896E+01  0.88104935590E+01  0.00000000000E+00 0.  1.
         12    1    6    6    0    0  0.61076139777E+02  0.20406142359E+02 -0.40998629184E+03  0.41501260823E+03  0.00000000000E+00 0. -1.
         -5    1    3    3    0  503 -0.52398044741E+02 -0.17915794108E+03 -0.36043197281E+03  0.40592661894E+03  0.47000000000E+01 0.  1.
         11    1    4    4    0    0 -0.17626045391E+02  0.24686528996E+02 -0.12401418822E+03  0.12766996933E+03  0.00000000000E+00 0. -1.
        -12    1    4    4    0    0  0.15844375893E+02 -0.13532310840E+02 -0.27447672462E+02  0.34460737190E+02  0.00000000000E+00 0.  1.
</event>
<event>
12    1  0.8133506E-002  0.2156918E+03  0.7818608E-02  0.1137164E+00
         21   -1    0    0  503  502  0.00000000000E+00  0.00000000000E+00  0.12710270321E+03  0.12710270321E+03  0.00000000000E+00 0. -1.
         21   -1    0    0  501  503 -0.00000000000E+00 -0.00000000000E+00 -0.38480358031E+03  0.38480358031E+03  0.00000000000E+00 0. -1.
          6    2    1    2  501    0  0.89749360533E+02  0.94613427599E+02 -0.71988348955E+02  0.22738792781E+03  0.17180308184E+03 0.  0.
         24    2    3    3    0    0 -0.12743266796E+02  0.53934034334E+02 -0.18384315281E+01  0.96610817396E+02  0.79113837596E+02 0.  0.
         -6    2    1    2    0  502 -0.89749360533E+02 -0.94613427599E+02 -0.18571252814E+03  0.28451835571E+03  0.17162430839E+03 0.  0.
        -24    2    5    5    0    0 -0.61706544885E+02 -0.73224127066E+02 -0.20861716126E+03  0.24220270961E+03  0.77275883077E+02 0.  0.
          5    1    3    3  501    0  0.10249262733E+03  0.40679393265E+02 -0.70149917427E+02  0.13077711041E+03  0.47000000000E+01 0. -1.
        -11    1    4    4    0    0  0.31125601128E+01 -0.17344426234E+02 -0.14099363098E+02  0.22567879644E+02  0.00000000000E+00 0.  1.
         12    1    4    4    0    0 -0.15855826909E+02  0.71278460568E+02  0.12260931570E+02  0.74042937752E+02  0.00000000000E+00 0. -1.
         -5    1    5    5    0  502 -0.28042815648E+02 -0.21389300533E+02  0.22904633115E+02  0.42315646100E+02  0.47000000000E+01 0.  1.
         13    1    6    6    0    0 -0.61168590785E+02 -0.18977426266E+02 -0.79058266488E+02  0.10174452667E+03  0.00000000000E+00 0. -1.
        -14    1    6    6    0    0 -0.53795409984E+00 -0.54246700800E+02 -0.12955889477E+03  0.14045818294E+03  0.00000000000E+00 0.  1.
</event>
<event>
12    1  0.8133506E-002  0.2776845E+03  0.7818608E-02  0.1097235E+00
         21   -1    0    0  501  502  0.00000000000E+00  0.00000000000E+00  0.48790785090E+03  0.48790785090E+03  0.00000000000E+00 0.  1.
         21   -1    0    0  502  503 -0.00000000000E+00 -0.00000000000E+00 -0.24108814363E+03  0.24108814363E+03  0.00000000000E+00 0.  1.
         -6    2    1    2    0  503  0.20217954496E+03 -0.81765980070E+02  0.33907153881E+03  0.43826726576E+03  0.17189079063E+03 0.  0.
        -24    2    3    3    0    0  0.22671861317E+03 -0.82720824948E+02  0.29622293714E+03  0.38865708270E+03  0.71149385188E+02 0.  0.
          6    2    1    2  501    0 -0.20217954496E+03  0.81765980070E+02 -0.92251831547E+02  0.29072872877E+03  0.16867290657E+03 0.  0.
         24    2    5    5    0    0 -0.13415938127E+03  0.85662938769E+02 -0.26800249105E+01  0.17809157904E+03  0.79828248948E+02 0.  0.
          5    1    5    5  501    0 -0.68020163695E+02 -0.38969586992E+01 -0.89571806637E+02  0.11263714973E+03  0.47000000000E+01 0. -1.
        -13    1    6    6    0    0 -0.49081142958E+02  0.51998672239E+01 -0.30117584650E+02  0.57819253872E+02  0.00000000000E+00 0.  1.
         14    1    6    6    0    0 -0.85078238312E+02  0.80463071545E+02  0.27437559739E+02  0.12027232517E+03  0.00000000000E+00 0. -1.
         -5    1    3    3    0  503 -0.24539068203E+02  0.95484487814E+00  0.42848601678E+02  0.49610183055E+02  0.47000000000E+01 0.  1.
         11    1    4    4    0    0  0.11696114919E+03 -0.37581768887E+02  0.96024696540E+02  0.15592639968E+03  0.00000000000E+00 0. -1.
        -12    1    4    4    0    0  0.10975746398E+03 -0.45139056061E+02  0.20019824060E+03  0.23273068302E+03  0.00000000000E+00 0.  1.
</event>
<event>
12    1  0.8133506E-002  0.2001362E+03  0.7818608E-02  0.1149656E+00
         21   -1    0    0  503  502  0.00000000000E+00  0.00000000000E+00  0.51634075311E+03  0.51634075311E+03  0.00000000000E+00 0. -1.
         21   -1    0    0  501  503 -0.00000000000E+00 -0.00000000000E+00 -0.78060509068E+02  0.78060509068E+02  0.00000000000E+00 0. -1.
          6    2    1    2  501    0  0.82321866944E+02 -0.59950134223E+02  0.19423110429E+03  0.27878363453E+03  0.17211532365E+03 0.  0.
         24    2    3    3    0    0  0.65992600869E+02 -0.90352111246E+02  0.20059582918E+03  0.24337848151E+03  0.80472797905E+02 0.  0.
         -6    2    1    2    0  502 -0.82321866944E+02  0.59950134223E+02  0.24404913975E+03  0.31561762765E+03  0.17228927970E+03 0.  0.
        -24    2    5    5    0    0 -0.79769598425E+02  0.73604694399E+02  0.26070986207E+03  0.29342234085E+03  0.79663028180E+02 0.  0.
          5    1    3    3  501    0  0.16329266076E+02  0.30401977023E+02 -0.63647248847E+01  0.35405153020E+02  0.47000000000E+01 0. -1.
        -13    1    4    4    0    0  0.14971709534E+02  0.48059675580E+01  0.17665835085E+00  0.15725158782E+02  0.00000000000E+00 0.  1.
         14    1    4    4    0    0  0.51020891334E+02 -0.95158078804E+02  0.20041917083E+03  0.22765332273E+03  0.00000000000E+00 0. -1.
         -5    1    5    5    0  502 -0.25522685196E+01 -0.13654560177E+02 -0.16660722315E+02  0.22195286803E+02  0.47000000000E+01 0.  1.
         13    1    6    6    0    0 -0.59901928298E+02  0.30881964953E+02  0.70769651610E+02  0.97725535876E+02  0.00000000000E+00 0. -1.
        -14    1    6    6    0    0 -0.19867670127E+02  0.42722729447E+02  0.18994021046E+03  0.19569680497E+03  0.00000000000E+00 0.  1.
</event>
<event>
12    1  0.8133506E-002  0.2493275E+03  0.7818608E-02  0.1113781E+00
         21   -1    0    0  501  502  0.00000000000E+00  0.00000000000E+00  0.98791339572E+03  0.98791339572E+03  0.00000000000E+00 0.  1.
         21   -1    0    0  502  503 -0.00000000000E+00 -0.00000000000E+00 -0.19296173521E+03  0.19296173521E+03  0.00000000000E+00 0. -1.
         -6    2    1    2    0  503  0.17909713832E+03  0.21113514040E+02 -0.87453662130E+02  0.26392182693E+03  0.17171203300E+03 0.  0.
        -24    2    3    3    0    0  0.14708097902E+03  0.66106795252E+02 -0.10431808911E+03  0.20599144881E+03  0.74480134937E+02 0.  0.
          6    2    1    2  501    0 -0.17909713832E+03 -0.21113514040E+02  0.88240532264E+03  0.91695330401E+03  0.17217038908E+03 0.  0.
         24    2    5    5    0    0 -0.16244680435E+02  0.18715991198E+01  0.33936762656E+03  0.34953699491E+03  0.82087345715E+02 0.  0.
          5    1    5    5  501    0 -0.16285245789E+03 -0.22985113160E+02  0.54303769608E+03  0.56741630910E+03  0.47000000000E+01 0. -1.
        -13    1    6    6    0    0 -0.34946359652E+02  0.30804237960E+02  0.23678514585E+03  0.24132416875E+03  0.00000000000E+00 0.  1.
         14    1    6    6    0    0  0.18701679216E+02 -0.28932638840E+02  0.10258248071E+03  0.10821282616E+03  0.00000000000E+00 0. -1.
         -5    1    3    3    0  503  0.32016159308E+02 -0.44993281212E+02  0.16864426983E+02  0.57930378115E+02  0.47000000000E+01 0.  1.
         11    1    4    4    0    0  0.11226173442E+02 -0.77651726745E+01  0.71069651427E+01  0.15389406433E+02  0.00000000000E+00 0. -1.
        -12    1    4    4    0    0  0.13585480557E+03  0.73871967927E+02 -0.11142505426E+03  0.19060204238E+03  0.00000000000E+00 0.  1.
</event>
<event>
12    1  0.8133506E-002  0.1743398E+03  0.7818608E-02  0.1173404E+00
         21   -1    0    0  501  502  0.00000000000E+00  0.00000000000E+00  0.15636333891E+03  0.15636333891E+03  0.00000000000E+00 0.  1.
         21   -1    0    0  502  503 -0.00000000000E+00 -0.00000000000E+00 -0.25386212651E+03  0.25386212651E+03  0.00000000000E+00 0.  1.
         -6    2    1    2    0  503 -0.21572069665E+02 -0.13449854516E+02 -0.14805653080E+03  0.22870288186E+03  0.17244714867E+03 0.  0.
        -24    2    3    3    0    0 -0.12787171306E+02 -0.69452195607E+02 -0.59011792705E+02  0.12304072199E+03  0.81667058017E+02 0.  0.
          6    2    1    2  501    0  0.21572069665E+02  0.13449854516E+02  0.50557743198E+02  0.18152258355E+03  0.17247640467E+03 0.  0.
         24    2    5    5    0    0  0.33288322941E+02  0.70239843122E+02  0.93816834876E+01  0.11024894684E+03  0.77621300485E+02 0.  0.
          5    1    5    5  501    0 -0.11716253276E+02 -0.56789988606E+02  0.41176059711E+02  0.71273636711E+02  0.47000000000E+01 0. -1.
        -13    1    6    6    0    0  0.46851575604E+02  0.98279430296E+01  0.22543009712E+01  0.47924320273E+02  0.00000000000E+00 0.  1.
         14    1    6    6    0    0 -0.13563252663E+02  0.60411900093E+02  0.71273825165E+01  0.62324626571E+02  0.00000000000E+00 0. -1.
         -5    1    3    3    0  503 -0.87848983590E+01  0.56002341091E+02 -0.89044738091E+02  0.10566215987E+03  0.47000000000E+01 0.  1.
         13    1    4    4    0    0 -0.29933093792E+01 -0.77644843230E+02 -0.71198854243E+02  0.10538955559E+03  0.00000000000E+00 0. -1.
        -14    1    4    4    0    0 -0.97938619265E+01  0.81926476229E+01  0.12187061538E+02  0.17651166404E+02  0.00000000000E+00 0.  1.
</event>
<event>
12    1  0.8133506E-002  0.2217940E+03  0.7818608E-02  0.1132732E+00
         21   -1    0    0  503  502  0.00000000000E+00  0.00000000000E+00  0.11620025236E+03  0.11620025236E+03  0.00000000000E+00 0.  1.
         21   -1    0    0  501  503 -0.00000000000E+00 -0.00000000000E+00 -0.11212619539E+04  0.11212619539E+04  0.00000000000E+00 0.  1.
          6    2    1    2  501    0  0.13085374902E+03  0.49354111543E+02 -0.99173812978E+03  0.10162367387E+04  0.17214545881E+03 0.  0.
         24    2    3    3    0    0  0.12848443004E+03  0.48988010908E+02 -0.99648823215E+03  0.10091373602E+04  0.80382466742E+02 0.  0.
         -6    2    1    2    0  502 -0.13085374902E+03 -0.49354111543E+02 -0.13323571718E+02  0.22122546755E+03  0.17089370372E+03 0.  0.
        -24    2    5    5    0    0 -0.24842996697E+00 -0.40956070472E+02  0.36937328154E+01  0.89165045347E+02  0.79115739418E+02 0.  0.
          5    1    3    3  501    0  0.23693189789E+01  0.36610063515E+00  0.47501023673E+01  0.70993784657E+01  0.47000000000E+01 0. -1.
        -13    1    4    4    0    0  0.72507325326E+02 -0.36251790955E+01 -0.31115576351E+03  0.31951269664E+03  0.00000000000E+00 0.  1.
         14    1    4    4    0    0  0.55977104716E+02  0.52613190004E+02 -0.68533246863E+03  0.68962466355E+03  0.00000000000E+00 0. -1.
         -5    1    5    5    0  502 -0.13060531905E+03 -0.83980410717E+01 -0.17017304534E+02  0.13206042220E+03  0.47000000000E+01 0.  1.
         13    1    6    6    0    0 -0.28281593208E+01 -0.25342145823E+01 -0.34629295818E+02  0.34836889321E+02  0.00000000000E+00 0. -1.
        -14    1    6    6    0    0  0.25797293538E+01 -0.38421855889E+02  0.38323028634E+02  0.54328156026E+02  0.00000000000E+00 0.  1.
</event>
<event>
12    1  0.8133506E-002  0.2705736E+03  0.7818608E-02  0.1101141E+00
         21   -1    0    0  501  502  0.00000000000E+00  0.00000000000E+00  0.61513873428E+03  0.61513873428E+03  0.00000000000E+00 0. -1.
         21   -1    0    0  502  503 -0.00000000000E+00 -0.00000000000E+00 -0.15345668222E+03  0.15345668222E+03  0.00000000000E+00 0.  1.
         -6    2    1    2    0  503 -0.13484005092E+03 -0.15923923024E+03  0.47684186246E+02  0.27474326193E+03  0.17225303068E+03 0.  0.
        -24    2    3    3    0    0 -0.79847235967E+02 -0.13686398754E+03 -0.27209265663E+02  0.17905637505E+03  0.78825815136E+02 0.  0.
          6    2    1    2  501    0  0.13484005092E+03  0.15923923024E+03  0.41399786581E+03  0.49385215457E+03  0.17016681784E+03 0.  0.
         24    2    5    5    0    0  0.95250355256E+01  0.34023502014E+02  0.13230953834E+03  0.16105606759E+03  0.84763895488E+02 0.  0.
          5    1    5    5  501    0  0.12531501539E+03  0.12521572823E+03  0.28168832747E+03  0.33279608698E+03  0.47000000000E+01 0. -1.
        -13    1    6    6    0    0 -0.14904302708E+02  0.43996237535E+02  0.29763187086E+02  0.55169325372E+02  0.00000000000E+00 0.  1.
         14    1    6    6    0    0  0.24429338234E+02 -0.99727355216E+01  0.10254635126E+03  0.10588674221E+03  0.00000000000E+00 0. -1.
         -5    1    3    3    0  503 -0.54992814949E+02 -0.22375242704E+02  0.74893451909E+02  0.95686886881E+02  0.47000000000E+01 0.  1.
         13    1    4    4    0    0 -0.44698217630E+02 -0.44559064725E+02  0.24337082015E+02  0.67644175429E+02  0.00000000000E+00 0. -1.
        -14    1    4    4    0    0 -0.35149018337E+02 -0.92304922810E+02 -0.51546347678E+02  0.11141219962E+03  0.00000000000E+00 0.  1.
</event>
<event>
12    1  0.8133506E-002  0.2416354E+03  0.7818608E-02  0.1118760E+00
         21   -1    0    0  503  502  0.00000000000E+00  0.00000000000E+00  0.57591230131E+03  0.57591230131E+03  0.00000000000E+00 0. -1.
         21   -1    0    0  501  503 -0.00000000000E+00 -0.00000000000E+00 -0.10145500962E+03  0.10145500962E+03  0.00000000000E+00 0. -1.
          6    2    1    2  501    0  0.16788002860E+03 -0.20903008696E+02  0.22217732775E+03  0.32825362848E+03  0.17253127215E+03 0.  0.
         24    2    3    3    0    0  0.71455139487E+02  0.12376581892E+02  0.33820516239E+02  0.11399754611E+03  0.81194805634E+02 0.  0.
         -6    2    1    2    0  502 -0.16788002860E+03  0.20903008696E+02  0.25227996394E+03  0.34911368244E+03  0.17208876573E+03 0.  0.
        -24    2    5    5    0    0 -0.17377012293E+03  0.23857738088E+02  0.14382589983E+03  0.24035800370E+03  0.79503667792E+02 0.  0.
          5    1    3    3  501    0  0.96424889110E+02 -0.33279590588E+02  0.18835681151E+03  0.21425608237E+03  0.47000000000E+01 0. -1.
        -11    1    4    4    0    0  0.34547619710E+02  0.35556656494E+02  0.47154431462E+02  0.68420422793E+02  0.00000000000E+00 0.  1.
         12    1    4    4    0    0  0.36907519777E+02 -0.23180074602E+02 -0.13333915224E+02  0.45577123317E+02  0.00000000000E+00 0. -1.
         -5    1    5    5    0  502  0.58900943306E+01 -0.29547293920E+01  0.10845406411E+03  0.10875567874E+03  0.47000000000E+01 0.  1.
         11    1    6    6    0    0 -0.23395811051E+02 -0.24414493323E+02  0.17240196147E+02  0.37955972154E+02  0.00000000000E+00 0. -1.
        -12    1    6    6    0    0 -0.15037431188E+03  0.48272231410E+02  0.12658570368E+03  0.20240203155E+03  0.00000000000E+00 0.  1.
</event>
<event>
12    1  0.8133506E-002  0.1740607E+03  0.7818608E-02  0.1174172E+00
         21   -1    0    0  501  502  0.00000000000E+00  0.00000000000E+00  0.32392637152E+04  0.32392637152E+04  0.00000000000E+00 0. -1.
         21   -1    0    0  502  503 -0.00000000000E+00 -0.00000000000E+00 -0.16499464746E+02  0.16499464746E+02  0.00000000000E+00 0. -1.
         -6    2    1    2    0  503 -0.22506806320E+02  0.90995733300E+01  0.52720935870E+03  0.55459430316E+03  0.17039886923E+03 0.  0.
        -24    2    3    3    0    0 -0.28754994786E+02  0.34298382500E+02  0.51894378311E+03  0.52694598346E+03  0.79788411962E+02 0.  0.
          6    2    1    2  501    0  0.22506806320E+02 -0.90995733300E+01  0.26955548918E+04  0.27011688768E+04  0.17235941483E+03 0.  0.
         24    2    5    5    0    0 -0.27935835452E+02 -0.55538245487E+02  0.12910250748E+04  0.12949586837E+04  0.79418770765E+02 0.  0.
          5    1    5    5  501    0  0.50442641772E+02  0.46438672157E+02  0.14045298170E+04  0.14062101932E+04  0.47000000000E+01 0. -1.
        -13    1    6    6    0    0  0.13623999686E+00  0.12268139440E+02  0.41379084941E+02  0.43159639447E+02  0.00000000000E+00 0.  1.
         14    1    6    6    0    0 -0.28072075449E+02 -0.67806384927E+02  0.12496459898E+04  0.12517990442E+04  0.00000000000E+00 0. -1.
         -5    1    3    3    0  503  0.62481884654E+01 -0.25198809170E+02  0.82655755859E+01  0.27648319704E+02  0.47000000000E+01 0.  1.
         11    1    4    4    0    0 -0.48179906828E+02 -0.32356143712E+01  0.23892733800E+03  0.24375817005E+03  0.00000000000E+00 0. -1.
        -12    1    4    4    0    0  0.19424912042E+02  0.37533996871E+02  0.28001644511E+03  0.28318781341E+03  0.00000000000E+00 0.  1.
</event>
<event>
12    1  0.8133506E-002  0.1997437E+03  0.7818608E-02  0.1149972E+00
         21   -1    0    0  503  502  0.00000000000E+00  0.00000000000E+00  0.37467739733E+02  0.37467739733E+02  0.00000000000E+00 0. -1.
         21   -1    0    0  501  503 -0.00000000000E+00 -0.00000000000E+00 -0.10942519049E+04  0.10942519049E+04  0.00000000000E+00 0. -1.
          6    2    1    2  501    0  0.10090018040E+03  0.15221968977E+02 -0.62188450912E+03  0.65317522087E+03  0.17171188584E+03 0.  0.
         24    2    3    3    0    0  0.65673678178E+02 -0.41716925496E+02 -0.51473124742E+03  0.52673608273E+03  0.80307595528E+02 0.  0.
         -6    2    1    2    0  502 -0.10090018040E+03 -0.15221968977E+02 -0.43489965609E+03  0.47854442380E+03  0.17162313346E+03 0.  0.
        -24    2    5    5    0    0 -0.10505504880E+03  0.49603014546E+02 -0.28997075602E+03  0.31965446975E+03  0.67815325405E+02 0.  0.
          5    1    3    3  501    0  0.35226502217E+02  0.56938894473E+02 -0.10715326170E+03  0.12643913815E+03  0.47000000000E+01 0. -1.
        -13    1    4    4    0    0 -0.10251543377E+02 -0.33952061549E+02 -0.16883699608E+03  0.17252178955E+03  0.00000000000E+00 0.  1.
         14    1    4    4    0    0  0.75925221555E+02 -0.77648639468E+01 -0.34589425134E+03  0.35421429317E+03  0.00000000000E+00 0. -1.
         -5    1    5    5    0  502  0.41548684015E+01 -0.64824983523E+02 -0.14492890007E+03  0.15888995404E+03  0.47000000000E+01 0.  1.
         11    1    6    6    0    0 -0.49771267065E+02  0.35394216371E+02 -0.72391852631E+02  0.94712775828E+02  0.00000000000E+00 0. -1.
        -12    1    6    6    0    0 -0.55283781732E+02  0.14208798175E+02 -0.21757890338E+03  0.22494169393E+03  0.00000000000E+00 0.  1.
</event>
<event>
12    1  0.8133506E-002  0.2156048E+03  0.7818608E-02  0.1138435E+00
         21   -1    0    0  501  502  0.00000000000E+00  0.00000000000E+00  0.61214209442E+03  0.61214209442E+03  0.00000000000E+00 0. -1.
         21   -1    0    0  502  503 -0.00000000000E+00 -0.00000000000E+00 -0.28397032194E+03  0.28397032194E+03  0.00000000000E+00 0.  1.
         -6    2    1    2    0  503  0.15260142562E+02  0.13074240644E+03 -0.22207073434E+03  0.30513673995E+03  0.16268549483E+03 0.  0.
        -24    2    3    3    0    0  0.12877258763E+02  0.18549050634E+02 -0.14652362750E+03  0.16977617489E+03  0.82733820615E+02 0.  0.
          6    2    1    2  501    0 -0.15260142562E+02 -0.13074240644E+03  0.55024250682E+03  0.59097567640E+03  0.17076002167E+03 0.  0.
         24    2    5    5    0    0 -0.35260966900E+02 -0.15553812715E+02  0.15981653958E+03  0.18339381838E+03  0.81281667182E+02 0.  0.
          5    1    5    5  501    0  0.20000824338E+02 -0.11518859372E+03  0.39042596724E+03  0.40758185803E+03  0.47000000000E+01 0. -1.
        -11    1    6    6    0    0 -0.24019180543E+02 -0.43044230633E+02  0.52374308619E+02  0.71922145602E+02  0.00000000000E+00 0.  1.
         12    1    6    6    0    0 -0.11241786357E+02  0.27490417919E+02  0.10744223096E+03  0.11147167277E+03  0.00000000000E+00 0. -1.
         -5    1    3    3    0  503  0.23828837986E+01  0.11219335580E+03 -0.75547106842E+02  0.13536056506E+03  0.47000000000E+01 0.  1.
         11    1    4    4    0    0 -0.30487181190E+02  0.23204329136E+02 -0.43889370360E+02  0.58259642448E+02  0.00000000000E+00 0. -1.
        -12    1    4    4    0    0  0.43364439953E+02 -0.46552785019E+01 -0.10263425714E+03  0.11151653245E+03  0.00000000000E+00 0.  1.
</event>
<event>
12    1  0.8133506E-002  0.1989105E+03  0.7818608E-02  0.1155469E+00
         21   -1    0    0  501  502  0.00000000000E+00  0.00000000000E+00  0.95797612045E+03  0.95797612045E+03  0.00000000000E+00 0.  1.
         21   -1    0    0  502  503 -0.00000000000E+00 -0.00000000000E+00 -0.14526380027E+03  0.14526380027E+03  0.00000000000E+00 0.  1.
         -6    2    1    2    0  503 -0.40272539849E+02 -0.17914788056E+02 -0.75529978945E+02  0.19299832422E+03  0.17204870919E+03 0.  0.
        -24    2    3    3    0    0 -0.91224017012E+02 -0.31900356754E+02 -0.47827767204E+02  0.13315559958E+03  0.78124671790E+02 0.  0.
          6    2    1    2  501    0  0.40272539849E+02  0.17914788056E+02  0.88824229913E+03  0.91024159651E+03  0.19396537050E+03 0.  0.
         24    2    5    5    0    0  0.55859638048E+02 -0.60918017570E+02  0.49663523571E+03  0.51044696049E+03  0.84132265464E+02 0.  0.
          5    1    5    5  501    0 -0.15587098200E+02  0.78832805627E+02  0.39160706342E+03  0.39979463602E+03  0.47000000000E+01 0. -1.
        -11    1    6    6    0    0 -0.10546743529E+02 -0.30928267269E+02  0.27968881879E+03  0.28159124076E+03  0.00000000000E+00 0.  1.
         12    1    6    6    0    0  0.66406381578E+02 -0.29989750301E+02  0.21694641692E+03  0.22885571973E+03  0.00000000000E+00 0. -1.
         -5    1    3    3    0  503  0.50951477163E+02  0.13985568698E+02 -0.27702211741E+02  0.59842724639E+02  0.47000000000E+01 0.  1.
         11    1    4    4    0    0 -0.75629794310E+02  0.11823459663E+02 -0.38967966568E+02  0.85896230442E+02  0.00000000000E+00 0. -1.
        -12    1    4    4    0    0 -0.15594222701E+02 -0.43723816417E+02 -0.88598006366E+01  0.47259369135E+02  0.00000000000E+00 0.  1.
</event>
<event>
12    1  0.8133506E-002  0.2296645E+03  0.7818608E-02  0.1127107E+00
         21   -1    0    0  501  502  0.00000000000E+00  0.00000000000E+00  0.52074523908E+03  0.52074523908E+03  0.00000000000E+00 0.  1.
         21   -1    0    0  502  503 -0.00000000000E+00 -0.00000000000E+00 -0.10903561676E+03  0.10903561676E+03  0.00000000000E+00 0.  1.
         -6    2    1    2    0  503 -0.11395604342E+03  0.98159743101E+02  0.29338582607E+03  0.37258691300E+03  0.17356396457E+03 0.  0.
        -24    2    3    3    0    0 -0.87397413851E+02  0.95358106513E+02  0.30699036037E+03  0.34224909294E+03  0.78484927410E+02 0.  0.
          6    2    1    2  501    0  0.11395604342E+03 -0.98159743101E+02  0.11832379625E+03  0.25719394284E+03  0.17183389793E+03 0.  0.
         24    2    5    5    0    0  0.33726610266E+02 -0.29944507698E+02 -0.71453575055E+01  0.93319970446E+02  0.81384291904E+02 0.  0.
          5    1    5    5  501    0  0.80229433153E+02 -0.68215235402E+02  0.12546915376E+03  0.16387397240E+03  0.47000000000E+01 0. -1.
        -13    1    6    6    0    0  0.27098515437E+02 -0.22922369899E+02  0.35140165261E+02  0.49945928716E+02  0.00000000000E+00 0.  1.
         14    1    6    6    0    0  0.66280948289E+01 -0.70221377992E+01 -0.42285522767E+02  0.43374041730E+02  0.00000000000E+00 0. -1.
         -5    1    3    3    0  503 -0.26558629567E+02  0.28016365880E+01 -0.13604534302E+02  0.30337820054E+02  0.47000000000E+01 0.  1.
         13    1    4    4    0    0  0.99368363279E+01 -0.53038201284E+01  0.23957943599E+02  0.26473652670E+02  0.00000000000E+00 0. -1.
        -14    1    4    4    0    0 -0.97334250179E+02  0.10066192664E+03  0.28303241678E+03  0.31577544027E+03  0.00000000000E+00 0.  1.
</event>
<event>
12    1  0.8133506E-002  0.1759450E+03  0.7818608E-02  0.1172017E+00
         21   -1    0    0  503  502  0.00000000000E+00  0.00000000000E+00  0.53812535464E+03  0.53812535464E+03  0.00000000000E+00 0.  1.
         21   -1    0    0  501  503 -0.00000000000E+00 -0.00000000000E+00 -0.92296031155E+02  0.92296031155E+02  0.00000000000E+00 0.  1.
          6    2    1    2  501    0  0.15506191845E+02 -0.22171739584E+02  0.28247056492E+02  0.17728608920E+03  0.17291741728E+03 0.  0.
         24    2    3    3    0    0 -0.10850858938E+02 -0.60352457709E+02 -0.28122900474E+02  0.10412788111E+03  0.79319340653E+02 0.  0.
         -6    2    1    2    0  502 -0.15506191845E+02  0.22171739584E+02  0.41758226699E+03  0.45313529660E+03  0.17385229160E+03 0.  0.
        -24    2    5    5    0    0 -0.74992143402E-01  0.43011859456E+02  0.10133048108E+03  0.13578735724E+03  0.79500404484E+02 0.  0.
          5    1    3    3  501    0  0.26357050784E+02  0.38180718125E+02  0.56369956966E+02  0.73158208089E+02  0.47000000000E+01 0. -1.
        -13    1    4    4    0    0  0.24067378529E+02 -0.32120471466E+01 -0.28134044908E+02  0.37162890618E+02  0.00000000000E+00 0.  1.
         14    1    4    4    0    0 -0.34918237468E+02 -0.57140410562E+02  0.11144434816E-01  0.66964990490E+02  0.00000000000E+00 0. -1.
         -5    1    5    5    0  502 -0.15431199702E+02 -0.20840119871E+02  0.31625178591E+03  0.31734793935E+03  0.47000000000E+01 0.  1.
         11    1    6    6    0    0  0.33990808661E+02  0.13310844725E+02  0.75174597993E+02  0.83568976565E+02  0.00000000000E+00 0. -1.
        -12    1    6    6    0    0 -0.34065800805E+02  0.29701014730E+02  0.26155883088E+02  0.52218380677E+02  0.00000000000E+00 0.  1.
</event>
<event>
12    1  0.8133506E-002  0.2078188E+03  0.7818608E-02  0.1143576E+00
         21   -1    0    0  503  502  0.00000000000E+00  0.00000000000E+00  0.14388475328E+03  0.14388475328E+03  0.00000000000E+00 0.  1.
         21   -1    0    0  501  503 -0.00000000000E+00 -0.00000000000E+00 -0.45745814437E+03  0.45745814437E+03  0.00000000000E+00 0.  1.
          6    2    1    2  501    0  0.11571174897E+03  0.77560105648E+01 -0.33451017362E+03  0.39380922340E+03  0.17245081510E+03 0.  0.
         24    2    3    3    0    0  0.14473011862E+03  0.19497826406E+02 -0.22368097564E+03  0.27854805413E+03  0.78923172303E+02 0.  0.
         -6    2    1    2    0  502 -0.11571174897E+03 -0.77560105648E+01  0.20936782529E+02  0.20753367425E+03  0.17082889842E+03 0.  0.
        -24    2    5    5    0    0 -0.62252583682E+02  0.51009821653E+02 -0.24848705285E+02  0.11572024232E+03  0.79349418694E+02 0.  0.
          5    1    3    3  501    0 -0.29018369651E+02 -0.11741815841E+02 -0.11082919798E+03  0.11526116927E+03  0.47000000000E+01 0. -1.
        -11    1    4    4    0    0  0.76780583110E+02  0.41800745027E+02 -0.82095980662E+02  0.11992627013E+03  0.00000000000E+00 0.  1.
         12    1    4    4    0    0  0.67949535506E+02 -0.22302918621E+02 -0.14158499498E+03  0.15862178399E+03  0.00000000000E+00 0. -1.
         -5    1    5    5    0  502 -0.53459165283E+02 -0.58765832218E+02  0.45785487814E+02  0.91813431934E+02  0.47000000000E+01 0.  1.
         11    1    6    6    0    0 -0.11641883310E+02  0.32396871399E+02 -0.46291308231E+02  0.57688611885E+02  0.00000000000E+00 0. -1.
        -12    1    6    6    0    0 -0.50610700372E+02  0.18612950254E+02  0.21442602946E+02  0.58031630431E+02  0.00000000000E+00 0.  1.
</event>
<event>
12    1  0.8133506E-002  0.1748498E+03  0.7818608E-02  0.1173205E+00
         21   -1    0    0  503  502  0.00000000000E+00  0.00000000000E+00  0.16762339188E+03  0.16762339188E+03  0.00000000000E+00 0. -1.
         21   -1    0    0  501  503 -0.00000000000E+00 -0.00000000000E+00 -0.38253350481E+03  0.38253350481E+03  0.00000000000E+00 0. -1.
          6    2    1    2  501    0  0.62600961552E+01  0.33311964157E+02 -0.30690154655E+03  0.35258440667E+03  0.17023022291E+03 0.  0.
         24    2    3    3    0    0 -0.38003251235E+02 -0.22905792847E+02 -0.22201756560E+03  0.24146707972E+03  0.83938243409E+02 0.  0.
         -6    2    1    2    0  502 -0.62600961552E+01 -0.33311964157E+02  0.91991433615E+02  0.19757249002E+03  0.17153305569E+03 0.  0.
        -24    2    5    5    0    0  0.36866597390E+02 -0.67135073729E+02  0.34535881576E+02  0.11802913771E+03  0.82896840133E+02 0.  0.
          5    1    3    3  501    0  0.44263347390E+02  0.56217757003E+02 -0.84883980957E+02  0.11111732695E+03  0.47000000000E+01 0. -1.
        -11    1    4    4    0    0 -0.28815692832E+02  0.13153567035E+02 -0.18925684735E+03  0.19188932943E+03  0.00000000000E+00 0.  1.
         12    1    4    4    0    0 -0.91875584025E+01 -0.36059359882E+02 -0.32760718247E+02  0.49577750297E+02  0.00000000000E+00 0. -1.
         -5    1    5    5    0  502 -0.43126693545E+02  0.33823109573E+02  0.57455552039E+02  0.79543352315E+02  0.47000000000E+01 0.  1.
         11    1    6    6    0    0  0.11762306927E+02 -0.28292544218E+01  0.46429479914E+02  0.47979716026E+02  0.00000000000E+00 0. -1.
        -12    1    6    6    0    0  0.25104290463E+02 -0.64305819308E+02 -0.11893598339E+02  0.70049421682E+02  0.00000000000E+00 0.  1.
</event>
<event>
12    1  0.8133506E-002  0.2245242E+03  0.7818608E-02  0.1130948E+00
         21   -1    0    0  501  502  0.00000000000E+00  0.00000000000E+00  0.29385659266E+03  0.29385659266E+03  0.00000000000E+00 0. -1.
         21   -1    0    0  502  503 -0.00000000000E+00 -0.00000000000E+00 -0.17005051947E+03  0.17005051947E+03  0.00000000000E+00 0. -1.
         -6    2    1    2    0  503  0.10228371930E+03 -0.98493890928E+02  0.54808585892E+02  0.22902043007E+03  0.17112384556E+03 0.  0.
        -24    2    3    3    0    0  0.75090909702E+02 -0.11806202317E+03  0.85997964075E+02  0.18300708413E+03  0.80738200268E+02 0.  0.
          6    2    1    2  501    0 -0.10228371930E+03  0.98493890928E+02  0.68997487305E+02  0.23488668206E+03  0.17391979292E+03 0.  0.
         24    2    5    5    0    0 -0.40112446940E+02  0.52984212042E+02 -0.31293621869E+02  0.10832920674E+03  0.79621549461E+02 0.  0.
          5    1    5    5  501    0 -0.62171272357E+02  0.45509678886E+02  0.10029110917E+03  0.12655747532E+03  0.47000000000E+01 0. -1.
        -13    1    6    6    0    0 -0.26298361620E+02 -0.17449412662E+02 -0.13840271248E+02  0.34462137693E+02  0.00000000000E+00 0.  1.
         14    1    6    6    0    0 -0.13814085321E+02  0.70433624704E+02 -0.17453350622E+02  0.73867069050E+02  0.00000000000E+00 0. -1.
         -5    1    3    3    0  503  0.27192809596E+02  0.19568132243E+02 -0.31189378182E+02  0.46013345940E+02  0.47000000000E+01 0.  1.
         11    1    4    4    0    0  0.46263033500E+02 -0.64523036120E+02  0.21402451237E+01  0.79423366259E+02  0.00000000000E+00 0. -1.
        -12    1    4    4    0    0  0.28827876202E+02 -0.53538987051E+02  0.83857718951E+02  0.10358371787E+03  0.00000000000E+00 0.  1.
</event>
<event>
12    1  0.8133506E-002  0.3729145E+03  0.7818608E-02  0.1053626E+00
         21   -1    0    0  501  502  0.00000000000E+00  0.00000000000E+00  0.11137136402E+03  0.11137136402E+03  0.00000000000E+00 0. -1.
         21   -1    0    0  502  503 -0.00000000000E+00 -0.00000000000E+00 -0.13773216077E+04  0.13773216077E+04  0.00000000000E+00 0.  1.
         -6    2    1    2    0  503 -0.26538415453E+03  0.19606879292E+03 -0.86212836087E+03  0.93932450100E+03  0.17376273055E+03 0.  0.
        -24    2    3    3    0    0 -0.18594180582E+03  0.18716207013E+03 -0.52479533359E+03  0.59261701944E+03  0.78618025411E+02 0.  0.
          6    2    1    2  501    0  0.26538415453E+03 -0.19606879292E+03 -0.40382188281E+03  0.54936847073E+03  0.17280591010E+03 0.  0.
         24    2    5    5    0    0  0.24352620546E+03 -0.22142293592E+03 -0.37521804606E+03  0.50508673656E+03  0.77400904758E+02 0.  0.
          5    1    5    5  501    0  0.21857949064E+02  0.25354143001E+02 -0.28603836742E+02  0.44281734169E+02  0.47000000000E+01 0. -1.
        -11    1    6    6    0    0  0.11765223722E+03 -0.11769593458E+03 -0.24597996195E+03  0.29698572966E+03  0.00000000000E+00 0.  1.
         12    1    6    6    0    0  0.12587396824E+03 -0.10372700133E+03 -0.12923808412E+03  0.20810100690E+03  0.00000000000E+00 0. -1.
         -5    1    3    3    0  503 -0.79442348709E+02  0.89067227903E+01 -0.33733302728E+03  0.34670748157E+03  0.47000000000E+01 0.  1.
         11    1    4    4    0    0 -0.19388172407E+03  0.18097077919E+03 -0.50499690123E+03  0.57040548393E+03  0.00000000000E+00 0. -1.
        -12    1    4    4    0    0  0.79399182541E+01  0.61912909362E+01 -0.19798432363E+02  0.22211535502E+02  0.00000000000E+00 0.  1.
</event>
<event>
12    1  0.8133506E-002  0.1782276E+03  0.7818608E-02  0.1169829E+00
         21   -1    0    0  503  502  0.00000000000E+00  0.00000000000E+00  0.97374749045E+02  0.97374749045E+02  0.00000000000E+00 0. -1.
         21   -1    0    0  501  503 -0.00000000000E+00 -0.00000000000E+00 -0.34523331573E+03  0.34523331573E+03  0.00000000000E+00 0. -1.
          6    2    1    2  501    0 -0.36077878473E+01  0.35314150479E+02 -0.69434386053E+02  0.19127524764E+03  0.17465675205E+03 0.  0.
         24    2    3    3    0    0 -0.81262133676E+01  0.26662218739E+02 -0.11604538931E+03  0.14342184946E+03  0.79538577249E+02 0.  0.
         -6    2    1    2    0  502  0.36077878473E+01 -0.35314150479E+02 -0.17842418063E+03  0.25133281713E+03  0.17341537238E+03 0.  0.
        -24    2    5    5    0    0  0.58949892501E+02 -0.59942179989E+02 -0.10411702459E+03  0.15534879855E+03  0.78897019163E+02 0.  0.
          5    1    3    3  501    0  0.45184255203E+01  0.86519317396E+01  0.46611003262E+02  0.47853398177E+02  0.47000000000E+01 0. -1.
        -11    1    4    4    0    0  0.12477421489E+02  0.44574387097E+02 -0.10349417480E+03  0.11337374586E+03  0.00000000000E+00 0.  1.
         12    1    4    4    0    0 -0.20603634856E+02 -0.17912168358E+02 -0.12551214513E+02  0.30048103606E+02  0.00000000000E+00 0. -1.
         -5    1    5    5    0  502 -0.55342104654E+02  0.24628029510E+02 -0.74307156045E+02  0.95984018589E+02  0.47000000000E+01 0.  1.
         13    1    6    6    0    0  0.10586869304E+02  0.79653457464E+00 -0.69557897417E+02  0.70363466103E+02  0.00000000000E+00 0. -1.
        -14    1    6    6    0    0  0.48363023197E+02 -0.60738714563E+02 -0.34559127171E+02  0.84985332443E+02  0.00000000000E+00 0.  1.
</event>
<event>
12    1  0.8133506E-002  0.2182887E+03  0.7818608E-02  0.1135198E+00
         21   -1    0    0  501  502  0.00000000000E+00  0.00000000000E+00  0.44768428185E+03  0.44768428185E+03  0.00000000000E+00 0.  1.
         21   -1    0    0  502  503 -0.00000000000E+00 -0.00000000000E+00 -0.10928064863E+03  0.10928064863E+03  0.00000000000E+00 0.  1.
         -6    2    1    2    0  503 -0.60945583701E+02  0.12115833531E+03  0.12354537128E+03  0.25067414589E+03  0.17082260466E+03 0.  0.
        -24    2    3    3    0    0  0.33884469942E+02  0.52596558862E+02  0.52538534916E+02  0.11371606079E+03  0.79097974200E+02 0.  0.
          6    2    1    2  501    0  0.60945583701E+02 -0.12115833531E+03  0.21485826194E+03  0.30629078459E+03  0.17104463047E+03 0.  0.
         24    2    5    5    0    0  0.94608913851E+02 -0.13310921814E+03  0.17513279615E+03  0.25266014009E+03  0.80602354610E+02 0.  0.
          5    1    5    5  501    0 -0.33663330150E+02  0.11950882827E+02  0.39725465791E+02  0.53630644499E+02  0.47000000000E+01 0. -1.
        -13    1    6    6    0    0  0.10474572232E+03 -0.13045782383E+03  0.17510381230E+03  0.24218227686E+03  0.00000000000E+00 0.  1.
         14    1    6    6    0    0 -0.10136808470E+02 -0.26513943111E+01  0.28983846770E-01  0.10477863228E+02  0.00000000000E+00 0. -1.
         -5    1    3    3    0  503 -0.94830053643E+02  0.68561776449E+02  0.71006836362E+02  0.13695808510E+03  0.47000000000E+01 0.  1.
         13    1    4    4    0    0 -0.13362750282E+02  0.81435747389E+01 -0.13848003849E+02  0.20896126800E+02  0.00000000000E+00 0. -1.
        -14    1    4    4    0    0  0.47247220224E+02  0.44452984123E+02  0.66386538764E+02  0.92819933988E+02  0.00000000000E+00 0.  1.
</event>
<event>
12    1  0.8133506E-002  0.1723363E+03  0.7818608E-02  0.1175775E+00
         21   -1    0    0  503  502  0.00000000000E+00  0.00000000000E+00  0.11240822170E+04  0.11240822170E+04  0.00000000000E+00 0. -1.
         21   -1    0    0  501  503 -0.00000000000E+00 -0.00000000000E+00 -0.48468593813E+02  0.48468593813E+02  0.00000000000E+00 0.  1.
          6    2    1    2  501    0 -0.81907333894E+01  0.16103194392E+02  0.14170349644E+03  0.22311360356E+03  0.17138669204E+03 0.  0.
         24    2    3    3    0    0  0.11055678642E+02  0.72995201573E+01 -0.11725554400E+01  0.78602063346E+02  0.77468693362E+02 0.  0.
         -6    2    1    2    0  502  0.81907333894E+01 -0.16103194392E+02  0.93391012671E+03  0.94943720721E+03  0.17004847744E+03 0.  0.
        -24    2    5    5    0    0 -0.39690811857E+02  0.33063677274E+02  0.67893384254E+03  0.68534438426E+03  0.77956367218E+02 0.  0.
          5    1    3    3  501    0 -0.19246412031E+02  0.88036742349E+01  0.14287605188E+03  0.14451154022E+03  0.47000000000E+01 0. -1.
        -11    1    4    4    0    0 -0.20357771085E+02 -0.18143737970E+02 -0.20187067410E+02  0.33928627465E+02  0.00000000000E+00 0.  1.
         12    1    4    4    0    0  0.31413449727E+02  0.25443258127E+02  0.19014511970E+02  0.44673435880E+02  0.00000000000E+00 0. -1.
         -5    1    5    5    0  502  0.47881545247E+02 -0.49166871666E+02  0.25497628417E+03  0.26409282295E+03  0.47000000000E+01 0.  1.
         11    1    6    6    0    0 -0.38278168513E+02 -0.17075787601E+02  0.25022342747E+03  0.25370960636E+03  0.00000000000E+00 0. -1.
        -12    1    6    6    0    0 -0.14126433440E+01  0.50139464875E+02  0.42871041507E+03  0.43163477790E+03  0.00000000000E+00 0.  1.
</event>
<event>
12    1  0.8133506E-002  0.2264176E+03  0.7818608E-02  0.1129251E+00
         21   -1    0    0  501  502  0.00000000000E+00  0.00000000000E+00  0.15861181006E+03  0.15861181006E+03  0.00000000000E+00 0.  1.
         21   -1    0    0  502  503 -0.00000000000E+00 -0.00000000000E+00 -0.14422193873E+04  0.14422193873E+04  0.00000000000E+00 0.  1.
         -6    2    1    2    0  503  0.14181796319E+02  0.14460017406E+03 -0.13471202064E+04  0.13660152889E+04  0.17365075745E+03 0.  0.
        -24    2    3    3    0    0  0.54626386471E+02  0.14619593650E+03 -0.88615675761E+03  0.90325433293E+03  0.78976559481E+02 0.  0.
          6    2    1    2  501    0 -0.14181796319E+02 -0.14460017406E+03  0.63512629100E+02  0.23481590843E+03  0.17318869221E+03 0.  0.
         24    2    5    5    0    0 -0.57307254679E+02 -0.92108738621E+02  0.89993361319E+02  0.16175103908E+03  0.79350188369E+02 0.  0.
          5    1    5    5  501    0  0.43125458360E+02 -0.52491435440E+02 -0.26480732219E+02  0.73064869343E+02  0.47000000000E+01 0. -1.
        -11    1    6    6    0    0 -0.41994008209E+02 -0.11378252421E+02  0.54385943866E+01  0.43846774825E+02  0.00000000000E+00 0.  1.
         12    1    6    6    0    0 -0.15313246470E+02 -0.80730486201E+02  0.84554766933E+02  0.11790426426E+03  0.00000000000E+00 0. -1.
         -5    1    3    3    0  503 -0.40444590151E+02 -0.15957624435E+01 -0.46096344874E+03  0.46276095601E+03  0.47000000000E+01 0.  1.
         11    1    4    4    0    0  0.68866651672E+02  0.92330140713E+02 -0.68071201904E+03  0.69038853080E+03  0.00000000000E+00 0. -1.
        -12    1    4    4    0    0 -0.14240265202E+02  0.53865795791E+02 -0.20544473857E+03  0.21286580213E+03  0.00000000000E+00 0.  1.
</event>
<event>
12    1  0.8133506E-002  0.2679110E+03  0.7818608E-02  0.1103034E+00
         21   -1    0    0  503  502  0.00000000000E+00  0.00000000000E+00  0.47750932388E+02  0.47750932388E+02  0.00000000000E+00 0.  1.
         21   -1    0    0  501  503 -0.00000000000E+00 -0.00000000000E+00 -0.16543417065E+04  0.16543417065E+04  0.00000000000E+00 0.  1.
          6    2    1    2  501    0 -0.13560722141E+03  0.14579065328E+03 -0.10728970111E+04  0.11049282475E+04  0.17353444168E+03 0.  0.
         24    2    3    3    0    0 -0.15067762548E+03  0.16608117170E+03 -0.93094574715E+03  0.96066781088E+03  0.77045157558E+02 0.  0.
         -6    2    1    2    0  502  0.13560722141E+03 -0.14579065328E+03 -0.53369376303E+03  0.59716439148E+03  0.17925413433E+03 0.  0.
        -24    2    5    5    0    0  0.70150110077E+02 -0.43803440207E+00 -0.21103278813E+03  0.23724188321E+03  0.82629556844E+02 0.  0.
          5    1    3    3  501    0  0.15070404065E+02 -0.20290518423E+02 -0.14195126398E+03  0.14426043658E+03  0.47000000000E+01 0. -1.
        -13    1    4    4    0    0 -0.11916051944E+03  0.15061792285E+03 -0.86386206453E+03  0.88495347596E+03  0.00000000000E+00 0.  1.
         14    1    4    4    0    0 -0.31517106042E+02  0.15463248851E+02 -0.67083682627E+02  0.75714334925E+02  0.00000000000E+00 0. -1.
         -5    1    5    5    0  502  0.65457111336E+02 -0.14535261888E+03 -0.32266097490E+03  0.35992250827E+03  0.47000000000E+01 0.  1.
         11    1    6    6    0    0 -0.96604383742E+01 -0.17402501772E+02 -0.83513937398E+02  0.85853065625E+02  0.00000000000E+00 0. -1.
        -12    1    6    6    0    0  0.79810548451E+02  0.16964467370E+02 -0.12751885073E+03  0.15138881758E+03  0.00000000000E+00 0.  1.
</event>
<event>
12    1  0.8133506E-002  0.2919432E+03  0.7818608E-02  0.1091106E+00
         21   -1    0    0  503  502  0.00000000000E+00  0.00000000000E+00  0.42889107408E+03  0.42889107408E+03  0.00000000000E+00 0. -1.
         21   -1    0    0  501  503 -0.00000000000E+00 -0.00000000000E+00 -0.19000671271E+03  0.19000671271E+03  0.00000000000E+00 0.  1.
          6    2    1    2  501    0  0.19485744308E+03 -0.97266721194E+02  0.12775279549E+03  0.30651807862E+03  0.17378813995E+03 0.  0.
         24    2    3    3    0    0  0.27321959671E+02  0.13440319638E+01  0.40224763804E+02  0.93268306825E+02  0.79577946271E+02 0.  0.
         -6    2    1    2    0  502 -0.19485744308E+03  0.97266721194E+02  0.11113156588E+03  0.31237970817E+03  0.19442381276E+03 0.  0.
        -24    2    5    5    0    0 -0.20514041458E+03  0.12549560322E+03  0.73991641537E+02  0.26437894501E+03  0.81177136099E+02 0.  0.
          5    1    3    3  501    0  0.16753548341E+03 -0.98610753158E+02  0.87528031687E+02  0.21324977179E+03  0.47000000000E+01 0. -1.
        -11    1    4    4    0    0 -0.50645738451E+01 -0.32736938074E+02  0.29266749175E+01  0.33255412323E+02  0.00000000000E+00 0.  1.
         12    1    4    4    0    0  0.32386533516E+02  0.34080970038E+02  0.37298088886E+02  0.60012894502E+02  0.00000000000E+00 0. -1.
         -5    1    5    5    0  502  0.10282971504E+02 -0.28228882027E+02  0.37139924348E+02  0.48000763161E+02  0.47000000000E+01 0.  1.
         11    1    6    6    0    0 -0.13165502658E+03  0.83518721996E+02  0.87331847760E+02  0.17870443358E+03  0.00000000000E+00 0. -1.
        -12    1    6    6    0    0 -0.73485387997E+02  0.41976881225E+02 -0.13340206223E+02  0.85674511428E+02  0.00000000000E+00 0.  1.
</event>
<event>
12    1  0.8133506E-002  0.2871273E+03  0.7818608E-02  0.1091875E+00
         21   -1    0    0  503  502  0.00000000000E+00  0.00000000000E+00  0.80957066863E+03  0.80957066863E+03  0.00000000000E+00 0.  1.
         21   -1    0    0  501  503 -0.00000000000E+00 -0.00000000000E+00 -0.10874988095E+03  0.10874988095E+03  0.00000000000E+00 0.  1.
          6    2    1    2  501    0  0.15189498770E+03 -0.17236856863E+03  0.23432575386E+03  0.37060847620E+03  0.17221809711E+03 0.  0.
         24    2    3    3    0    0  0.23375104880E+02 -0.35304188176E+02  0.11737576781E+03  0.14924137407E+03  0.81872679415E+02 0.  0.
         -6    2    1    2    0  502 -0.15189498770E+03  0.17236856863E+03  0.46649503382E+03  0.54771207338E+03  0.17201130199E+03 0.  0.
        -24    2    5    5    0    0 -0.15480016993E+03  0.78435087512E+02  0.34238860564E+03  0.39196729988E+03  0.79330015383E+02 0.  0.
          5    1    3    3  501    0  0.12851988282E+03 -0.13706438045E+03  0.11694998605E+03  0.22136710213E+03  0.47000000000E+01 0. -1.
        -13    1    4    4    0    0  0.12257084408E+02 -0.59307457504E+02  0.56320993326E+02  0.82702266734E+02  0.00000000000E+00 0.  1.
         14    1    4    4    0    0  0.11118020472E+02  0.24003269329E+02  0.61054774488E+02  0.66539107339E+02  0.00000000000E+00 0. -1.
         -5    1    5    5    0  502  0.29051822296E+01  0.93933481116E+02  0.12410642818E+03  0.15574477351E+03  0.47000000000E+01 0.  1.
         11    1    6    6    0    0 -0.16138707642E+02  0.22254139291E+02  0.13451466087E+02  0.30604681665E+02  0.00000000000E+00 0. -1.
        -12    1    6    6    0    0 -0.13866146228E+03  0.56180948221E+02  0.32893713955E+03  0.36136261821E+03  0.00000000000E+00 0.  1.
</event>
<event>
12    1  0.8133506E-002  0.1896708E+03  0.7818608E-02  0.1160139E+00
         21   -1    0    0  503  502  0.00000000000E+00  0.00000000000E+00  0.75780541911E+03  0.75780541911E+03  0.00000000000E+00 0.  1.
         21   -1    0    0  501  503 -0.00000000000E+00 -0.00000000000E+00 -0.46195143031E+02  0.46195143031E+02  0.00000000000E+00 0. -1.
          6    2    1    2  501    0 -0.52253229490E+02  0.51819084239E+02  0.37745018697E+03  0.41976367706E+03  0.16827740031E+03 0.  0.
         24    2    3    3    0    0 -0.72230233082E+02 -0.83125701279E+00  0.32641722757E+03  0.34362175660E+03  0.79434297366E+02 0.  0.
         -6    2    1    2    0  502  0.52253229490E+02 -0.51819084239E+02  0.33416008911E+03  0.38423688507E+03  0.17481247443E+03 0.  0.
        -24    2    5    5    0    0 -0.24526173383E+02 -0.63460681012E+02  0.24115541643E+03  0.26298276093E+03  0.79844890012E+02 0.  0.
          5    1    3    3  501    0  0.19977003592E+02  0.52650341251E+02  0.51032959403E+02  0.76141920463E+02  0.47000000000E+01 0. -1.
        -11    1    4    4    0    0  0.11867884568E+02 -0.15737129312E+02  0.93091809032E+02  0.95155603261E+02  0.00000000000E+00 0.  1.
         12    1    4    4    0    0 -0.84098117650E+02  0.14905872299E+02  0.23332541854E+03  0.24846615334E+03  0.00000000000E+00 0. -1.
         -5    1    5    5    0  502  0.76779402873E+02  0.11641596773E+02  0.93004672680E+02  0.12125412414E+03  0.47000000000E+01 0.  1.
         13    1    6    6    0    0 -0.45920507045E+02 -0.42709438675E+02  0.21278603308E+03  0.22183481466E+03  0.00000000000E+00 0. -1.
        -14    1    6    6    0    0  0.21394333663E+02 -0.20751242337E+02  0.28369383344E+02  0.41147946276E+02  0.00000000000E+00 0.  1.
</event>
<event>
12    1  0.8133506E-002  0.1963680E+03  0.7818608E-02  0.1153088E+00
         21   -1    0    0  503  502  0.00000000000E+00  0.00000000000E+00  0.47543247216E+03  0.47543247216E+03  0.00000000000E+00 0.  1.
         21   -1    0    0  501  503 -0.00000000000E+00 -0.00000000000E+00 -0.12823205344E+03  0.12823205344E+03  0.00000000000E+00 0.  1.
          6    2    1    2  501    0 -0.32239163785E+02  0.88604428793E+02 -0.10610518977E+02  0.19551127575E+03  0.17094433991E+03 0.  0.
         24    2    3    3    0    0 -0.62084908971E+02  0.23689785250E+02 -0.48956922238E+02  0.11428802726E+03  0.79052078359E+02 0.  0.
         -6    2    1    2    0  502  0.32239163785E+02 -0.88604428793E+02  0.35781093769E+03  0.40815324985E+03  0.17225068867E+03 0.  0.
        -24    2    5    5    0    0 -0.12153673397E+02 -0.43364649896E+02  0.32222227610E+03  0.33531092409E+03  0.81104968802E+02 0.  0.
          5    1    3    3  501    0  0.29845745186E+02  0.64914643543E+02  0.38346403262E+02  0.81223248489E+02  0.47000000000E+01 0. -1.
        -13    1    4    4    0    0 -0.66453556216E+01  0.43490490519E+02 -0.15953441030E+02  0.46798459351E+02  0.00000000000E+00 0.  1.
         14    1    4    4    0    0 -0.55439553349E+02 -0.19800705269E+02 -0.33003481208E+02  0.67489567909E+02  0.00000000000E+00 0. -1.
         -5    1    5    5    0  502  0.44392837182E+02 -0.45239778897E+02  0.35588661596E+02  0.72842325758E+02  0.47000000000E+01 0.  1.
         13    1    6    6    0    0 -0.26950452435E+02 -0.84806534919E+01  0.32259270036E+02  0.42882500782E+02  0.00000000000E+00 0. -1.
        -14    1    6    6    0    0  0.14796779038E+02 -0.34883996404E+02  0.28996300606E+03  0.29242842331E+03  0.00000000000E+00 0.  1.
</event>
<event>
12    1  0.8133506E-002  0.1861953E+03  0.7818608E-02  0.1162196E+00
         21   -1    0    0  503  502  0.00000000000E+00  0.00000000000E+00  0.54841609188E+03  0.54841609188E+03  0.00000000000E+00 0.  1.
         21   -1    0    0  501  503 -0.00000000000E+00 -0.00000000000E+00 -0.80623190131E+02  0.80623190131E+02  0.00000000000E+00 0.  1.
          6    2    1    2  501    0  0.57492092440E+01 -0.71354746396E+02  0.85638478959E+02  0.20393849796E+03  0.17068218604E+03 0.  0.
         24    2    3    3    0    0  0.28082662988E+02 -0.22992644315E+01  0.99016794200E+02  0.12998910943E+03  0.79365738577E+02 0.  0.
         -6    2    1    2    0  502 -0.57492092440E+01  0.71354746396E+02  0.38215442279E+03  0.42510078404E+03  0.17188403212E+03 0.  0.
        -24    2    5    5    0    0  0.63653079364E+01  0.49377659974E+02  0.83254540060E+02  0.12511247802E+03  0.79013563818E+02 0.  0.
          5    1    3    3  501    0 -0.22333453744E+02 -0.69055481965E+02 -0.13378315241E+02  0.73949388532E+02  0.47000000000E+01 0. -1.
        -11    1    4    4    0    0 -0.15938792234E+02  0.77055114544E+00 -0.52254874213E+01  0.16791205012E+02  0.00000000000E+00 0.  1.
         12    1    4    4    0    0  0.44021455222E+02 -0.30698155769E+01  0.10424228162E+03  0.11319790442E+03  0.00000000000E+00 0. -1.
         -5    1    5    5    0  502 -0.12114517180E+02  0.21977086422E+02  0.29889988273E+03  0.29998830602E+03  0.47000000000E+01 0.  1.
         13    1    6    6    0    0  0.34844793838E+02  0.12377331642E+02  0.65387474100E+02  0.75119103865E+02  0.00000000000E+00 0. -1.
        -14    1    6    6    0    0 -0.28479485902E+02  0.37000328332E+02  0.17867065960E+02  0.49993374160E+02  0.00000000000E+00 0.  1.
</event>
<event>
12    1  0.8133506E-002  0.1932725E+03  0.7818608E-02  0.1155937E+00
         21   -1    0    0  501  502  0.00000000000E+00  0.00000000000E+00  0.13495389203E+03  0.13495389203E+03  0.00000000000E+00 0.  1.
         21   -1    0    0  502  503 -0.00000000000E+00 -0.00000000000E+00 -0.28669195060E+03  0.28669195060E+03  0.00000000000E+00 0.  1.
         -6    2    1    2    0  503 -0.30711104466E+00 -0.86024300334E+02 -0.12011930969E+03  0.22755856275E+03  0.17307217095E+03 0.  0.
        -24    2    3    3    0    0 -0.29099964134E+02 -0.40456157079E+02 -0.14167322197E+03  0.16931643707E+03  0.78187246289E+02 0.  0.
          6    2    1    2  501    0  0.30711104466E+00  0.86024300334E+02 -0.31618748883E+02  0.19408727989E+03  0.17108434285E+03 0.  0.
         24    2    5    5    0    0  0.54481681902E+02  0.10144428039E+02 -0.83791091069E+01  0.97885356808E+02  0.80250673049E+02 0.  0.
          5    1    5    5  501    0 -0.54174570858E+02  0.75879872295E+02 -0.23239639777E+02  0.96201923079E+02  0.47000000000E+01 0. -1.
        -13    1    6    6    0    0  0.19285971292E+00  0.36160503475E+02  0.41386797805E+01  0.36397086102E+02  0.00000000000E+00 0.  1.
         14    1    6    6    0    0  0.54288822189E+02 -0.26016075435E+02 -0.12517788887E+02  0.61488270706E+02  0.00000000000E+00 0. -1.
         -5    1    3    3    0  503  0.28792853089E+02 -0.45568143255E+02  0.21553912282E+02  0.58242125677E+02  0.47000000000E+01 0.  1.
         11    1    4    4    0    0 -0.13904434753E+02 -0.22914178632E+02 -0.10842872354E+01  0.26824775246E+02  0.00000000000E+00 0. -1.
        -12    1    4    4    0    0 -0.15195529381E+02 -0.17541978447E+02 -0.14058893473E+03  0.14249166183E+03  0.00000000000E+00 0.  1.
</event>
<event>
12    1  0.8133506E-002  0.2023452E+03  0.7818608E-02  0.1147861E+00
         21   -1    0    0  503  502  0.00000000000E+00  0.00000000000E+00  0.32165066493E+03  0.32165066493E+03  0.00000000000E+00 0.  1.
         21   -1    0    0  501  503 -0.00000000000E+00 -0.00000000000E+00 -0.21282630875E+03  0.21282630875E+03  0.00000000000E+00 0. -1.
          6    2    1    2  501    0  0.10537379838E+03 -0.17070363288E+02 -0.11529257699E+03  0.23252996568E+03  0.17141403660E+03 0.  0.
         24    2    3    3    0    0  0.12031645979E+03  0.27170518350E+02 -0.51998471489E+02  0.15373420101E+03  0.75604735036E+02 0.  0.
         -6    2    1    2    0  502 -0.10537379838E+03  0.17070363288E+02  0.22411693317E+03  0.30194700801E+03  0.17189694942E+03 0.  0.
        -24    2    5    5    0    0 -0.13364292758E+03  0.46627617298E+02  0.18994397775E+03  0.24844321550E+03  0.74904938795E+02 0.  0.
          5    1    3    3  501    0 -0.14942661412E+02 -0.44240881638E+02 -0.63294105497E+02  0.78795764663E+02  0.47000000000E+01 0. -1.
        -11    1    4    4    0    0  0.47576424929E+02 -0.22184540732E+02 -0.18394777428E+01  0.52526695450E+02  0.00000000000E+00 0.  1.
         12    1    4    4    0    0  0.72740034863E+02  0.49355059082E+02 -0.50158993746E+02  0.10120750556E+03  0.00000000000E+00 0. -1.
         -5    1    5    5    0  502  0.28269129200E+02 -0.29557254010E+02  0.34172955421E+02  0.53503792506E+02  0.47000000000E+01 0.  1.
         11    1    6    6    0    0 -0.79735125211E+01 -0.15742702759E+02  0.10042497622E+02  0.20304220019E+02  0.00000000000E+00 0. -1.
        -12    1    6    6    0    0 -0.12566941506E+03  0.62370320057E+02  0.17990148013E+03  0.22813899548E+03  0.00000000000E+00 0.  1.
</event>
<event>
12    1  0.8133506E-002  0.2475682E+03  0.7818608E-02  0.1114976E+00
         21   -1    0    0  503  502  0.00000000000E+00  0.00000000000E+00  0.59673693662E+03  0.59673693662E+03  0.00000000000E+00 0.  1.
         21   -1    0    0  501  503 -0.00000000000E+00 -0.00000000000E+00 -0.11301651865E+03  0.11301651865E+03  0.00000000000E+00 0. -1.
          6    2    1    2  501    0 -0.15452616511E+03 -0.89075643518E+02  0.13267808319E+03  0.28019467479E+03  0.17056604601E+03 0.  0.
         24    2    3    3    0    0 -0.15037804330E+03 -0.35671106834E+02  0.49012615784E+02  0.18073990170E+03  0.79866712679E+02 0.  0.
         -6    2    1    2    0  502  0.15452616511E+03  0.89075643518E+02  0.35104233478E+03  0.42955878048E+03  0.17168930985E+03 0.  0.
        -24    2    5    5    0    0  0.14684273330E+03  0.10809748183E+03  0.21895242005E+03  0.29580265528E+03  0.79443028166E+02 0.  0.
          5    1    3    3  501    0 -0.41481218118E+01 -0.53404536684E+02  0.83665467407E+02  0.99454773085E+02  0.47000000000E+01 0.  1.
        -11    1    4    4    0    0 -0.46471370096E+02 -0.21366542495E+02  0.55723449036E+02  0.75638747671E+02  0.00000000000E+00 0.  1.
         12    1    4    4    0    0 -0.10390667320E+03 -0.14304564339E+02 -0.67108332519E+01  0.10510115403E+03  0.00000000000E+00 0. -1.
         -5    1    5    5    0  502  0.76834318043E+01 -0.19021838309E+02  0.13208991473E+03  0.13375612521E+03  0.47000000000E+01 0.  1.
         11    1    6    6    0    0 -0.46314693641E+01  0.23783883949E+02  0.39124873513E+02  0.46020423418E+02  0.00000000000E+00 0. -1.
        -12    1    6    6    0    0  0.15147420267E+03  0.84313597878E+02  0.17982754653E+03  0.24978223186E+03  0.00000000000E+00 0.  1.
</event>
<event>
12    1  0.8133506E-002  0.2567435E+03  0.7818608E-02  0.1109257E+00
         21   -1    0    0  503  502  0.00000000000E+00  0.00000000000E+00  0.50220750822E+03  0.50220750822E+03  0.00000000000E+00 0.  1.
         21   -1    0    0  501  503 -0.00000000000E+00 -0.00000000000E+00 -0.24216181597E+03  0.24216181597E+03  0.00000000000E+00 0.  1.
          6    2    1    2  501    0 -0.15644812788E+02  0.19058787018E+03  0.38230710101E+03  0.46000149414E+03  0.16992397920E+03 0.  0.
         24    2    3    3    0    0 -0.60072312622E+02  0.97194739039E+02  0.14766330722E+03  0.20353340715E+03  0.81030213408E+02 0.  0.
         -6    2    1    2    0  502  0.15644812788E+02 -0.19058787018E+03 -0.12226140876E+03  0.28436783004E+03  0.17131466448E+03 0.  0.
        -24    2    5    5    0    0  0.58792262726E+02 -0.51454769958E+02 -0.37784306647E+02  0.11590954798E+03  0.76832584081E+02 0.  0.
          5    1    3    3  501    0  0.44427499834E+02  0.93393131142E+02  0.23464379379E+03  0.25646808700E+03  0.47000000000E+01 0. -1.
        -11    1    4    4    0    0 -0.35135851609E+01  0.47113934034E+02  0.12791765902E+02  0.48945861273E+02  0.00000000000E+00 0.  1.
         12    1    4    4    0    0 -0.56558727461E+02  0.50080805005E+02  0.13487154132E+03  0.15458754587E+03  0.00000000000E+00 0. -1.
         -5    1    5    5    0  502 -0.43147449938E+02 -0.13913310022E+03 -0.84477102114E+02  0.16845828206E+03  0.47000000000E+01 0.  1.
         13    1    6    6    0    0  0.65010898762E+02 -0.64758505992E+02 -0.22022523478E+02  0.94366692199E+02  0.00000000000E+00 0. -1.
        -14    1    6    6    0    0 -0.62186360360E+01  0.13303736034E+02 -0.15761783169E+02  0.21542855783E+02  0.00000000000E+00 0.  1.
</event>
<event>
12    1  0.8133506E-002  0.1967158E+03  0.7818608E-02  0.1152691E+00
         21   -1    0    0  503  502  0.00000000000E+00  0.00000000000E+00  0.12529689168E+03  0.12529689168E+03  0.00000000000E+00 0.  1.
         21   -1    0    0  501  503 -0.00000000000E+00 -0.00000000000E+00 -0.51403164172E+03  0.51403164172E+03  0.00000000000E+00 0.  1.
          6    2    1    2  501    0  0.59323304535E+02  0.72735680425E+02 -0.39708067565E+03  0.44313675166E+03  0.17287968079E+03 0.  0.
         24    2    3    3    0    0  0.25495064540E+02  0.10783303204E+03 -0.34735135691E+03  0.37334227442E+03  0.80333850940E+02 0.  0.
         -6    2    1    2    0  502 -0.59323304535E+02 -0.72735680425E+02  0.83459256051E+01  0.19619178174E+03  0.17208087367E+03 0.  0.
        -24    2    5    5    0    0 -0.81502890858E+02 -0.36662181072E+01  0.33656731072E+02  0.11921612619E+03  0.80147032535E+02 0.  0.
          5    1    3    3  501    0  0.33828239994E+02 -0.35097351611E+02 -0.49729318736E+02  0.69794477239E+02  0.47000000000E+01 0. -1.
        -13    1    4    4    0    0 -0.23457577386E+02  0.65368648401E+02 -0.14320681378E+03  0.15915875610E+03  0.00000000000E+00 0.  1.
         14    1    4    4    0    0  0.48952641927E+02  0.42464383635E+02 -0.20414454313E+03  0.21418351832E+03  0.00000000000E+00 0. -1.
         -5    1    5    5    0  502  0.22179586323E+02 -0.69069462318E+02 -0.25310805467E+02  0.76975655552E+02  0.47000000000E+01 0.  1.
         11    1    6    6    0    0  0.10125222956E+02 -0.16984328015E+02 -0.22618345614E+01  0.19902347440E+02  0.00000000000E+00 0. -1.
        -12    1    6    6    0    0 -0.91628113814E+02  0.13318109908E+02  0.35918565633E+02  0.99313778751E+02  0.00000000000E+00 0.  1.
</event>
<event>
12    1  0.8133506E-002  0.1730450E+03  0.7818608E-02  0.1175900E+00
         21   -1    0    0  503  502  0.00000000000E+00  0.00000000000E+00  0.10467649447E+04  0.10467649447E+04  0.00000000000E+00 0.  1.
         21   -1    0    0  501  503 -0.00000000000E+00 -0.00000000000E+00 -0.47704239827E+02  0.47704239827E+02  0.00000000000E+00 0.  1.
          6    2    1    2  501    0  0.13022453707E+01 -0.21172295880E+02  0.14257693046E+03  0.22067913966E+03  0.16709619872E+03 0.  0.
         24    2    3    3    0    0  0.47790957215E+02  0.30369416484E+02  0.69827203994E+02  0.12001950950E+03  0.79514572216E+02 0.  0.
         -6    2    1    2    0  502 -0.13022453707E+01  0.21172295880E+02  0.85648377445E+03  0.87379004490E+03  0.17173999162E+03 0.  0.
        -24    2    5    5    0    0 -0.27702699757E+02 -0.27374079280E+02  0.22896643319E+03  0.24382668239E+03  0.74222932611E+02 0.  0.
          5    1    3    3  501    0 -0.46488711844E+02 -0.51541712365E+02  0.72749726468E+02  0.10065963016E+03  0.47000000000E+01 0. -1.
        -13    1    4    4    0    0  0.66369136654E+02  0.69538373939E+01  0.40050558297E+02  0.77828435514E+02  0.00000000000E+00 0.  1.
         14    1    4    4    0    0 -0.18578179439E+02  0.23415579090E+02  0.29776645697E+02  0.42191073989E+02  0.00000000000E+00 0. -1.
         -5    1    5    5    0  502  0.26400454386E+02  0.48546375160E+02  0.62751734125E+03  0.62996336251E+03  0.47000000000E+01 0.  1.
         13    1    6    6    0    0  0.25187269025E+02 -0.13502900878E+02  0.92480357201E+02  0.96795368283E+02  0.00000000000E+00 0. -1.
        -14    1    6    6    0    0 -0.52889968781E+02 -0.13871178401E+02  0.13648607599E+03  0.14703131411E+03  0.00000000000E+00 0.  1.
</event>
<event>
12    1  0.8133506E-002  0.1752426E+03  0.7818608E-02  0.1172561E+00
         21   -1    0    0  501  502  0.00000000000E+00  0.00000000000E+00  0.12071457454E+03  0.12071457454E+03  0.00000000000E+00 0.  1.
         21   -1    0    0  502  503 -0.00000000000E+00 -0.00000000000E+00 -0.27756925953E+03  0.27756925953E+03  0.00000000000E+00 0.  1.
         -6    2    1    2    0  503  0.36232950292E+02 -0.70732768618E+01 -0.13642054277E+03  0.22185386981E+03  0.17101379221E+03 0.  0.
        -24    2    3    3    0    0 -0.41522379989E+02  0.28410601733E+02 -0.77728627998E+02  0.11806645300E+03  0.73257609727E+02 0.  0.
          6    2    1    2  501    0 -0.36232950292E+02  0.70732768618E+01 -0.20434142214E+02  0.17642996427E+03  0.17131001194E+03 0.  0.
         24    2    5    5    0    0 -0.71966930165E+02  0.31839901016E+02 -0.50493080683E+02  0.12336460107E+03  0.80475184166E+02 0.  0.
          5    1    5    5  501    0  0.35733979873E+02 -0.24766624154E+02  0.30058938469E+02  0.53065363199E+02  0.47000000000E+01 0. -1.
        -11    1    6    6    0    0 -0.67971112800E+02  0.28955872174E+02 -0.12671525547E+01  0.73892627401E+02  0.00000000000E+00 0.  1.
         12    1    6    6    0    0 -0.39958173651E+01  0.28840288417E+01 -0.49225928128E+02  0.49471973670E+02  0.00000000000E+00 0. -1.
         -5    1    3    3    0  503  0.77755330282E+02 -0.35483878595E+02 -0.58691914775E+02  0.10378741681E+03  0.47000000000E+01 0.  1.
         13    1    4    4    0    0 -0.58974869300E+02  0.18639579484E+02 -0.35435478854E+02  0.71282131659E+02  0.00000000000E+00 0. -1.
        -14    1    4    4    0    0  0.17452489310E+02  0.97710222497E+01 -0.42293149144E+02  0.46784321342E+02  0.00000000000E+00 0.  1.
</event>
<event>
12    1  0.8133506E-002  0.2479251E+03  0.7818608E-02  0.1114768E+00
         21   -1    0    0  503  502  0.00000000000E+00  0.00000000000E+00  0.75410772994E+03  0.75410772994E+03  0.00000000000E+00 0. -1.
         21   -1    0    0  501  503 -0.00000000000E+00 -0.00000000000E+00 -0.96074773636E+02  0.96074773636E+02  0.00000000000E+00 0.  1.
          6    2    1    2  501    0  0.90716946325E+02 -0.15311215452E+03  0.16131874424E+03  0.29503217935E+03  0.17131069259E+03 0.  0.
         24    2    3    3    0    0  0.30513957617E+02 -0.11724063475E+03  0.16476157932E+03  0.22471071112E+03  0.93123883218E+02 0.  0.
         -6    2    1    2    0  502 -0.90716946325E+02  0.15311215452E+03  0.49671421206E+03  0.55515032422E+03  0.17260932133E+03 0.  0.
        -24    2    5    5    0    0 -0.97906934549E+02  0.50348511770E+02  0.35280527419E+03  0.37810814111E+03  0.79833980281E+02 0.  0.
          5    1    3    3  501    0  0.60202988709E+02 -0.35871519771E+02 -0.34428350835E+01  0.70321468226E+02  0.47000000000E+01 0. -1.
        -11    1    4    4    0    0 -0.78424038518E+01 -0.27055137041E+02 -0.50787733215E+01  0.28623027040E+02  0.00000000000E+00 0.  1.
         12    1    4    4    0    0  0.38356361468E+02 -0.90185497710E+02  0.16984035264E+03  0.19608768408E+03  0.00000000000E+00 0. -1.
         -5    1    5    5    0  502  0.71899882240E+01  0.10276364275E+03  0.14390893787E+03  0.17704218311E+03  0.47000000000E+01 0.  1.
         13    1    6    6    0    0 -0.57424581250E+02  0.44202359145E+02  0.31198424628E+03  0.32028987029E+03  0.00000000000E+00 0. -1.
        -14    1    6    6    0    0 -0.40482353299E+02  0.61461526250E+01  0.40821027912E+02  0.57818270819E+02  0.00000000000E+00 0.  1.
</event>
<event>
12    1  0.8133506E-002  0.2021321E+03  0.7818608E-02  0.1148049E+00
         21   -1    0    0  501  502  0.00000000000E+00  0.00000000000E+00  0.29975812535E+03  0.29975812535E+03  0.00000000000E+00 0.  1.
         21   -1    0    0  502  503 -0.00000000000E+00 -0.00000000000E+00 -0.13635864558E+03  0.13635864558E+03  0.00000000000E+00 0. -1.
         -6    2    1    2    0  503 -0.65915265785E+02 -0.83073728048E+02  0.70425396904E+02  0.21404937553E+03  0.17207943537E+03 0.  0.
        -24    2    3    3    0    0 -0.26595281213E+02 -0.89209727645E+02  0.10510171772E+03  0.16105646182E+03  0.78912155820E+02 0.  0.
          6    2    1    2  501    0  0.65915265785E+02  0.83073728048E+02  0.92974082870E+02  0.22206739541E+03  0.17153332464E+03 0.  0.
         24    2    5    5    0    0  0.82537184917E+02  0.39968243603E+02  0.17060365434E+02  0.13307664600E+03  0.94913066812E+02 0.  0.
          5    1    5    5  501    0 -0.16621919132E+02  0.43105484446E+02  0.75913717436E+02  0.88990749406E+02  0.47000000000E+01 0. -1.
        -13    1    6    6    0    0  0.77306280745E+01 -0.17965423867E+02 -0.23119003882E+02  0.30282130137E+02  0.00000000000E+00 0.  1.
         14    1    6    6    0    0  0.74806556843E+02  0.57933667470E+02  0.40179369316E+02  0.10279451586E+03  0.00000000000E+00 0. -1.
         -5    1    3    3    0  503 -0.39319984572E+02  0.61359995969E+01 -0.34676320817E+02  0.52992913707E+02  0.47000000000E+01 0.  1.
         13    1    4    4    0    0  0.26678278912E+02 -0.46078416466E+02  0.51057167865E+02  0.73768458166E+02  0.00000000000E+00 0. -1.
        -14    1    4    4    0    0 -0.53273560125E+02 -0.43131311179E+02  0.54044549855E+02  0.87288003652E+02  0.00000000000E+00 0.  1.
</event>
<event>
12    1  0.8133506E-002  0.2433571E+03  0.7818608E-02  0.1117901E+00
         21   -1    0    0  501  502  0.00000000000E+00  0.00000000000E+00  0.42309552925E+03  0.42309552925E+03  0.00000000000E+00 0. -1.
         21   -1    0    0  502  503 -0.00000000000E+00 -0.00000000000E+00 -0.15940489989E+03  0.15940489989E+03  0.00000000000E+00 0.  1.
         -6    2    1    2    0  503  0.16427143779E+03  0.47621887740E+02  0.26770524366E+02  0.24286265922E+03  0.17033103299E+03 0.  0.
        -24    2    3    3    0    0  0.14237526652E+03 -0.12440414482E+02 -0.18688210555E+02  0.16427825208E+03  0.78820139960E+02 0.  0.
          6    2    1    2  501    0 -0.16427143779E+03 -0.47621887740E+02  0.23692010499E+03  0.33963776993E+03  0.17311767427E+03 0.  0.
         24    2    5    5    0    0 -0.95088148489E+02 -0.90734646919E+02  0.19358346357E+03  0.24719756216E+03  0.79734216201E+02 0.  0.
          5    1    5    5  501    0 -0.69183289305E+02  0.43112759180E+02  0.43336641419E+02  0.92440207771E+02  0.47000000000E+01 0. -1.
        -13    1    6    6    0    0 -0.70250983906E+02 -0.18993442932E+02  0.63508540774E+02  0.96588230989E+02  0.00000000000E+00 0.  1.
         14    1    6    6    0    0 -0.24837164582E+02 -0.71741203988E+02  0.13007492280E+03  0.15060933117E+03  0.00000000000E+00 0. -1.
         -5    1    3    3    0  503  0.21896171276E+02  0.60062302221E+02  0.45458734922E+02  0.78584407139E+02  0.47000000000E+01 0.  1.
         13    1    4    4    0    0  0.12871631944E+03 -0.73815253986E+01  0.12822568832E+02  0.12956386872E+03  0.00000000000E+00 0. -1.
        -14    1    4    4    0    0  0.13658947080E+02 -0.50588890830E+01 -0.31510779388E+02  0.34714383355E+02  0.00000000000E+00 0.  1.
</event>
<event>
12    1  0.8133506E-002  0.1853071E+03  0.7818608E-02  0.1162816E+00
         21   -1    0    0  503  502  0.00000000000E+00  0.00000000000E+00  0.19940692178E+04  0.19940692178E+04  0.00000000000E+00 0. -1.
         21   -1    0    0  501  503 -0.00000000000E+00 -0.00000000000E+00 -0.18219295461E+02  0.18219295461E+02  0.00000000000E+00 0. -1.
          6    2    1    2  501    0 -0.64207221980E+02 -0.21476591737E+02  0.12253843180E+04  0.12392831089E+04  0.17225587363E+03 0.  0.
         24    2    3    3    0    0 -0.85547811513E+02  0.34124575778E+02  0.92285411899E+03  0.93091073357E+03  0.80325302402E+02 0.  0.
         -6    2    1    2    0  502  0.64207221980E+02  0.21476591737E+02  0.75046560436E+03  0.77300540433E+03  0.17249614616E+03 0.  0.
        -24    2    5    5    0    0  0.74356519745E+02 -0.27097402659E+02  0.66142904393E+03  0.67096599885E+03  0.80273471316E+02 0.  0.
          5    1    3    3  501    0  0.21340589533E+02 -0.55601167515E+02  0.30253019898E+03  0.30837237536E+03  0.47000000000E+01 0. -1.
        -13    1    4    4    0    0 -0.28464394751E+02  0.45046563798E+02  0.25359762384E+03  0.25913542694E+03  0.00000000000E+00 0.  1.
         14    1    4    4    0    0 -0.57083416762E+02 -0.10921988020E+02  0.66925649515E+03  0.67177530663E+03  0.00000000000E+00 0. -1.
         -5    1    5    5    0  502 -0.10149297765E+02  0.48573994396E+02  0.89036560433E+02  0.10203940548E+03  0.47000000000E+01 0.  1.
         13    1    6    6    0    0  0.20166311658E+02  0.35148581545E+01  0.29085347379E+02  0.35566723013E+02  0.00000000000E+00 0. -1.
        -14    1    6    6    0    0  0.54190208088E+02 -0.30612260813E+02  0.63234369655E+03  0.63539927584E+03  0.00000000000E+00 0.  1.
</event>
<event>
12    1  0.8133506E-002  0.1934631E+03  0.7818608E-02  0.1155834E+00
         21   -1    0    0  501  502  0.00000000000E+00  0.00000000000E+00  0.60411065042E+02  0.60411065042E+02  0.00000000000E+00 0. -1.
         21   -1    0    0  502  503 -0.00000000000E+00 -0.00000000000E+00 -0.14049183686E+04  0.14049183686E+04  0.00000000000E+00 0. -1.
         -6    2    1    2    0  503 -0.27815207856E+02  0.81583829469E+02 -0.12207665801E+04  0.12356781241E+04  0.17087942040E+03 0.  0.
        -24    2    3    3    0    0 -0.89295290528E+01  0.11466050261E+03 -0.72393622535E+03  0.73736775239E+03  0.80004853256E+02 0.  0.
          6    2    1    2  501    0  0.27815207856E+02 -0.81583829469E+02 -0.12374072342E+03  0.22965130949E+03  0.17320031841E+03 0.  0.
         24    2    5    5    0    0 -0.13714858729E+02 -0.56790991610E+02 -0.45352796768E+01  0.10092113020E+03  0.82165635652E+02 0.  0.
          5    1    5    5  501    0  0.41530066585E+02 -0.24792837859E+02 -0.11920544375E+03  0.12873017929E+03  0.47000000000E+01 0. -1.
        -13    1    6    6    0    0 -0.10107587464E+02 -0.62052558357E+02 -0.33516340826E+02  0.71246252009E+02  0.00000000000E+00 0.  1.
         14    1    6    6    0    0 -0.36072712653E+01  0.52615667468E+01  0.28981061149E+02  0.29674878196E+02  0.00000000000E+00 0. -1.
         -5    1    3    3    0  503 -0.18885678803E+02 -0.33076673141E+02 -0.49683035476E+03  0.49831037173E+03  0.47000000000E+01 0.  1.
         11    1    4    4    0    0 -0.25694918140E+02  0.11979282800E+03 -0.62676998960E+03  0.63863226534E+03  0.00000000000E+00 0. -1.
        -12    1    4    4    0    0  0.16765389087E+02 -0.51323253917E+01 -0.97166235741E+02  0.98735487051E+02  0.00000000000E+00 0.  1.
</event>
<event>
12    1  0.8133506E-002  0.1891220E+03  0.7818608E-02  0.1159256E+00
         21   -1    0    0  503  502  0.00000000000E+00  0.00000000000E+00  0.24751779037E+02  0.24751779037E+02  0.00000000000E+00 0. -1.
         21   -1    0    0  501  503 -0.00000000000E+00 -0.00000000000E+00 -0.14451283128E+04  0.14451283128E+04  0.00000000000E+00 0. -1.
          6    2    1    2  501    0 -0.22412278153E+02  0.74737136374E+02 -0.71627385811E+03  0.74082063200E+03  0.17227599721E+03 0.  0.
         24    2    3    3    0    0  0.20413179946E+02  0.10608075745E+03 -0.47756645968E+03  0.49623985902E+03  0.80712138223E+02 0.  0.
         -6    2    1    2    0  502  0.22412278153E+02 -0.74737136374E+02 -0.70410267568E+03  0.72905945986E+03  0.17227643006E+03 0.  0.
        -24    2    5    5    0    0 -0.82926742234E+01 -0.11192963633E+03 -0.47123921262E+03  0.49120749207E+03  0.81371941276E+02 0.  0.
          5    1    3    3  501    0 -0.42825458099E+02 -0.31343621071E+02 -0.23870739843E+03  0.24458077298E+03  0.47000000000E+01 0. -1.
        -11    1    4    4    0    0  0.16674119432E+02  0.20257872882E+02 -0.27449290273E+03  0.27574401412E+03  0.00000000000E+00 0.  1.
         12    1    4    4    0    0  0.37390605137E+01  0.85822884563E+02 -0.20307355695E+03  0.22049584490E+03  0.00000000000E+00 0. -1.
         -5    1    5    5    0  502  0.30704952377E+02  0.37192499954E+02 -0.23286346306E+03  0.23785196779E+03  0.47000000000E+01 0.  1.
         11    1    6    6    0    0  0.30471546854E+02 -0.78212454053E+02 -0.34153960567E+03  0.35170300735E+03  0.00000000000E+00 0. -1.
        -12    1    6    6    0    0 -0.38764221077E+02 -0.33717182274E+02 -0.12969960695E+03  0.13950448473E+03  0.00000000000E+00 0.  1.
</event>
<event>
12    1  0.8133506E-002  0.2115806E+03  0.7818608E-02  0.1140732E+00
         21   -1    0    0  503  502  0.00000000000E+00  0.00000000000E+00  0.78463428732E+03  0.78463428732E+03  0.00000000000E+00 0.  1.
         21   -1    0    0  501  503 -0.00000000000E+00 -0.00000000000E+00 -0.63551062316E+02  0.63551062316E+02  0.00000000000E+00 0. -1.
          6    2    1    2  501    0 -0.10923155074E+03  0.50181754719E+02  0.22078691313E+03  0.30579927804E+03  0.17411661972E+03 0.  0.
         24    2    3    3    0    0 -0.11879629347E+03  0.19848339409E+02  0.22889102551E+03  0.27264257396E+03  0.86234306734E+02 0.  0.
         -6    2    1    2    0  502  0.10923155074E+03 -0.50181754719E+02  0.50029631187E+03  0.54238607159E+03  0.17157071660E+03 0.  0.
        -24    2    5    5    0    0  0.87453460291E+01  0.16393454529E+01  0.10475612576E+03  0.13097747592E+03  0.78115842077E+02 0.  0.
          5    1    3    3  501    0  0.95647427365E+01  0.30333415310E+02 -0.81041123836E+01  0.33156704081E+02  0.47000000000E+01 0. -1.
        -13    1    4    4    0    0 -0.16008635347E+01  0.26776964394E+02  0.21703918352E+02  0.34505487361E+02  0.00000000000E+00 0.  1.
         14    1    4    4    0    0 -0.11719542994E+03 -0.69286249853E+01  0.20718710716E+03  0.23813708660E+03  0.00000000000E+00 0. -1.
         -5    1    5    5    0  502  0.10048620471E+03 -0.51821100171E+02  0.39554018611E+03  0.41140859567E+03  0.47000000000E+01 0.  1.
         13    1    6    6    0    0  0.42767335830E+02 -0.12749657329E+01  0.71426295873E+02  0.83260952996E+02  0.00000000000E+00 0. -1.
        -14    1    6    6    0    0 -0.34021989801E+02  0.29143111858E+01  0.33329829890E+02  0.47716522926E+02  0.00000000000E+00 0.  1.
</event>
<event>
12    1  0.8133506E-002  0.1830730E+03  0.7818608E-02  0.1165545E+00
         21   -1    0    0  501  502  0.00000000000E+00  0.00000000000E+00  0.42935417339E+02  0.42935417339E+02  0.00000000000E+00 0.  1.
         21   -1    0    0  502  503 -0.00000000000E+00 -0.00000000000E+00 -0.99994519197E+03  0.99994519197E+03  0.00000000000E+00 0.  1.
         -6    2    1    2    0  503  0.22938733945E+02 -0.45713535818E+02 -0.72649275896E+03  0.74851042382E+03  0.17280107892E+03 0.  0.
        -24    2    3    3    0    0  0.58812827002E+02 -0.58522404590E+02 -0.35328905942E+03  0.37333831795E+03  0.87661392223E+02 0.  0.
          6    2    1    2  501    0 -0.22938733945E+02  0.45713535818E+02 -0.23051701567E+03  0.29437018549E+03  0.17578338579E+03 0.  0.
         24    2    5    5    0    0 -0.10517788426E+02  0.12201114391E+02 -0.22477009272E+02  0.83230192734E+02  0.78501961574E+02 0.  0.
          5    1    5    5  501    0 -0.12420945519E+02  0.33512421427E+02 -0.20804000640E+03  0.21113999275E+03  0.47000000000E+01 0. -1.
        -13    1    6    6    0    0  0.24611525010E+02  0.31251763973E+02 -0.15344231596E+02  0.42636197744E+02  0.00000000000E+00 0.  1.
         14    1    6    6    0    0 -0.35129313436E+02 -0.19050649582E+02 -0.71327776754E+01  0.40593994991E+02  0.00000000000E+00 0. -1.
         -5    1    3    3    0  503 -0.35874093057E+02  0.12808868771E+02 -0.37320369954E+03  0.37517210587E+03  0.47000000000E+01 0.  1.
         13    1    4    4    0    0  0.68914507222E+02 -0.12148827822E+02 -0.25104912064E+03  0.26061938588E+03  0.00000000000E+00 0. -1.
        -14    1    4    4    0    0 -0.10101680220E+02 -0.46373576767E+02 -0.10223993878E+03  0.11271893207E+03  0.00000000000E+00 0.  1.
</event>
<event>
12    1  0.8133506E-002  0.1836083E+03  0.7818608E-02  0.1164560E+00
         21   -1    0    0  503  502  0.00000000000E+00  0.00000000000E+00  0.71666250355E+02  0.71666250355E+02  0.00000000000E+00 0.  1.
         21   -1    0    0  501  503 -0.00000000000E+00 -0.00000000000E+00 -0.47735947502E+03  0.47735947502E+03  0.00000000000E+00 0.  1.
          6    2    1    2  501    0 -0.11431914026E+02  0.61121888869E+02 -0.16433225422E+03  0.24576493055E+03  0.17183927768E+03 0.  0.
         24    2    3    3    0    0  0.42111192872E+02  0.90656230453E+02 -0.11947953999E+03  0.16978468573E+03  0.67524620301E+02 0.  0.
         -6    2    1    2    0  502  0.11431914026E+02 -0.61121888869E+02 -0.24136097045E+03  0.30326079483E+03  0.17275826367E+03 0.  0.
        -24    2    5    5    0    0  0.27112878210E+02  0.99561891264E+00 -0.19902469086E+03  0.22632622535E+03  0.10429109881E+03 0.  0.
          5    1    3    3  501    0 -0.53543106898E+02 -0.29534341584E+02 -0.44852714230E+02  0.75980244820E+02  0.47000000000E+01 0. -1.
        -11    1    4    4    0    0 -0.56076591911E+00  0.70582589973E+02 -0.52954010747E+02  0.88240261332E+02  0.00000000000E+00 0.  1.
         12    1    4    4    0    0  0.42671958791E+02  0.20073640480E+02 -0.66525529241E+02  0.81544424395E+02  0.00000000000E+00 0. -1.
         -5    1    5    5    0  502 -0.15680964184E+02 -0.62117507782E+02 -0.42336279590E+02  0.76934569475E+02  0.47000000000E+01 0.  1.
         13    1    6    6    0    0  0.52329312284E+02  0.30029887566E+02 -0.73766325475E+02  0.95297543754E+02  0.00000000000E+00 0. -1.
        -14    1    6    6    0    0 -0.25216434074E+02 -0.29034268654E+02 -0.12525836538E+03  0.13102868160E+03  0.00000000000E+00 0.  1.
</event>
<event>
12    1  0.8133506E-002  0.2006179E+03  0.7818608E-02  0.1149293E+00
         21   -1    0    0  501  502  0.00000000000E+00  0.00000000000E+00  0.10814140966E+03  0.10814140966E+03  0.00000000000E+00 0.  1.
         21   -1    0    0  502  503 -0.00000000000E+00 -0.00000000000E+00 -0.50778555231E+03  0.50778555231E+03  0.00000000000E+00 0.  1.
         -6    2    1    2    0  503  0.38219630179E+01  0.10186997742E+03 -0.35948348392E+03  0.41167450867E+03  0.17278722804E+03 0.  0.
        -24    2    3    3    0    0  0.27090161509E+02  0.19626868363E+02 -0.62219910567E+02  0.10233155967E+03  0.74036072437E+02 0.  0.
          6    2    1    2  501    0 -0.38219630179E+01 -0.10186997742E+03 -0.40160658727E+02  0.20425245330E+03  0.17237774354E+03 0.  0.
         24    2    5    5    0    0 -0.34206888106E+02 -0.12886889334E+03 -0.46029407751E+02  0.16291581884E+03  0.81520272236E+02 0.  0.
          5    1    5    5  501    0  0.30384925088E+02  0.26998915918E+02  0.58687490243E+01  0.41336634460E+02  0.47000000000E+01 0. -1.
        -11    1    6    6    0    0 -0.42221175525E+02 -0.55689718645E+02 -0.54758684349E+02  0.88783365205E+02  0.00000000000E+00 0.  1.
         12    1    6    6    0    0  0.80142874192E+01 -0.73179174694E+02  0.87292765974E+01  0.74132453633E+02  0.00000000000E+00 0. -1.
         -5    1    3    3    0  503 -0.23268198491E+02  0.82243109058E+02 -0.29726357336E+03  0.30934294900E+03  0.47000000000E+01 0.  1.
         11    1    4    4    0    0 -0.23133612666E+02  0.20623479065E+02 -0.22709583079E+02  0.38421570599E+02  0.00000000000E+00 0. -1.
        -12    1    4    4    0    0  0.50223774174E+02 -0.99661070207E+00 -0.39510327488E+02  0.63909989074E+02  0.00000000000E+00 0.  1.
</event>
<event>
12    1  0.8133506E-002  0.1876335E+03  0.7818608E-02  0.1160788E+00
         21   -1    0    0  503  502  0.00000000000E+00  0.00000000000E+00  0.22481852585E+03  0.22481852585E+03  0.00000000000E+00 0.  1.
         21   -1    0    0  501  503 -0.00000000000E+00 -0.00000000000E+00 -0.15816601529E+03  0.15816601529E+03  0.00000000000E+00 0.  1.
          6    2    1    2  501    0  0.54475835878E+02 -0.50632592538E+02  0.10792648171E+02  0.18794359017E+03  0.17226443542E+03 0.  0.
         24    2    3    3    0    0  0.40000011655E+02  0.84930412348E+01  0.36045316220E+02  0.12187410176E+03  0.10900412458E+03 0.  0.
         -6    2    1    2    0  502 -0.54475835878E+02  0.50632592538E+02  0.55859862388E+02  0.19504095096E+03  0.17143328791E+03 0.  0.
        -24    2    5    5    0    0  0.52179850558E+01  0.51610171498E+02  0.89584535119E+02  0.12631139786E+03  0.72376398968E+02 0.  0.
          5    1    3    3  501    0  0.14475824223E+02 -0.59125633773E+02 -0.25252668049E+02  0.66069488416E+02  0.47000000000E+01 0. -1.
        -11    1    4    4    0    0 -0.17822529067E+02 -0.32841675467E+02  0.34381734192E+02  0.50777178298E+02  0.00000000000E+00 0.  1.
         12    1    4    4    0    0  0.57822540722E+02  0.41334716702E+02  0.16635820278E+01  0.71096923460E+02  0.00000000000E+00 0. -1.
         -5    1    5    5    0  502 -0.59693820934E+02 -0.97757896010E+00 -0.33724672731E+02  0.68729553098E+02  0.47000000000E+01 0.  1.
         11    1    6    6    0    0 -0.29900952232E+02  0.47762743524E+01  0.26336003888E+02  0.40130597327E+02  0.00000000000E+00 0. -1.
        -12    1    6    6    0    0  0.35118937288E+02  0.46833897146E+02  0.63248531231E+02  0.86180800536E+02  0.00000000000E+00 0.  1.
</event>
<event>
12    1  0.8133506E-002  0.2127702E+03  0.7818608E-02  0.1140209E+00
         21   -1    0    0  501  502  0.00000000000E+00  0.00000000000E+00  0.10322650198E+03  0.10322650198E+03  0.00000000000E+00 0.  1.
         21   -1    0    0  502  503 -0.00000000000E+00 -0.00000000000E+00 -0.59597255032E+03  0.59597255032E+03  0.00000000000E+00 0.  1.
         -6    2    1    2    0  503 -0.11614272365E+03 -0.29978733395E+02 -0.42908488165E+03  0.47710924400E+03  0.17067963657E+03 0.  0.
        -24    2    3    3    0    0 -0.54431931217E+02 -0.81858936101E+02 -0.28606571223E+03  0.31286445670E+03  0.79917807749E+02 0.  0.
          6    2    1    2  501    0  0.11614272365E+03  0.29978733395E+02 -0.63661166698E+02  0.22208980829E+03  0.17573639944E+03 0.  0.
         24    2    5    5    0    0  0.19088588684E+02  0.31594554877E+02 -0.76833495303E+02  0.12401985247E+03  0.90083004452E+02 0.  0.
          5    1    5    5  501    0  0.97054134970E+02 -0.16158214818E+01  0.13172328606E+02  0.98069955821E+02  0.47000000000E+01 0. -1.
        -13    1    6    6    0    0  0.19580513628E+02 -0.12768810262E+02  0.10834600283E+02  0.25764851887E+02  0.00000000000E+00 0.  1.
         14    1    6    6    0    0 -0.49192494425E+00  0.44363365139E+02 -0.87668095586E+02  0.98255000587E+02  0.00000000000E+00 0. -1.
         -5    1    3    3    0  503 -0.61710792438E+02  0.51880202705E+02 -0.14301916942E+03  0.16424478731E+03  0.47000000000E+01 0.  1.
         11    1    4    4    0    0 -0.55563699748E+02 -0.15639091658E+02 -0.10135887734E+03  0.11664273631E+03  0.00000000000E+00 0. -1.
        -12    1    4    4    0    0  0.11317685309E+01 -0.66219844443E+02 -0.18470683489E+03  0.19622172039E+03  0.00000000000E+00 0.  1.
</event>
<event>
12    1  0.8133506E-002  0.1733575E+03  0.7818608E-02  0.1174894E+00
         21   -1    0    0  503  502  0.00000000000E+00  0.00000000000E+00  0.89156746640E+03  0.89156746640E+03  0.00000000000E+00 0. -1.
         21   -1    0    0  501  503 -0.00000000000E+00 -0.00000000000E+00 -0.53795497035E+02  0.53795497035E+02  0.00000000000E+00 0. -1.
          6    2    1    2  501    0 -0.31481994718E+02 -0.74154908572E+01  0.12879980328E+03  0.21596804711E+03  0.17031354189E+03 0.  0.
         24    2    3    3    0    0 -0.46273534337E+02  0.35932528305E+02  0.13631817292E+03  0.16931554137E+03  0.81564218327E+02 0.  0.
         -6    2    1    2    0  502  0.31481994718E+02  0.74154908572E+01  0.70897216609E+03  0.72939491633E+03  0.16831311945E+03 0.  0.
        -24    2    5    5    0    0  0.42906987912E+02  0.62601792984E+01  0.18473542483E+03  0.20501135814E+03  0.77603352515E+02 0.  0.
          5    1    3    3  501    0  0.14791539619E+02 -0.43348019162E+02 -0.75183696431E+01  0.46652505738E+02  0.47000000000E+01 0. -1.
        -11    1    4    4    0    0  0.15896233749E+02  0.31699624230E+02  0.31802871271E+02  0.47633801495E+02  0.00000000000E+00 0.  1.
         12    1    4    4    0    0 -0.62169768086E+02  0.42329040746E+01  0.10451530165E+03  0.12168173988E+03  0.00000000000E+00 0. -1.
         -5    1    5    5    0  502 -0.11424993194E+02  0.11553115588E+01  0.52423674126E+03  0.52438355819E+03  0.47000000000E+01 0.  1.
         13    1    6    6    0    0  0.39850051299E+02 -0.81536196582E+01  0.18583644063E+03  0.19023588192E+03  0.00000000000E+00 0. -1.
        -14    1    6    6    0    0  0.30569366127E+01  0.14413798957E+02 -0.11010157988E+01  0.14775476223E+02  0.00000000000E+00 0.  1.
</event>
<event>
12    1  0.8133506E-002  0.1731214E+03  0.7818608E-02  0.1174675E+00
         21   -1    0    0  501  502  0.00000000000E+00  0.00000000000E+00  0.12510579508E+04  0.12510579508E+04  0.00000000000E+00 0.  1.
         21   -1    0    0  502  503 -0.00000000000E+00 -0.00000000000E+00 -0.33366669036E+02  0.33366669036E+02  0.00000000000E+00 0.  1.
         -6    2    1    2    0  503 -0.12403218420E+02 -0.56503189419E+01  0.26715437246E+03  0.31825100956E+03  0.17241368980E+03 0.  0.
        -24    2    3    3    0    0 -0.32161594400E+02  0.49563426236E+02  0.98754090781E+02  0.13987024841E+03  0.79501035023E+02 0.  0.
          6    2    1    2  501    0  0.12403218420E+02  0.56503189419E+01  0.95053690933E+03  0.96617361030E+03  0.17258407608E+03 0.  0.
         24    2    5    5    0    0  0.31463559387E+02  0.63665245661E+02  0.47801101134E+03  0.48969502464E+03  0.79142094521E+02 0.  0.
          5    1    5    5  501    0 -0.19060340967E+02 -0.58014926720E+02  0.47252589799E+03  0.47647858566E+03  0.47000000000E+01 0. -1.
        -13    1    6    6    0    0 -0.14396807305E+02 -0.23711663912E+01  0.20434640130E+02  0.25109062266E+02  0.00000000000E+00 0.  1.
         14    1    6    6    0    0  0.45860366691E+02  0.66036412053E+02  0.45757637121E+03  0.46458596238E+03  0.00000000000E+00 0. -1.
         -5    1    3    3    0  503  0.19758375980E+02 -0.55213745178E+02  0.16840028168E+03  0.17838076115E+03  0.47000000000E+01 0.  1.
         13    1    4    4    0    0 -0.53868221816E+02  0.15642772383E+02  0.41078802909E+02  0.69526611436E+02  0.00000000000E+00 0. -1.
        -14    1    4    4    0    0  0.21706627416E+02  0.33920653853E+02  0.57675287872E+02  0.70343636974E+02  0.00000000000E+00 0.  1.
</event>
<event>
12    1  0.8133506E-002  0.3296083E+03  0.7818608E-02  0.1071432E+00
         21   -1    0    0  503  502  0.00000000000E+00  0.00000000000E+00  0.16264293056E+03  0.16264293056E+03  0.00000000000E+00 0.  1.
         21   -1    0    0  501  503 -0.00000000000E+00 -0.00000000000E+00 -0.67585037507E+03  0.67585037507E+03  0.00000000000E+00 0. -1.
          6    2    1    2  501    0 -0.70908368155E+02  0.27142686482E+03 -0.30826920697E+03  0.45129986464E+03  0.17303503759E+03 0.  0.
         24    2    3    3    0    0 -0.70208717870E+02  0.20811812806E+03 -0.14390398478E+03  0.27509968891E+03  0.82030864367E+02 0.  0.
         -6    2    1    2    0  502  0.70908368155E+02 -0.27142686482E+03 -0.20493823754E+03  0.38719344099E+03  0.17093431463E+03 0.  0.
        -24    2    5    5    0    0  0.27605509282E+02 -0.25790702378E+03 -0.20750132336E+03  0.34151430902E+03  0.79354439182E+02 0.  0.
          5    1    3    3  501    0 -0.69965028432E+00  0.63308736762E+02 -0.16436522220E+03  0.17620017573E+03  0.47000000000E+01 0. -1.
        -13    1    4    4    0    0 -0.50740012514E+02  0.72733468113E+02 -0.20818366459E+02  0.91093965967E+02  0.00000000000E+00 0.  1.
         14    1    4    4    0    0 -0.19468705357E+02  0.13538465995E+03 -0.12308561832E+03  0.18400572294E+03  0.00000000000E+00 0. -1.
         -5    1    5    5    0  502  0.43302858872E+02 -0.13519841046E+02  0.25630858154E+01  0.45679131968E+02  0.47000000000E+01 0.  1.
         11    1    6    6    0    0  0.46699140677E+02 -0.15101120353E+03 -0.15312067960E+03  0.22007075192E+03  0.00000000000E+00 0. -1.
        -12    1    6    6    0    0 -0.19093631395E+02 -0.10689582024E+03 -0.54380643760E+02  0.12144355710E+03  0.00000000000E+00 0.  1.
</event>
<event>
12    1  0.8133506E-002  0.2818692E+03  0.7818608E-02  0.1094684E+00
         21   -1    0    0  503  502  0.00000000000E+00  0.00000000000E+00  0.56515290650E+03  0.56515290650E+03  0.00000000000E+00 0.  1.
         21   -1    0    0  501  503 -0.00000000000E+00 -0.00000000000E+00 -0.26148156523E+03  0.26148156523E+03  0.00000000000E+00 0. -1.
          6    2    1    2  501    0 -0.55397631512E+02  0.21475218913E+03 -0.12927045977E+03  0.31002161364E+03  0.17382505239E+03 0.  0.
         24    2    3    3    0    0 -0.10381911229E+03  0.16612877262E+03 -0.83535994753E+02  0.22742253541E+03  0.79784522447E+02 0.  0.
         -6    2    1    2    0  502  0.55397631512E+02 -0.21475218913E+03  0.43294180105E+03  0.51661285809E+03  0.17396218479E+03 0.  0.
        -24    2    5    5    0    0 -0.84410133277E+01 -0.31084672257E+02  0.15266187049E+03  0.17545591649E+03  0.80259730711E+02 0.  0.
          5    1    3    3  501    0  0.48421480777E+02  0.48623416513E+02 -0.45734465018E+02  0.82599078230E+02  0.47000000000E+01 0. -1.
        -13    1    4    4    0    0 -0.32338392853E+02  0.52924287207E+02 -0.68959773357E+02  0.92748057501E+02  0.00000000000E+00 0.  1.
         14    1    4    4    0    0 -0.71480719437E+02  0.11320448541E+03 -0.14576221396E+02  0.13467447791E+03  0.00000000000E+00 0. -1.
         -5    1    5    5    0  502  0.63838644840E+02 -0.18366751688E+03  0.28027993055E+03  0.34115694160E+03  0.47000000000E+01 0.  1.
         13    1    6    6    0    0 -0.34455010795E+02 -0.10449862552E+02  0.13088644188E+03  0.13574832620E+03  0.00000000000E+00 0. -1.
        -14    1    6    6    0    0  0.26013997467E+02 -0.20634809704E+02  0.21775428607E+02  0.39707590291E+02  0.00000000000E+00 0.  1.
</event>
<event>
12    1  0.8133506E-002  0.1744825E+03  0.7818608E-02  0.1174220E+00
         21   -1    0    0  503  502  0.00000000000E+00  0.00000000000E+00  0.13259247958E+03  0.13259247958E+03  0.00000000000E+00 0.  1.
         21   -1    0    0  501  503 -0.00000000000E+00 -0.00000000000E+00 -0.41055614877E+03  0.41055614877E+03  0.00000000000E+00 0.  1.
          6    2    1    2  501    0  0.20680851826E+02  0.44413976178E+01 -0.32256248032E+03  0.36672974648E+03  0.17319563968E+03 0.  0.
         24    2    3    3    0    0  0.65125220279E+02  0.34359764271E+02 -0.22345726397E+03  0.25397184451E+03  0.95638178912E+02 0.  0.
         -6    2    1    2    0  502 -0.20680851826E+02 -0.44413976178E+01  0.44598811126E+02  0.17641888186E+03  0.16937279675E+03 0.  0.
        -24    2    5    5    0    0 -0.26092186030E+02  0.36459736004E+02 -0.27392353082E+02  0.93310500854E+02  0.77112865599E+02 0.  0.
          5    1    3    3  501    0 -0.44444368452E+02 -0.29918366653E+02 -0.99105216346E+02  0.11275790197E+03  0.47000000000E+01 0. -1.
        -13    1    4    4    0    0 -0.59660540593E+01  0.31304309737E+01 -0.13931037079E+03  0.13947319746E+03  0.00000000000E+00 0.  1.
         14    1    4    4    0    0  0.71091274338E+02  0.31229333297E+02 -0.84146893180E+02  0.11449864705E+03  0.00000000000E+00 0. -1.
         -5    1    5    5    0  502  0.54113342038E+01 -0.40901133622E+02  0.71991164208E+02  0.83108381006E+02  0.47000000000E+01 0.  1.
         11    1    6    6    0    0 -0.17973040975E+02  0.36704026186E+02  0.19808531257E+02  0.45415786360E+02  0.00000000000E+00 0. -1.
        -12    1    6    6    0    0 -0.81191450551E+01 -0.24429018132E+00 -0.47200884339E+02  0.47894714494E+02  0.00000000000E+00 0.  1.
</event>
<event>
12    1  0.8133506E-002  0.2927066E+03  0.7818608E-02  0.1088961E+00
         21   -1    0    0  503  502  0.00000000000E+00  0.00000000000E+00  0.42773181285E+03  0.42773181285E+03  0.00000000000E+00 0.  1.
         21   -1    0    0  501  503 -0.00000000000E+00 -0.00000000000E+00 -0.24052954379E+03  0.24052954379E+03  0.00000000000E+00 0. -1.
          6    2    1    2  501    0  0.91256034414E+02  0.21933603066E+03 -0.43201413322E+02  0.29575228282E+03  0.17078375954E+03 0.  0.
         24    2    3    3    0    0  0.22665985498E+02  0.61171649278E+02  0.26240854920E+02  0.10983594421E+03  0.84377927200E+02 0.  0.
         -6    2    1    2    0  502 -0.91256034414E+02 -0.21933603066E+03  0.23040368239E+03  0.37250907382E+03  0.17100057034E+03 0.  0.
        -24    2    5    5    0    0 -0.36741913130E+02 -0.18319987285E+03  0.23014114546E+03  0.30693644046E+03  0.79579331820E+02 0.  0.
          5    1    3    3  501    0  0.68590048915E+02  0.15816438138E+03 -0.69442268242E+02  0.18591633862E+03  0.47000000000E+01 0. -1.
        -11    1    4    4    0    0  0.55762759773E+01  0.74219278460E+02  0.39814765542E+02  0.84408599704E+02  0.00000000000E+00 0.  1.
         12    1    4    4    0    0  0.17089709521E+02 -0.13047629183E+02 -0.13573910622E+02  0.25427344501E+02  0.00000000000E+00 0. -1.
         -5    1    5    5    0  502 -0.54514121284E+02 -0.36136157804E+02  0.26253692629E+00  0.65572633360E+02  0.47000000000E+01 0.  1.
         13    1    6    6    0    0 -0.21486800699E+02 -0.29354800708E+02  0.96332863932E+01  0.37632261899E+02  0.00000000000E+00 0. -1.
        -14    1    6    6    0    0 -0.15255112431E+02 -0.15384507214E+03  0.22050785907E+03  0.26930417856E+03  0.00000000000E+00 0.  1.
</event>
<event>
12    1  0.8133506E-002  0.2057607E+03  0.7818608E-02  0.1145460E+00
         21   -1    0    0  501  502  0.00000000000E+00  0.00000000000E+00  0.71659935452E+03  0.71659935452E+03  0.00000000000E+00 0.  1.
         21   -1    0    0  502  503 -0.00000000000E+00 -0.00000000000E+00 -0.19234309498E+03  0.19234309498E+03  0.00000000000E+00 0. -1.
         -6    2    1    2    0  503 -0.73079936414E+02 -0.81700926898E+02 -0.11666564601E+03  0.23653398834E+03  0.17413137604E+03 0.  0.
        -24    2    3    3    0    0 -0.61072846008E+02 -0.10267637482E+03 -0.14250419687E+03  0.20084280811E+03  0.75881861969E+02 0.  0.
          6    2    1    2  501    0  0.73079936414E+02  0.81700926898E+02  0.64092190555E+03  0.67240846116E+03  0.17127910283E+03 0.  0.
         24    2    5    5    0    0  0.99128614939E+02  0.93957887806E+02  0.40438415395E+03  0.43407893157E+03  0.79015238322E+02 0.  0.
          5    1    5    5  501    0 -0.26048678526E+02 -0.12256960909E+02  0.23653775160E+03  0.23832952959E+03  0.47000000000E+01 0. -1.
        -11    1    6    6    0    0  0.19573354967E+02  0.13381952641E+02  0.19142528075E+03  0.19288813077E+03  0.00000000000E+00 0.  1.
         12    1    6    6    0    0  0.79555259972E+02  0.80575935165E+02  0.21295887320E+03  0.24119080080E+03  0.00000000000E+00 0. -1.
         -5    1    3    3    0  503 -0.12007090405E+02  0.20975447924E+02  0.25838550866E+02  0.35691180234E+02  0.47000000000E+01 0.  1.
         11    1    4    4    0    0  0.60998949321E+01 -0.32903780277E+02 -0.68437917865E+01  0.34157063116E+02  0.00000000000E+00 0. -1.
        -12    1    4    4    0    0 -0.67172740940E+02 -0.69772594545E+02 -0.13566040509E+03  0.16668574499E+03  0.00000000000E+00 0.  1.
</event>
<event>
12    1  0.8133506E-002  0.2235386E+03  0.7818608E-02  0.1131376E+00
         21   -1    0    0  501  502  0.00000000000E+00  0.00000000000E+00  0.42359670392E+03  0.42359670392E+03  0.00000000000E+00 0.  1.
         21   -1    0    0  502  503 -0.00000000000E+00 -0.00000000000E+00 -0.25924593628E+03  0.25924593628E+03  0.00000000000E+00 0. -1.
         -6    2    1    2    0  503 -0.13705481602E+03 -0.39040076164E+02  0.33453555672E+03  0.40234755855E+03  0.17222476310E+03 0.  0.
        -24    2    3    3    0    0 -0.13986194201E+03  0.51163880811E+01  0.18275772334E+03  0.24418222103E+03  0.81467977612E+02 0.  0.
          6    2    1    2  501    0  0.13705481602E+03  0.39040076164E+02 -0.17018478907E+03  0.28049508164E+03  0.17148317192E+03 0.  0.
         24    2    5    5    0    0  0.33997811209E+02  0.40490698914E+02 -0.14365393028E+03  0.17396420811E+03  0.82654377702E+02 0.  0.
          5    1    5    5  501    0  0.10305700481E+03 -0.14506227498E+01 -0.26530858797E+02  0.10653087353E+03  0.47000000000E+01 0. -1.
        -11    1    6    6    0    0 -0.40657479767E+01 -0.22935729713E+02 -0.25249873430E+02  0.34353080099E+02  0.00000000000E+00 0.  1.
         12    1    6    6    0    0  0.38063559186E+02  0.63426428627E+02 -0.11840405685E+03  0.13961112801E+03  0.00000000000E+00 0. -1.
         -5    1    3    3    0  503  0.28071259859E+01 -0.44156464245E+02  0.15177783338E+03  0.15816533753E+03  0.47000000000E+01 0.  1.
         11    1    4    4    0    0  0.14967810051E+01  0.11206994111E+02 -0.19879585807E+01  0.11479941189E+02  0.00000000000E+00 0. -1.
        -12    1    4    4    0    0 -0.14135872301E+03 -0.60906060301E+01  0.18474568192E+03  0.23270227984E+03  0.00000000000E+00 0.  1.
</event>
<event>
12    1  0.8133506E-002  0.2152116E+03  0.7818608E-02  0.1137641E+00
         21   -1    0    0  501  502  0.00000000000E+00  0.00000000000E+00  0.41545277688E+03  0.41545277688E+03  0.00000000000E+00 0.  1.
         21   -1    0    0  502  503 -0.00000000000E+00 -0.00000000000E+00 -0.19543508990E+03  0.19543508990E+03  0.00000000000E+00 0. -1.
         -6    2    1    2    0  503  0.97783909281E+02 -0.82095420454E+02 -0.90724319556E+02  0.23289762808E+03  0.17236314001E+03 0.  0.
        -24    2    3    3    0    0  0.70160189977E+02 -0.14250952072E+02  0.11658854789E+02  0.10692006600E+03  0.78552082892E+02 0.  0.
          6    2    1    2  501    0 -0.97783909281E+02  0.82095420454E+02  0.31074200653E+03  0.37799023870E+03  0.17324743851E+03 0.  0.
         24    2    5    5    0    0 -0.99776603671E+02 -0.14653954470E+01  0.15282708771E+03  0.19925693914E+03  0.79935542980E+02 0.  0.
          5    1    5    5  501    0  0.19926943900E+01  0.83560815901E+02  0.15791491882E+03  0.17873329956E+03  0.47000000000E+01 0. -1.
        -11    1    6    6    0    0 -0.94237049086E+02  0.25388740253E+02  0.99970201250E+02  0.13971131196E+03  0.00000000000E+00 0.  1.
         12    1    6    6    0    0 -0.55395545847E+01 -0.26854135700E+02  0.52856886462E+02  0.59545627175E+02  0.00000000000E+00 0. -1.
         -5    1    3    3    0  503  0.27623719304E+02 -0.67844468382E+02 -0.10238317435E+03  0.12597756208E+03  0.47000000000E+01 0.  1.
         13    1    4    4    0    0  0.17067961598E+02 -0.19871670426E+02 -0.29541095837E+02  0.39482590364E+02  0.00000000000E+00 0. -1.
        -14    1    4    4    0    0  0.53092228379E+02  0.56207183536E+01  0.41199950626E+02  0.67437475639E+02  0.00000000000E+00 0.  1.
</event>
<event>
12    1  0.8133506E-002  0.1794567E+03  0.7818608E-02  0.1168517E+00
         21   -1    0    0  503  502  0.00000000000E+00  0.00000000000E+00  0.15597351494E+03  0.15597351494E+03  0.00000000000E+00 0. -1.
         21   -1    0    0  501  503 -0.00000000000E+00 -0.00000000000E+00 -0.41332513773E+03  0.41332513773E+03  0.00000000000E+00 0. -1.
          6    2    1    2  501    0 -0.49166601760E+02 -0.33073618286E+01 -0.33033663519E+03  0.37556815318E+03  0.17175811992E+03 0.  0.
         24    2    3    3    0    0 -0.93746177688E+01 -0.64505161753E+02 -0.17541249378E+03  0.20424345473E+03  0.81835484202E+02 0.  0.
         -6    2    1    2    0  502  0.49166601760E+02  0.33073618286E+01  0.72985012407E+02  0.19373049949E+03  0.17255839889E+03 0.  0.
        -24    2    5    5    0    0  0.77969838285E+02 -0.35883339405E+02  0.83585358468E+02  0.14373055115E+03  0.79404341536E+02 0.  0.
          5    1    3    3  501    0 -0.39791983991E+02  0.61197799925E+02 -0.15492414141E+03  0.17132469845E+03  0.47000000000E+01 0. -1.
        -11    1    4    4    0    0  0.21448474851E+02 -0.62694329184E+02 -0.79552915741E+02  0.10353396732E+03  0.00000000000E+00 0.  1.
         12    1    4    4    0    0 -0.30823092619E+02 -0.18108325690E+01 -0.95859578042E+02  0.10070948742E+03  0.00000000000E+00 0. -1.
         -5    1    5    5    0  502 -0.28803236525E+02  0.39190701234E+02 -0.10600346061E+02  0.49999948341E+02  0.47000000000E+01 0.  1.
         13    1    6    6    0    0  0.37369986829E+02 -0.18117785588E+02  0.89840008827E+02  0.98974730392E+02  0.00000000000E+00 0. -1.
        -14    1    6    6    0    0  0.40599851456E+02 -0.17765553818E+02 -0.62546503584E+01  0.44755820759E+02  0.00000000000E+00 0.  1.
</event>
<event>
12    1  0.8133506E-002  0.2081802E+03  0.7818608E-02  0.1143214E+00
         21   -1    0    0  503  502  0.00000000000E+00  0.00000000000E+00  0.15349741470E+03  0.15349741470E+03  0.00000000000E+00 0. -1.
         21   -1    0    0  501  503 -0.00000000000E+00 -0.00000000000E+00 -0.32599975804E+03  0.32599975804E+03  0.00000000000E+00 0. -1.
          6    2    1    2  501    0 -0.18802760512E+02  0.11385306275E+03 -0.17514566771E+03  0.27130015154E+03  0.17208051489E+03 0.  0.
         24    2    3    3    0    0  0.53197935595E+02  0.63758347382E+02 -0.12558684863E+03  0.17044507087E+03  0.79901930032E+02 0.  0.
         -6    2    1    2    0  502  0.18802760512E+02 -0.11385306275E+03  0.26433243796E+01  0.20819702120E+03  0.17327131549E+03 0.  0.
        -24    2    5    5    0    0  0.29197667427E+02 -0.22572995994E+02  0.52135080197E+02  0.10373828020E+03  0.81740566798E+02 0.  0.
          5    1    3    3  501    0 -0.72000696107E+02  0.50094715368E+02 -0.49558819080E+02  0.10085508067E+03  0.47000000000E+01 0. -1.
        -11    1    4    4    0    0  0.45404391074E+02  0.54652158601E+02 -0.35248448054E+02  0.79315006517E+02  0.00000000000E+00 0.  1.
         12    1    4    4    0    0  0.77935445209E+01  0.91061887809E+01 -0.90338400579E+02  0.91130064356E+02  0.00000000000E+00 0. -1.
         -5    1    5    5    0  502 -0.10394906914E+02 -0.91280066757E+02 -0.49491755817E+02  0.10445874100E+03  0.47000000000E+01 0.  1.
         13    1    6    6    0    0  0.43319164062E+02 -0.42624393138E+02  0.50745719775E+02  0.79173966307E+02  0.00000000000E+00 0. -1.
        -14    1    6    6    0    0 -0.14121496635E+02  0.20051397144E+02  0.13893604226E+01  0.24564313893E+02  0.00000000000E+00 0.  1.
</event>
<event>
12    1  0.8133506E-002  0.2294236E+03  0.7818608E-02  0.1127113E+00
         21   -1    0    0  501  502  0.00000000000E+00  0.00000000000E+00  0.97671614071E+03  0.97671614071E+03  0.00000000000E+00 0.  1.
         21   -1    0    0  502  503 -0.00000000000E+00 -0.00000000000E+00 -0.75358963886E+02  0.75358963886E+02  0.00000000000E+00 0. -1.
         -6    2    1    2    0  503  0.94068354103E+02  0.11969629722E+03  0.16959186677E+03  0.28530091536E+03  0.17163668669E+03 0.  0.
        -24    2    3    3    0    0  0.50809769528E+02  0.14907774596E+03  0.13743055668E+03  0.22372970020E+03  0.79762233047E+02 0.  0.
          6    2    1    2  501    0 -0.94068354103E+02 -0.11969629722E+03  0.73176531006E+03  0.76677418924E+03  0.17113190666E+03 0.  0.
         24    2    5    5    0    0 -0.46548926289E+02 -0.12786363962E+03  0.66892334002E+03  0.68742682193E+03  0.81125136731E+02 0.  0.
          5    1    5    5  501    0 -0.47519427814E+02  0.81673424022E+01  0.62841970033E+02  0.79347367312E+02  0.47000000000E+01 0. -1.
        -13    1    6    6    0    0 -0.44584615286E+02 -0.39476657802E+02  0.15677717393E+03  0.16770592327E+03  0.00000000000E+00 0.  1.
         14    1    6    6    0    0 -0.19643110037E+01 -0.88386981816E+02  0.51214616609E+03  0.51972089867E+03  0.00000000000E+00 0. -1.
         -5    1    3    3    0  503  0.43258584575E+02 -0.29381448741E+02  0.32161310089E+02  0.61571215159E+02  0.47000000000E+01 0.  1.
         13    1    4    4    0    0  0.43653137783E+02  0.99937047174E+02  0.43364905425E+02  0.11736066146E+03  0.00000000000E+00 0. -1.
        -14    1    4    4    0    0  0.71566317453E+01  0.49140698784E+02  0.94065651258E+02  0.10636903874E+03  0.00000000000E+00 0.  1.
</event>
<event>
12    1  0.8133506E-002  0.2298484E+03  0.7818608E-02  0.1126963E+00
         21   -1    0    0  503  502  0.00000000000E+00  0.00000000000E+00  0.84984344916E+03  0.84984344916E+03  0.00000000000E+00 0.  1.
         21   -1    0    0  501  503 -0.00000000000E+00 -0.00000000000E+00 -0.10655066080E+03  0.10655066080E+03  0.00000000000E+00 0. -1.
          6    2    1    2  501    0  0.80774059564E+02  0.12984969012E+03  0.61286026669E+02  0.23669730590E+03  0.16995366084E+03 0.  0.
         24    2    3    3    0    0  0.10308754231E+03  0.40810928605E+02  0.44638739464E+02  0.14328951856E+03  0.79036041118E+02 0.  0.
         -6    2    1    2    0  502 -0.80774059564E+02 -0.12984969012E+03  0.68200676170E+03  0.71969680406E+03  0.17159509331E+03 0.  0.
        -24    2    5    5    0    0 -0.58375400836E+02 -0.40514469495E+02  0.54676438590E+03  0.55600480130E+03  0.71700318798E+02 0.  0.
          5    1    3    3  501    0 -0.22313482748E+02  0.89038761512E+02  0.16647287205E+02  0.93407787337E+02  0.47000000000E+01 0. -1.
        -11    1    4    4    0    0  0.57592247382E+02  0.13557467134E+02  0.63695810248E+02  0.86935770065E+02  0.00000000000E+00 0.  1.
         12    1    4    4    0    0  0.45495294930E+02  0.27253461471E+02 -0.19057070784E+02  0.56353748498E+02  0.00000000000E+00 0. -1.
         -5    1    5    5    0  502 -0.22398658727E+02 -0.89335220622E+02  0.13524237579E+03  0.16369200276E+03  0.47000000000E+01 0.  1.
         13    1    6    6    0    0  0.15069060763E+02 -0.60579768958E+01  0.16009922433E+03  0.16092090388E+03  0.00000000000E+00 0. -1.
        -14    1    6    6    0    0 -0.73444461600E+02 -0.34456492599E+02  0.38666516157E+03  0.39508389741E+03  0.00000000000E+00 0.  1.
</event>
<event>
12    1  0.8133506E-002  0.1864999E+03  0.7818608E-02  0.1162251E+00
         21   -1    0    0  503  502  0.00000000000E+00  0.00000000000E+00  0.50659041856E+02  0.50659041856E+02  0.00000000000E+00 0.  1.
         21   -1    0    0  501  503 -0.00000000000E+00 -0.00000000000E+00 -0.85795920773E+03  0.85795920773E+03  0.00000000000E+00 0.  1.
          6    2    1    2  501    0 -0.68194529546E+02  0.78676244609E+01 -0.61435956860E+03  0.64204352617E+03  0.17340650678E+03 0.  0.
         24    2    3    3    0    0 -0.22869783471E+02  0.21592451408E+02 -0.13216666146E+03  0.15750787921E+03  0.79695951327E+02 0.  0.
         -6    2    1    2    0  502  0.68194529546E+02 -0.78676244609E+01 -0.19294059727E+03  0.26657472341E+03  0.17065642593E+03 0.  0.
        -24    2    5    5    0    0  0.17556484502E+02  0.22307323660E+02 -0.23794455996E+02  0.87389773685E+02  0.79151434425E+02 0.  0.
          5    1    3    3  501    0 -0.45324746075E+02 -0.13724826947E+02 -0.48219290714E+03  0.48453564696E+03  0.47000000000E+01 0. -1.
        -13    1    4    4    0    0 -0.30269910168E+02  0.30970730626E+01 -0.13408564548E+03  0.13749479862E+03  0.00000000000E+00 0.  1.
         14    1    4    4    0    0  0.74001266964E+01  0.18495378346E+02  0.19189840165E+01  0.20013080596E+02  0.00000000000E+00 0. -1.
         -5    1    5    5    0  502  0.50638045044E+02 -0.30174948121E+02 -0.16914614128E+03  0.17918494973E+03  0.47000000000E+01 0.  1.
         11    1    6    6    0    0 -0.83845644565E+01  0.16045418781E+01 -0.46435168672E+02  0.47213349440E+02  0.00000000000E+00 0. -1.
        -12    1    6    6    0    0  0.25941048959E+02  0.20702781782E+02  0.22640712676E+02  0.40176424245E+02  0.00000000000E+00 0.  1.
</event>
<event>
12    1  0.8133506E-002  0.1834378E+03  0.7818608E-02  0.1165135E+00
         21   -1    0    0  501  502  0.00000000000E+00  0.00000000000E+00  0.65668750264E+03  0.65668750264E+03  0.00000000000E+00 0. -1.
         21   -1    0    0  502  503 -0.00000000000E+00 -0.00000000000E+00 -0.34143967052E+03  0.34143967052E+03  0.00000000000E+00 0. -1.
         -6    2    1    2    0  503 -0.49783625473E+02  0.37307153495E+02 -0.30287469271E+03  0.35409391946E+03  0.17256648357E+03 0.  0.
        -24    2    3    3    0    0 -0.57313671449E+02  0.82613764614E+02 -0.17077628284E+03  0.21416011192E+03  0.81179576980E+02 0.  0.
          6    2    1    2  501    0  0.49783625473E+02 -0.37307153495E+02  0.61812252483E+03  0.64403325370E+03  0.16980324820E+03 0.  0.
         24    2    5    5    0    0  0.40863255619E+02 -0.33909809070E+02  0.62440389777E+03  0.63167766413E+03  0.79478066184E+02 0.  0.
          5    1    5    5  501    0  0.89203698541E+01 -0.33973444249E+01 -0.62813729394E+01  0.12355589564E+02  0.47000000000E+01 0. -1.
        -11    1    6    6    0    0 -0.21641896432E+02  0.37716841073E+01  0.17732907656E+03  0.17868463469E+03  0.00000000000E+00 0.  1.
         12    1    6    6    0    0  0.62505152051E+02 -0.37681493177E+02  0.44707482121E+03  0.45299302944E+03  0.00000000000E+00 0. -1.
         -5    1    3    3    0  503  0.75300459763E+01 -0.45306611119E+02 -0.13209840987E+03  0.13993380754E+03  0.47000000000E+01 0.  1.
         11    1    4    4    0    0 -0.55090307821E+02  0.33031323202E+02 -0.14420177153E+03  0.15786120879E+03  0.00000000000E+00 0. -1.
        -12    1    4    4    0    0 -0.22233636282E+01  0.49582441412E+02 -0.26574511306E+02  0.56298903128E+02  0.00000000000E+00 0.  1.
</event>
<event>
12    1  0.8133506E-002  0.2482817E+03  0.7818608E-02  0.1114681E+00
         21   -1    0    0  503  502  0.00000000000E+00  0.00000000000E+00  0.66105994843E+03  0.66105994843E+03  0.00000000000E+00 0.  1.
         21   -1    0    0  501  503 -0.00000000000E+00 -0.00000000000E+00 -0.10237224412E+03  0.10237224412E+03  0.00000000000E+00 0. -1.
          6    2    1    2  501    0 -0.13911572186E+03  0.10843676060E+03  0.16038112963E+03  0.29407951252E+03  0.17218866927E+03 0.  0.
         24    2    3    3    0    0 -0.23972423204E+02  0.98320522740E+02  0.10091259342E+03  0.16400678559E+03  0.80456646346E+02 0.  0.
         -6    2    1    2    0  502  0.13911572186E+03 -0.10843676060E+03  0.39830657468E+03  0.46935268003E+03  0.17473435752E+03 0.  0.
        -24    2    5    5    0    0  0.13688052461E+03 -0.98959518757E+02  0.41164450805E+03  0.45218280273E+03  0.80553222848E+02 0.  0.
          5    1    3    3  501    0 -0.11514329866E+03  0.10116237860E+02  0.59468536211E+02  0.13007272694E+03  0.47000000000E+01 0. -1.
        -11    1    4    4    0    0 -0.92391068409E+01  0.70566060925E+02  0.11025107865E+03  0.13122587547E+03  0.00000000000E+00 0.  1.
         12    1    4    4    0    0 -0.14733316363E+02  0.27754461815E+02 -0.93384852276E+01  0.32780910116E+02  0.00000000000E+00 0. -1.
         -5    1    5    5    0  502  0.22351972459E+01 -0.94772418430E+01 -0.13337933369E+02  0.17169877292E+02  0.47000000000E+01 0.  1.
         11    1    6    6    0    0  0.93239910456E+02 -0.90905063281E+02  0.22163063744E+03  0.25705554047E+03  0.00000000000E+00 0. -1.
        -12    1    6    6    0    0  0.43640614159E+02 -0.80544554762E+01  0.19001387061E+03  0.19512726227E+03  0.00000000000E+00 0.  1.
</event>
<event>
12    1  0.8133506E-002  0.1852416E+03  0.7818608E-02  0.1163225E+00
         21   -1    0    0  503  502  0.00000000000E+00  0.00000000000E+00  0.12432131759E+03  0.12432131759E+03  0.00000000000E+00 0.  1.
         21   -1    0    0  501  503 -0.00000000000E+00 -0.00000000000E+00 -0.86528040831E+03  0.86528040831E+03  0.00000000000E+00 0.  1.
          6    2    1    2  501    0 -0.97170225301E+01  0.60985887550E+02 -0.77914186283E+03  0.80046587410E+03  0.17282903163E+03 0.  0.
         24    2    3    3    0    0 -0.10038051543E+02 -0.20222184610E-01 -0.67549120156E+03  0.68010226637E+03  0.78421721754E+02 0.  0.
         -6    2    1    2    0  502  0.97170225301E+01 -0.60985887550E+02  0.38182772117E+02  0.18913585180E+03  0.17464463159E+03 0.  0.
        -24    2    5    5    0    0  0.65243495335E+02 -0.71593209987E+00  0.22641640670E+02  0.10559380563E+03  0.79876039286E+02 0.  0.
          5    1    3    3  501    0  0.32102901305E+00  0.61006109734E+02 -0.10365066127E+03  0.12036360773E+03  0.47000000000E+01 0. -1.
        -13    1    4    4    0    0 -0.74541817907E+01  0.27034881687E+02 -0.58366833377E+03  0.58434165819E+03  0.00000000000E+00 0.  1.
         14    1    4    4    0    0 -0.25838697524E+01 -0.27055103872E+02 -0.91822867792E+02  0.95760608174E+02  0.00000000000E+00 0. -1.
         -5    1    5    5    0  502 -0.55526472805E+02 -0.60269955450E+02  0.15541131447E+02  0.83542046173E+02  0.47000000000E+01 0.  1.
         13    1    6    6    0    0 -0.17786052477E+02  0.14136283576E+01 -0.41581580861E+01  0.18320269826E+02  0.00000000000E+00 0. -1.
        -14    1    6    6    0    0  0.83029547812E+02 -0.21295604575E+01  0.26799798756E+02  0.87273535800E+02  0.00000000000E+00 0.  1.
</event>
<event>
12    1  0.8133506E-002  0.2314199E+03  0.7818608E-02  0.1125680E+00
         21   -1    0    0  501  502  0.00000000000E+00  0.00000000000E+00  0.39709162383E+03  0.39709162383E+03  0.00000000000E+00 0.  1.
         21   -1    0    0  502  503 -0.00000000000E+00 -0.00000000000E+00 -0.21943049258E+03  0.21943049258E+03  0.00000000000E+00 0.  1.
         -6    2    1    2    0  503 -0.63331175440E+02  0.14108304671E+03 -0.10264183695E+03  0.25316108282E+03  0.17216249101E+03 0.  0.
        -24    2    3    3    0    0 -0.70920018679E+02  0.13878658181E+03 -0.27545988206E+02  0.17750170937E+03  0.80353662168E+02 0.  0.
          6    2    1    2  501    0  0.63331175440E+02 -0.14108304671E+03  0.28030296819E+03  0.36336103359E+03  0.17189014778E+03 0.  0.
         24    2    5    5    0    0  0.31225856469E+02 -0.11139237437E+03  0.82929568582E+02  0.16114670076E+03  0.75548862597E+02 0.  0.
          5    1    5    5  501    0  0.32105318970E+02 -0.29690672340E+02  0.19737339961E+03  0.20221433283E+03  0.47000000000E+01 0. -1.
        -11    1    6    6    0    0 -0.18339139383E+02 -0.60106581031E+02  0.19770350803E+02  0.65878614796E+02  0.00000000000E+00 0.  1.
         12    1    6    6    0    0  0.49564995853E+02 -0.51285793340E+02  0.63159217779E+02  0.95268085962E+02  0.00000000000E+00 0. -1.
         -5    1    3    3    0  503  0.75888432392E+01  0.22964649036E+01 -0.75095848742E+02  0.75659373451E+02  0.47000000000E+01 0.  1.
         13    1    4    4    0    0 -0.52843755691E+02  0.65514720564E+02 -0.51069757779E+02  0.98451822156E+02  0.00000000000E+00 0. -1.
        -14    1    4    4    0    0 -0.18076262988E+02  0.73271861243E+02  0.23523769574E+02  0.79049887215E+02  0.00000000000E+00 0.  1.
</event>
<event>
12    1  0.8133506E-002  0.2076323E+03  0.7818608E-02  0.1143756E+00
         21   -1    0    0  503  502  0.00000000000E+00  0.00000000000E+00  0.14062881267E+04  0.14062881267E+04  0.00000000000E+00 0.  1.
         21   -1    0    0  501  503 -0.00000000000E+00 -0.00000000000E+00 -0.30484839788E+02  0.30484839788E+02  0.00000000000E+00 0. -1.
          6    2    1    2  501    0 -0.87906897416E+02  0.73390737736E+02  0.66168421885E+03  0.69349635030E+03  0.17319745785E+03 0.  0.
         24    2    3    3    0    0  0.15353345587E+02  0.24213845534E+02  0.38928095752E+03  0.39801932701E+03  0.77831132885E+02 0.  0.
         -6    2    1    2    0  502  0.87906897416E+02 -0.73390737736E+02  0.71411906808E+03  0.74327661621E+03  0.17140671458E+03 0.  0.
        -24    2    5    5    0    0 -0.55433303334E+01  0.83668593665E+01  0.30915773466E+03  0.31968126529E+03  0.80727155481E+02 0.  0.
          5    1    3    3  501    0 -0.10326024300E+03  0.49176892202E+02  0.27240326133E+03  0.29547702330E+03  0.47000000000E+01 0. -1.
        -11    1    4    4    0    0  0.37695998972E+02 -0.46162774626E+01  0.11010195761E+03  0.11646776131E+03  0.00000000000E+00 0.  1.
         12    1    4    4    0    0 -0.22342653385E+02  0.28830122997E+02  0.27917899991E+03  0.28155156569E+03  0.00000000000E+00 0. -1.
         -5    1    5    5    0  502  0.93450227750E+02 -0.81757597102E+02  0.40496133342E+03  0.42359535092E+03  0.47000000000E+01 0.  1.
         13    1    6    6    0    0 -0.16313632594E+02  0.42341980824E+02  0.15869315890E+03  0.16505301158E+03  0.00000000000E+00 0. -1.
        -14    1    6    6    0    0  0.10770302261E+02 -0.33975121458E+02  0.15046457576E+03  0.15462825372E+03  0.00000000000E+00 0.  1.
</event>
<event>
12    1  0.8133506E-002  0.1819537E+03  0.7818608E-02  0.1166084E+00
         21   -1    0    0  501  502  0.00000000000E+00  0.00000000000E+00  0.10066404447E+03  0.10066404447E+03  0.00000000000E+00 0. -1.
         21   -1    0    0  502  503 -0.00000000000E+00 -0.00000000000E+00 -0.34216190722E+03  0.34216190722E+03  0.00000000000E+00 0. -1.
         -6    2    1    2    0  503 -0.55505703246E+02 -0.48213903913E+01 -0.16649204169E+03  0.24663081907E+03  0.17321383337E+03 0.  0.
        -24    2    3    3    0    0 -0.41297756308E+02 -0.49089862100E+02 -0.17085831580E+03  0.19969769970E+03  0.81063480990E+02 0.  0.
          6    2    1    2  501    0  0.55505703246E+02  0.48213903913E+01 -0.75005821067E+02  0.19619513262E+03  0.17251819606E+03 0.  0.
         24    2    5    5    0    0 -0.42911348089E+02  0.88313351594E+01 -0.58102988562E+02  0.96146187616E+02  0.62839126647E+02 0.  0.
          5    1    5    5  501    0  0.98417051335E+02 -0.40099447681E+01 -0.16902832505E+02  0.10004894501E+03  0.47000000000E+01 0. -1.
        -11    1    6    6    0    0 -0.23551825205E+02  0.30180194211E+02 -0.91829634896E+01  0.39368253855E+02  0.00000000000E+00 0.  1.
         12    1    6    6    0    0 -0.19359522884E+02 -0.21348859052E+02 -0.48920025072E+02  0.56777933761E+02  0.00000000000E+00 0. -1.
         -5    1    3    3    0  503 -0.14207946938E+02  0.44268471709E+02  0.43662741124E+01  0.46933119364E+02  0.47000000000E+01 0.  1.
         13    1    4    4    0    0 -0.55736109199E+02 -0.18383337623E+02 -0.14681539250E+03  0.15811141782E+03  0.00000000000E+00 0. -1.
        -14    1    4    4    0    0  0.14438352891E+02 -0.30706524478E+02 -0.24042923305E+02  0.41586281882E+02  0.00000000000E+00 0.  1.
</event>
<event>
12    1  0.8133506E-002  0.2158721E+03  0.7818608E-02  0.1137313E+00
         21   -1    0    0  501  502  0.00000000000E+00  0.00000000000E+00  0.25138429870E+03  0.25138429870E+03  0.00000000000E+00 0.  1.
         21   -1    0    0  502  503 -0.00000000000E+00 -0.00000000000E+00 -0.18780594833E+03  0.18780594833E+03  0.00000000000E+00 0.  1.
         -6    2    1    2    0  503 -0.11475990230E+03  0.54159590072E+02  0.28644306405E+00  0.21423103987E+03  0.17260289691E+03 0.  0.
        -24    2    3    3    0    0 -0.23426589134E+02  0.77530932825E+02 -0.24799889117E+02  0.11656114780E+03  0.80072567415E+02 0.  0.
          6    2    1    2  501    0  0.11475990230E+03 -0.54159590072E+02  0.63291907303E+02  0.22495920716E+03  0.17463585824E+03 0.  0.
         24    2    5    5    0    0  0.10016725999E+03 -0.36283829576E+02 -0.23168139127E+02  0.13534939938E+03  0.80204120703E+02 0.  0.
          5    1    5    5  501    0  0.14592642308E+02 -0.17875760496E+02  0.86460046429E+02  0.89609807786E+02  0.47000000000E+01 0. -1.
        -11    1    6    6    0    0  0.21591474677E+02 -0.31650358746E+02  0.22417062457E+02  0.44389882593E+02  0.00000000000E+00 0.  1.
         12    1    6    6    0    0  0.78575785316E+02 -0.46334708302E+01 -0.45585201583E+02  0.90959516783E+02  0.00000000000E+00 0. -1.
         -5    1    3    3    0  503 -0.91333313167E+02 -0.23371342753E+02  0.25086332182E+02  0.97669892078E+02  0.47000000000E+01 0.  1.
         13    1    4    4    0    0 -0.16342542388E+01 -0.13083621531E+02 -0.19073378817E+02  0.23187188678E+02  0.00000000000E+00 0. -1.
        -14    1    4    4    0    0 -0.21792334895E+02  0.90614554356E+02 -0.57265103008E+01  0.93373959119E+02  0.00000000000E+00 0.  1.
</event>
<event>
12    1  0.8133506E-002  0.2243178E+03  0.7818608E-02  0.1130830E+00
         21   -1    0    0  501  502  0.00000000000E+00  0.00000000000E+00  0.14199486118E+04  0.14199486118E+04  0.00000000000E+00 0. -1.
         21   -1    0    0  502  503 -0.00000000000E+00 -0.00000000000E+00 -0.38602239155E+02  0.38602239155E+02  0.00000000000E+00 0.  1.
         -6    2    1    2    0  503 -0.13192533290E+03  0.56965819758E+02  0.47924475646E+03  0.52914460656E+03  0.17224714793E+03 0.  0.
        -24    2    3    3    0    0 -0.91238265415E+02 -0.25047869654E+02  0.34534459537E+03  0.36687006804E+03  0.79868269167E+02 0.  0.
          6    2    1    2  501    0  0.13192533290E+03 -0.56965819758E+02  0.90210161618E+03  0.92940624440E+03  0.17134539132E+03 0.  0.
         24    2    5    5    0    0  0.10624630937E+03 -0.59345204385E+02  0.37363728153E+03  0.40029215773E+03  0.76281464631E+02 0.  0.
          5    1    5    5  501    0  0.25679023529E+02  0.23793846277E+01  0.52846433464E+03  0.52911408667E+03  0.47000000000E+01 0. -1.
        -11    1    6    6    0    0  0.38375340568E+01 -0.26473133186E+02  0.29893417915E+02  0.40114459774E+02  0.00000000000E+00 0.  1.
         12    1    6    6    0    0  0.10240877531E+03 -0.32872071199E+02  0.34374386362E+03  0.36017769795E+03  0.00000000000E+00 0. -1.
         -5    1    3    3    0  503 -0.40687067485E+02  0.82013689412E+02  0.13390016109E+03  0.16227453852E+03  0.47000000000E+01 0.  1.
         13    1    4    4    0    0 -0.48993095433E+02 -0.50124211787E+02  0.24963785980E+03  0.25929099686E+03  0.00000000000E+00 0. -1.
        -14    1    4    4    0    0 -0.42245169982E+02  0.25076342133E+02  0.95706735568E+02  0.10757907117E+03  0.00000000000E+00 0.  1.
</event>
<event>
12    1  0.8133506E-002  0.1885748E+03  0.7818608E-02  0.1160079E+00
         21   -1    0    0  501  502  0.00000000000E+00  0.00000000000E+00  0.67886203555E+03  0.67886203555E+03  0.00000000000E+00 0. -1.
         21   -1    0    0  502  503 -0.00000000000E+00 -0.00000000000E+00 -0.52225942939E+02  0.52225942939E+02  0.00000000000E+00 0. -1.
         -6    2    1    2    0  503 -0.84065948217E+00  0.78004134393E+02  0.28742274511E+03  0.34298214356E+03  0.17011632698E+03 0.  0.
        -24    2    3    3    0    0 -0.89300657904E+01  0.91968400134E+02  0.29848924462E+03  0.32285761566E+03  0.81260557060E+02 0.  0.
          6    2    1    2  501    0  0.84065948217E+00 -0.78004134393E+02  0.33921334750E+03  0.38810583493E+03  0.17168311592E+03 0.  0.
         24    2    5    5    0    0 -0.23917041496E+02 -0.62412559525E+02  0.91517062803E+02  0.13864325173E+03  0.79870056999E+02 0.  0.
          5    1    5    5  501    0  0.24757700978E+02 -0.15591574867E+02  0.24769628470E+03  0.24946258320E+03  0.47000000000E+01 0. -1.
        -13    1    6    6    0    0 -0.12318502943E+02  0.70495646006E+01  0.59702943871E+02  0.61366793811E+02  0.00000000000E+00 0.  1.
         14    1    6    6    0    0 -0.11598538554E+02 -0.69462124126E+02  0.31814118932E+02  0.77276457916E+02  0.00000000000E+00 0. -1.
         -5    1    3    3    0  503  0.80894063082E+01 -0.13964265741E+02 -0.11066499509E+02  0.20124527907E+02  0.47000000000E+01 0.  1.
         11    1    4    4    0    0 -0.18572895630E+02  0.90397773766E+02  0.16534947850E+03  0.18935986902E+03  0.00000000000E+00 0. -1.
        -12    1    4    4    0    0  0.96428298397E+01  0.15706263672E+01  0.13313976612E+03  0.13349774664E+03  0.00000000000E+00 0.  1.
</event>
<event>
12    1  0.8133506E-002  0.1841232E+03  0.7818608E-02  0.1167966E+00
         21   -1    0    0  501  502  0.00000000000E+00  0.00000000000E+00  0.65602043434E+03  0.65602043434E+03  0.00000000000E+00 0.  1.
         21   -1    0    0  502  503 -0.00000000000E+00 -0.00000000000E+00 -0.93597860557E+02  0.93597860557E+02  0.00000000000E+00 0. -1.
         -6    2    1    2    0  503 -0.39402095169E+02  0.54077836025E+02  0.23941870957E+02  0.18567330857E+03  0.17153549743E+03 0.  0.
        -24    2    3    3    0    0 -0.67382295984E+02  0.82962469166E+02 -0.85953960763E+01  0.13373125032E+03  0.79918842441E+02 0.  0.
          6    2    1    2  501    0  0.39402095169E+02 -0.54077836025E+02  0.53848070282E+03  0.56394498632E+03  0.15360840742E+03 0.  0.
         24    2    5    5    0    0 -0.81921938043E+01 -0.17545507314E+02  0.44674164781E+03  0.45422729587E+03  0.79808392762E+02 0.  0.
          5    1    5    5  501    0  0.47594288973E+02 -0.36532328711E+02  0.91739055009E+02  0.10971769045E+03  0.47000000000E+01 0. -1.
        -11    1    6    6    0    0 -0.50196089251E+01  0.22818032440E+02  0.32684419244E+03  0.32767817323E+03  0.00000000000E+00 0.  1.
         12    1    6    6    0    0 -0.31725848792E+01 -0.40363539753E+02  0.11989745537E+03  0.12654912264E+03  0.00000000000E+00 0. -1.
         -5    1    3    3    0  503  0.27980200815E+02 -0.28884633141E+02  0.32537267033E+02  0.51942058251E+02  0.47000000000E+01 0.  1.
         11    1    4    4    0    0 -0.73917423650E+00 -0.14696953068E+02 -0.46547948243E+01  0.15434180344E+02  0.00000000000E+00 0. -1.
        -12    1    4    4    0    0 -0.66643121747E+02  0.97659422234E+02 -0.39406012520E+01  0.11829706998E+03  0.00000000000E+00 0.  1.
</event>
<event>
12    1  0.8133506E-002  0.1905628E+03  0.7818608E-02  0.1158145E+00
         21   -1    0    0  503  502  0.00000000000E+00  0.00000000000E+00  0.23048903286E+03  0.23048903286E+03  0.00000000000E+00 0.  1.
         21   -1    0    0  501  503 -0.00000000000E+00 -0.00000000000E+00 -0.21178278407E+03  0.21178278407E+03  0.00000000000E+00 0.  1.
          6    2    1    2  501    0 -0.31740401704E+02  0.73194856504E+02 -0.10324951336E+03  0.21673638390E+03  0.17305853917E+03 0.  0.
         24    2    3    3    0    0  0.38424513378E+02 -0.53756057839E+00 -0.43715572858E+02  0.98728059156E+02  0.79746135672E+02 0.  0.
         -6    2    1    2    0  502  0.31740401704E+02 -0.73194856504E+02  0.12195576216E+03  0.22553543303E+03  0.17212810204E+03 0.  0.
        -24    2    5    5    0    0 -0.29592776899E+02  0.29756141212E+01  0.88827053410E+02  0.12217537916E+03  0.78434629673E+02 0.  0.
          5    1    3    3  501    0 -0.70164915082E+02  0.73732417083E+02 -0.59533940500E+02  0.11800832474E+03  0.47000000000E+01 0. -1.
        -11    1    4    4    0    0 -0.10984361733E+02 -0.29332200390E+02 -0.14644759899E+02  0.34576049151E+02  0.00000000000E+00 0.  1.
         12    1    4    4    0    0  0.49408875110E+02  0.28794639812E+02 -0.29070812959E+02  0.64152010005E+02  0.00000000000E+00 0. -1.
         -5    1    5    5    0  502  0.61333178603E+02 -0.76170470626E+02  0.33128708745E+02  0.10336005387E+03  0.47000000000E+01 0.  1.
         11    1    6    6    0    0 -0.28600793941E+02  0.23223820601E+02  0.65278228950E+01  0.37416089174E+02  0.00000000000E+00 0. -1.
        -12    1    6    6    0    0 -0.99198295830E+00 -0.20248206480E+02  0.82299230515E+02  0.84759289988E+02  0.00000000000E+00 0.  1.
</event>
<event>
12    1  0.8133506E-002  0.2036146E+03  0.7818608E-02  0.1147015E+00
         21   -1    0    0  503  502  0.00000000000E+00  0.00000000000E+00  0.43777972582E+03  0.43777972582E+03  0.00000000000E+00 0.  1.
         21   -1    0    0  501  503 -0.00000000000E+00 -0.00000000000E+00 -0.11328415137E+03  0.11328415137E+03  0.00000000000E+00 0. -1.
          6    2    1    2  501    0 -0.54461965371E+02 -0.92342369283E+02  0.27531071156E+03  0.34159296471E+03  0.17145421196E+03 0.  0.
         24    2    3    3    0    0 -0.72234041176E+02 -0.28007327833E+02  0.24332883820E+03  0.26743250044E+03  0.79429539054E+02 0.  0.
         -6    2    1    2    0  502  0.54461965371E+02  0.92342369283E+02  0.49184862887E+02  0.20947091248E+03  0.17310601839E+03 0.  0.
        -24    2    5    5    0    0 -0.29607925678E+02  0.32796111850E+02 -0.81982763174E+01  0.91452193545E+02  0.79649719110E+02 0.  0.
          5    1    3    3  501    0  0.17772075805E+02 -0.64335041449E+02  0.31981873362E+02  0.74160464268E+02  0.47000000000E+01 0. -1.
        -11    1    4    4    0    0 -0.51401196508E+02  0.78726942078E+00  0.21751321799E+03  0.22350548717E+03  0.00000000000E+00 0.  1.
         12    1    4    4    0    0 -0.20832844667E+02 -0.28794597254E+02  0.25815620217E+02  0.43927013273E+02  0.00000000000E+00 0. -1.
         -5    1    5    5    0  502  0.84069891049E+02  0.59546257432E+02  0.57383139204E+02  0.11801871894E+03  0.47000000000E+01 0.  1.
         11    1    6    6    0    0  0.13153104883E+02  0.43246364097E+02 -0.13349420471E+02  0.47132358339E+02  0.00000000000E+00 0. -1.
        -12    1    6    6    0    0 -0.42761030561E+02 -0.10450252247E+02  0.51511441533E+01  0.44319835206E+02  0.00000000000E+00 0.  1.
</event>
<event>
12    1  0.8133506E-002  0.1972804E+03  0.7818608E-02  0.1155121E+00
         21   -1    0    0  503  502  0.00000000000E+00  0.00000000000E+00  0.13329119890E+03  0.13329119890E+03  0.00000000000E+00 0.  1.
         21   -1    0    0  501  503 -0.00000000000E+00 -0.00000000000E+00 -0.27717990203E+03  0.27717990203E+03  0.00000000000E+00 0.  1.
          6    2    1    2  501    0  0.92859812499E+01 -0.66120620414E+02 -0.97433282278E+02  0.20779480684E+03  0.17095985307E+03 0.  0.
         24    2    3    3    0    0  0.28780017979E+02  0.14735255104E+02 -0.81969950987E+01  0.85717392783E+02  0.78961151961E+02 0.  0.
         -6    2    1    2    0  502 -0.92859812499E+01  0.66120620414E+02 -0.46455420853E+02  0.20267629408E+03  0.18563784141E+03 0.  0.
        -24    2    5    5    0    0 -0.78807231601E+02  0.50319048971E+02 -0.46110058284E+02  0.13122628928E+03  0.79697020531E+02 0.  0.
          5    1    3    3  501    0 -0.19494036729E+02 -0.80855875518E+02 -0.89236287179E+02  0.12207741406E+03  0.47000000000E+01 0. -1.
        -13    1    4    4    0    0  0.12167813443E+02 -0.29033578719E+02 -0.20179710387E+02  0.37392848093E+02  0.00000000000E+00 0.  1.
         14    1    4    4    0    0  0.16612204536E+02  0.43768833823E+02  0.11982715289E+02  0.48324544690E+02  0.00000000000E+00 0. -1.
         -5    1    5    5    0  502  0.69521250351E+02  0.15801571443E+02 -0.34536256925E+00  0.71450004799E+02  0.47000000000E+01 0.  1.
         13    1    6    6    0    0 -0.96062665062E+01  0.39617145736E+02 -0.45648489580E+02  0.61201169869E+02  0.00000000000E+00 0. -1.
        -14    1    6    6    0    0 -0.69200965095E+02  0.10701903235E+02 -0.46156870457E+00  0.70025119411E+02  0.00000000000E+00 0.  1.
</event>
<event>
12    1  0.8133506E-002  0.2415538E+03  0.7818608E-02  0.1118851E+00
         21   -1    0    0  503  502  0.00000000000E+00  0.00000000000E+00  0.11749368301E+04  0.11749368301E+04  0.00000000000E+00 0. -1.
         21   -1    0    0  501  503 -0.00000000000E+00 -0.00000000000E+00 -0.62593191838E+02  0.62593191838E+02  0.00000000000E+00 0. -1.
          6    2    1    2  501    0 -0.11841714181E+03  0.11789788124E+03  0.83813513417E+03  0.87210073732E+03  0.17368552913E+03 0.  0.
         24    2    3    3    0    0 -0.10419241049E+03  0.14834655898E+03  0.61178946335E+03  0.64322540519E+03  0.81177672148E+02 0.  0.
         -6    2    1    2    0  502  0.11841714181E+03 -0.11789788124E+03  0.27420850406E+03  0.36542928459E+03  0.17442972356E+03 0.  0.
        -24    2    5    5    0    0  0.12154618827E+03 -0.46176632452E+02  0.11347909853E+03  0.18933340087E+03  0.77870877838E+02 0.  0.
          5    1    3    3  501    0 -0.14224731315E+02 -0.30448677739E+02  0.22634567082E+03  0.22887533213E+03  0.47000000000E+01 0. -1.
        -11    1    4    4    0    0 -0.10511385213E+03  0.88726654592E+02  0.38941790186E+03  0.41299835766E+03  0.00000000000E+00 0.  1.
         12    1    4    4    0    0  0.92144164330E+00  0.59619904385E+02  0.22237156149E+03  0.23022704753E+03  0.00000000000E+00 0. -1.
         -5    1    5    5    0  502 -0.31290464603E+01 -0.71721248786E+02  0.16072940554E+03  0.17609588372E+03  0.47000000000E+01 0.  1.
         11    1    6    6    0    0  0.98184560076E+02 -0.63735512247E+01  0.48670698534E+02  0.10977097471E+03  0.00000000000E+00 0. -1.
        -12    1    6    6    0    0  0.23361628190E+02 -0.39803081227E+02  0.64808399991E+02  0.79562426159E+02  0.00000000000E+00 0.  1.
</event>
<event>
12    1  0.8133506E-002  0.1726157E+03  0.7818608E-02  0.1175394E+00
         21   -1    0    0  501  502  0.00000000000E+00  0.00000000000E+00  0.86367078298E+03  0.86367078298E+03  0.00000000000E+00 0.  1.
         21   -1    0    0  502  503 -0.00000000000E+00 -0.00000000000E+00 -0.59096553999E+02  0.59096553999E+02  0.00000000000E+00 0.  1.
         -6    2    1    2    0  503  0.11007435829E+02 -0.10656788977E+02  0.10411885532E+03  0.20158599343E+03  0.17193442331E+03 0.  0.
        -24    2    3    3    0    0 -0.38667173205E+01 -0.42507966658E+02  0.13361800088E+03  0.15545544454E+03  0.67013031163E+02 0.  0.
          6    2    1    2  501    0 -0.11007435829E+02  0.10656788977E+02  0.70045537367E+03  0.72118134355E+03  0.17096803500E+03 0.  0.
         24    2    5    5    0    0  0.49145092820E+02  0.31566952179E+02  0.53391904880E+03  0.54282215784E+03  0.78578825082E+02 0.  0.
          5    1    5    5  501    0 -0.60152528649E+02 -0.20910163202E+02  0.16653632487E+03  0.17835918572E+03  0.47000000000E+01 0. -1.
        -11    1    6    6    0    0  0.20250583914E+02  0.51504321702E+01  0.25814058084E+02  0.33211123064E+02  0.00000000000E+00 0.  1.
         12    1    6    6    0    0  0.28894508906E+02  0.26416520009E+02  0.50810499071E+03  0.50961103477E+03  0.00000000000E+00 0. -1.
         -5    1    3    3    0  503  0.14874153149E+02  0.31851177681E+02 -0.29499145566E+02  0.46130548888E+02  0.47000000000E+01 0.  1.
         11    1    4    4    0    0  0.19257580158E+02 -0.43539491678E+01  0.93157042992E+02  0.95226287998E+02  0.00000000000E+00 0. -1.
        -12    1    4    4    0    0 -0.23124297479E+02 -0.38154017490E+02  0.40460957890E+02  0.60229156543E+02  0.00000000000E+00 0.  1.
</event>
<event>
12    1  0.8133506E-002  0.1777255E+03  0.7818608E-02  0.1170228E+00
         21   -1    0    0  503  502  0.00000000000E+00  0.00000000000E+00  0.49752064711E+03  0.49752064711E+03  0.00000000000E+00 0.  1.
         21   -1    0    0  501  503 -0.00000000000E+00 -0.00000000000E+00 -0.94990750748E+02  0.94990750748E+02  0.00000000000E+00 0.  1.
          6    2    1    2  501    0 -0.31817301788E+02 -0.28415377537E+02  0.29540549664E+02  0.17934386024E+03  0.17167353249E+03 0.  0.
         24    2    3    3    0    0 -0.59971395155E+02 -0.10425975536E+02 -0.16181210419E+02  0.12252096959E+03  0.10509180375E+03 0.  0.
         -6    2    1    2    0  502  0.31817301788E+02  0.28415377537E+02  0.37298934670E+03  0.41316753762E+03  0.17252995976E+03 0.  0.
        -24    2    5    5    0    0  0.34772132202E+02  0.83106982587E+02  0.27328779820E+03  0.29931503892E+03  0.82385679255E+02 0.  0.
          5    1    3    3  501    0  0.28154093366E+02 -0.17989402001E+02  0.45721760083E+02  0.56822890658E+02  0.47000000000E+01 0. -1.
        -11    1    4    4    0    0 -0.53294424810E+02  0.42020133583E+02 -0.25159196909E+01  0.67914042687E+02  0.00000000000E+00 0.  1.
         12    1    4    4    0    0 -0.66769703448E+01 -0.52446109120E+02 -0.13665290728E+02  0.54606926900E+02  0.00000000000E+00 0. -1.
         -5    1    5    5    0  502 -0.29548304140E+01 -0.54691605050E+02  0.99701548503E+02  0.11385249870E+03  0.47000000000E+01 0.  1.
         13    1    6    6    0    0 -0.13644899204E+02 -0.39456389857E+01  0.88433439907E+01  0.16731887946E+02  0.00000000000E+00 0. -1.
        -14    1    6    6    0    0  0.48417031406E+02  0.87052621573E+02  0.26444445421E+03  0.28258315097E+03  0.00000000000E+00 0.  1.
</event>
<event>
12    1  0.8133506E-002  0.1802129E+03  0.7818608E-02  0.1167675E+00
         21   -1    0    0  501  502  0.00000000000E+00  0.00000000000E+00  0.22808460207E+02  0.22808460207E+02  0.00000000000E+00 0. -1.
         21   -1    0    0  502  503 -0.00000000000E+00 -0.00000000000E+00 -0.14554166110E+04  0.14554166110E+04  0.00000000000E+00 0. -1.
         -6    2    1    2    0  503  0.49639338086E+02 -0.18458512318E+02 -0.60258940211E+03  0.62886778319E+03  0.17191835454E+03 0.  0.
        -24    2    3    3    0    0 -0.24026859730E+02  0.23524202362E+02 -0.40908299613E+03  0.41754793985E+03  0.76594427099E+02 0.  0.
          6    2    1    2  501    0 -0.49639338086E+02  0.18458512318E+02 -0.83001874868E+03  0.84935728802E+03  0.17225533081E+03 0.  0.
         24    2    5    5    0    0 -0.62569114646E+01  0.43834580060E+02 -0.74461464951E+03  0.75015078668E+03  0.79464502391E+02 0.  0.
          5    1    5    5  501    0 -0.43382426622E+02 -0.25376067742E+02 -0.85404099173E+02  0.99206501345E+02  0.47000000000E+01 0. -1.
        -13    1    6    6    0    0  0.12608601570E+02 -0.15159358895E+02 -0.36364741109E+03  0.36418157914E+03  0.00000000000E+00 0.  1.
         14    1    6    6    0    0 -0.18865513035E+02  0.58993938955E+02 -0.38096723842E+03  0.38596920753E+03  0.00000000000E+00 0. -1.
         -5    1    3    3    0  503  0.73666197816E+02 -0.41982714681E+02 -0.19350640599E+03  0.21131984334E+03  0.47000000000E+01 0.  1.
         11    1    4    4    0    0  0.19235877654E+02  0.21121597588E+02 -0.27855547997E+03  0.28001660003E+03  0.00000000000E+00 0. -1.
        -12    1    4    4    0    0 -0.43262737384E+02  0.24026047742E+01 -0.13052751616E+03  0.13753133981E+03  0.00000000000E+00 0.  1.
</event>
<event>
12    1  0.8133506E-002  0.2142556E+03  0.7818608E-02  0.1138351E+00
         21   -1    0    0  501  502  0.00000000000E+00  0.00000000000E+00  0.10720019267E+04  0.10720019267E+04  0.00000000000E+00 0.  1.
         21   -1    0    0  502  503 -0.00000000000E+00 -0.00000000000E+00 -0.43567987060E+02  0.43567987060E+02  0.00000000000E+00 0. -1.
         -6    2    1    2    0  503  0.12570661669E+03  0.13631653909E+02  0.43646948102E+03  0.48622120710E+03  0.17296669883E+03 0.  0.
        -24    2    3    3    0    0  0.79407614959E+02  0.71822820166E+02  0.22186244994E+03  0.25904709506E+03  0.80114692509E+02 0.  0.
          6    2    1    2  501    0 -0.12570661669E+03 -0.13631653909E+02  0.59196445862E+03  0.62934870666E+03  0.17224952493E+03 0.  0.
         24    2    5    5    0    0 -0.54568872144E+02  0.56326879755E+02  0.32221112181E+03  0.34169661150E+03  0.82377716051E+02 0.  0.
          5    1    5    5  501    0 -0.71137744543E+02 -0.69958533664E+02  0.26975333681E+03  0.28765209516E+03  0.47000000000E+01 0. -1.
        -13    1    6    6    0    0  0.20112895605E+02  0.77776575779E+01  0.36205645123E+02  0.42141063891E+02  0.00000000000E+00 0.  1.
         14    1    6    6    0    0 -0.74681767750E+02  0.48549222177E+02  0.28600547668E+03  0.29955554760E+03  0.00000000000E+00 0. -1.
         -5    1    3    3    0  503  0.46299001729E+02 -0.58191166258E+02  0.21460703109E+03  0.22717411204E+03  0.47000000000E+01 0.  1.
         13    1    4    4    0    0  0.42262822938E+02  0.72197148535E+02  0.19786421644E+03  0.21482277023E+03  0.00000000000E+00 0. -1.
        -14    1    4    4    0    0  0.37144792021E+02 -0.37432836845E+00  0.23998233495E+02  0.44224324832E+02  0.00000000000E+00 0.  1.
</event>
<event>
12    1  0.8133506E-002  0.1851036E+03  0.7818608E-02  0.1163574E+00
         21   -1    0    0  503  502  0.00000000000E+00  0.00000000000E+00  0.77820567668E+02  0.77820567668E+02  0.00000000000E+00 0. -1.
         21   -1    0    0  501  503 -0.00000000000E+00 -0.00000000000E+00 -0.48927454540E+03  0.48927454540E+03  0.00000000000E+00 0. -1.
          6    2    1    2  501    0  0.55824795814E+02  0.25827313655E+02 -0.30231254875E+03  0.35448022277E+03  0.17458491702E+03 0.  0.
         24    2    3    3    0    0  0.80509961622E+02  0.40278588103E+02 -0.11899286147E+03  0.16888282385E+03  0.79106817221E+02 0.  0.
         -6    2    1    2    0  502 -0.55824795814E+02 -0.25827313655E+02 -0.10914142899E+03  0.21261489030E+03  0.17178411480E+03 0.  0.
        -24    2    5    5    0    0  0.31025207315E+02  0.56179941740E+01 -0.35372863121E+02  0.94311797616E+02  0.81543548958E+02 0.  0.
          5    1    3    3  501    0 -0.24685165808E+02 -0.14451274448E+02 -0.18331968727E+03  0.18559739892E+03  0.47000000000E+01 0. -1.
        -11    1    4    4    0    0  0.21352698368E+02  0.14318313735E+02  0.75572930698E+01  0.26796725814E+02  0.00000000000E+00 0.  1.
         12    1    4    4    0    0  0.59157263254E+02  0.25960274368E+02 -0.12655015454E+03  0.14208609804E+03  0.00000000000E+00 0. -1.
         -5    1    5    5    0  502 -0.86850003129E+02 -0.31445307829E+02 -0.73768565864E+02  0.11830309268E+03  0.47000000000E+01 0.  1.
         11    1    6    6    0    0  0.70505740065E+01  0.33409099453E+02  0.10350635801E+02  0.35679324287E+02  0.00000000000E+00 0. -1.
        -12    1    6    6    0    0  0.23974633309E+02 -0.27791105279E+02 -0.45723498922E+02  0.58632473328E+02  0.00000000000E+00 0.  1.
</event>
<event>
12    1  0.8133506E-002  0.1943132E+03  0.7818608E-02  0.1155886E+00
         21   -1    0    0  503  502  0.00000000000E+00  0.00000000000E+00  0.17489139409E+03  0.17489139409E+03  0.00000000000E+00 0. -1.
         21   -1    0    0  501  503 -0.00000000000E+00 -0.00000000000E+00 -0.22399047701E+03  0.22399047701E+03  0.00000000000E+00 0. -1.
          6    2    1    2  501    0 -0.11017134983E+02 -0.77181359587E+02  0.25563001758E+02  0.19598749935E+03  0.17798677847E+03 0.  0.
         24    2    3    3    0    0  0.83927822927E+00 -0.75410614626E+02 -0.48738457232E+02  0.12057856831E+03  0.80475392119E+02 0.  0.
         -6    2    1    2    0  502  0.11017134983E+02  0.77181359587E+02 -0.74662084683E+02  0.20289437175E+03  0.17179452747E+03 0.  0.
        -24    2    5    5    0    0 -0.18450281510E+02  0.10912154671E+03 -0.80563400317E+02  0.15878745943E+03  0.80467825610E+02 0.  0.
          5    1    3    3  501    0 -0.11856413213E+02 -0.17707449612E+01  0.74301458990E+02  0.75408931036E+02  0.47000000000E+01 0. -1.
        -11    1    4    4    0    0 -0.33796048672E+02 -0.34050060998E+02 -0.46150806051E+02  0.66569335725E+02  0.00000000000E+00 0.  1.
         12    1    4    4    0    0  0.34635326901E+02 -0.41360553628E+02 -0.25876511808E+01  0.54009232587E+02  0.00000000000E+00 0. -1.
         -5    1    5    5    0  502  0.29467416494E+02 -0.31940187122E+02  0.59013156341E+01  0.44106912320E+02  0.47000000000E+01 0.  1.
         11    1    6    6    0    0  0.22752489729E+01 -0.11271724991E+02 -0.18448361884E+02  0.21738688975E+02  0.00000000000E+00 0. -1.
        -12    1    6    6    0    0 -0.20725530483E+02  0.12039327170E+03 -0.62115038433E+02  0.13704877046E+03  0.00000000000E+00 0.  1.
</event>
<event>
12    1  0.8133506E-002  0.1832587E+03  0.7818608E-02  0.1164847E+00
         21   -1    0    0  503  502  0.00000000000E+00  0.00000000000E+00  0.92038964933E+03  0.92038964933E+03  0.00000000000E+00 0. -1.
         21   -1    0    0  501  503 -0.00000000000E+00 -0.00000000000E+00 -0.81930029205E+02  0.81930029205E+02  0.00000000000E+00 0. -1.
          6    2    1    2  501    0  0.43229525756E+02  0.44981508493E+02  0.45787628739E+02  0.18889218955E+03  0.17231257738E+03 0.  0.
         24    2    3    3    0    0 -0.19973818166E+02 -0.24947133356E+02 -0.61876584512E+00  0.83724128371E+02  0.77382387696E+02 0.  0.
         -6    2    1    2    0  502 -0.43229525756E+02 -0.44981508493E+02  0.79267199139E+03  0.81342748899E+03  0.17159040155E+03 0.  0.
        -24    2    5    5    0    0  0.32368503757E+02 -0.47548234555E+01  0.54195409488E+03  0.54844673141E+03  0.77519338601E+02 0.  0.
          5    1    3    3  501    0  0.63203343922E+02  0.69928641849E+02  0.46406394584E+02  0.10516806118E+03  0.47000000000E+01 0. -1.
        -13    1    4    4    0    0  0.45019144384E+01 -0.42060825091E+02  0.20637347701E+02  0.47066764931E+02  0.00000000000E+00 0.  1.
         14    1    4    4    0    0 -0.24475732604E+02  0.17113691735E+02 -0.21256113546E+02  0.36657363440E+02  0.00000000000E+00 0. -1.
         -5    1    5    5    0  502 -0.75598029513E+02 -0.40226685038E+02  0.25071789651E+03  0.26498075757E+03  0.47000000000E+01 0.  1.
         13    1    6    6    0    0  0.33405596362E+02 -0.95858770079E+01  0.54237537174E+03  0.54348768779E+03  0.00000000000E+00 0. -1.
        -14    1    6    6    0    0 -0.10370926049E+01  0.48310535524E+01 -0.42127685764E+00  0.49590436264E+01  0.00000000000E+00 0.  1.
</event>
<event>
12    1  0.8133506E-002  0.2366672E+03  0.7818608E-02  0.1122049E+00
         21   -1    0    0  501  502  0.00000000000E+00  0.00000000000E+00  0.16593859349E+03  0.16593859349E+03  0.00000000000E+00 0.  1.
         21   -1    0    0  502  503 -0.00000000000E+00 -0.00000000000E+00 -0.40792873161E+03  0.40792873161E+03  0.00000000000E+00 0.  1.
         -6    2    1    2    0  503 -0.16222643098E+03 -0.18602148603E+02 -0.24031556128E+03  0.33728760014E+03  0.17131229195E+03 0.  0.
        -24    2    3    3    0    0 -0.13195719161E+03  0.49617308213E+02 -0.17455486881E+03  0.23770507249E+03  0.78483893677E+02 0.  0.
          6    2    1    2  501    0  0.16222643098E+03  0.18602148603E+02 -0.16745768391E+01  0.23657972497E+03  0.17118325625E+03 0.  0.
         24    2    5    5    0    0  0.78993769764E+02  0.70379761807E+02  0.23393102508E+02  0.13529262969E+03  0.81015627326E+02 0.  0.
          5    1    5    5  501    0  0.83232661211E+02 -0.51777613204E+02 -0.25067679347E+02  0.10128709528E+03  0.47000000000E+01 0. -1.
        -11    1    6    6    0    0  0.79696670465E+02  0.35699797232E+02  0.40908505014E+02  0.96434125641E+02  0.00000000000E+00 0.  1.
         12    1    6    6    0    0 -0.70290070087E+00  0.34679964575E+02 -0.17515402506E+02  0.38858504053E+02  0.00000000000E+00 0. -1.
         -5    1    3    3    0  503 -0.30269239360E+02 -0.68219456817E+02 -0.65760692466E+02  0.99582527651E+02  0.47000000000E+01 0.  1.
         13    1    4    4    0    0  0.54129132253E+01  0.16604159465E+02 -0.35025788926E+02  0.39138263004E+02  0.00000000000E+00 0. -1.
        -14    1    4    4    0    0 -0.13737010484E+03  0.33013148748E+02 -0.13952907989E+03  0.19856680948E+03  0.00000000000E+00 0.  1.
</event>
<event>
12    1  0.8133506E-002  0.2071065E+03  0.7818608E-02  0.1144089E+00
         21   -1    0    0  501  502  0.00000000000E+00  0.00000000000E+00  0.80583453094E+02  0.80583453094E+02  0.00000000000E+00 0.  1.
         21   -1    0    0  502  503 -0.00000000000E+00 -0.00000000000E+00 -0.87302407313E+03  0.87302407313E+03  0.00000000000E+00 0. -1.
         -6    2    1    2    0  503 -0.89291453199E+02 -0.65002559645E+02 -0.69466040511E+03  0.72457894798E+03  0.17396343596E+03 0.  0.
        -24    2    3    3    0    0 -0.27339271732E+02 -0.79123921660E+02 -0.59602913115E+03  0.60715789426E+03  0.79887124268E+02 0.  0.
          6    2    1    2  501    0  0.89291453199E+02  0.65002559645E+02 -0.97780214919E+02  0.22902857824E+03  0.17519938027E+03 0.  0.
         24    2    5    5    0    0  0.70893677224E+02  0.55426316926E+01 -0.12241265703E+03  0.16192560962E+03  0.78602863899E+02 0.  0.
          5    1    5    5  501    0  0.18397775976E+02  0.59459927952E+02  0.24632442113E+02  0.67102968618E+02  0.47000000000E+01 0. -1.
        -11    1    6    6    0    0  0.44948124817E+02  0.41709767338E+02 -0.66434375495E+02  0.90407769928E+02  0.00000000000E+00 0.  1.
         12    1    6    6    0    0  0.25945552407E+02 -0.36167135646E+02 -0.55978281536E+02  0.71517839693E+02  0.00000000000E+00 0. -1.
         -5    1    3    3    0  503 -0.61952181467E+02  0.14121362015E+02 -0.98631273964E+02  0.11742105372E+03  0.47000000000E+01 0.  1.
         11    1    4    4    0    0 -0.18823641968E+02 -0.13398309161E+02 -0.39102551781E+03  0.39170754367E+03  0.00000000000E+00 0. -1.
        -12    1    4    4    0    0 -0.85156297639E+01 -0.65725612499E+02 -0.20500361333E+03  0.21545035059E+03  0.00000000000E+00 0.  1.
</event>
<event>
12    1  0.8133506E-002  0.2038963E+03  0.7818608E-02  0.1150257E+00
         21   -1    0    0  503  502  0.00000000000E+00  0.00000000000E+00  0.59232032291E+03  0.59232032291E+03  0.00000000000E+00 0. -1.
         21   -1    0    0  501  503 -0.00000000000E+00 -0.00000000000E+00 -0.81654376769E+02  0.81654376769E+02  0.00000000000E+00 0. -1.
          6    2    1    2  501    0 -0.38122252573E+02 -0.70194607229E+02  0.10913600277E+03  0.23126683790E+03  0.18759822543E+03 0.  0.
         24    2    3    3    0    0 -0.10064606454E+03 -0.54653712468E+02  0.59296895317E+02  0.14967778774E+03  0.75964858686E+02 0.  0.
         -6    2    1    2    0  502  0.38122252573E+02  0.70194607229E+02  0.40152994336E+03  0.44270786177E+03  0.16847363721E+03 0.  0.
        -24    2    5    5    0    0 -0.17976067369E+02  0.44394014320E+02  0.34868810664E+03  0.36130121707E+03  0.81616213060E+02 0.  0.
          5    1    3    3  501    0  0.62523811970E+02 -0.15540894761E+02  0.49839107458E+02  0.81589050157E+02  0.47000000000E+01 0. -1.
        -13    1    4    4    0    0 -0.30267960814E+02 -0.27685982770E+02  0.61907708577E+02  0.74264577526E+02  0.00000000000E+00 0.  1.
         14    1    4    4    0    0 -0.70378103729E+02 -0.26967729698E+02 -0.26108132605E+01  0.75413210218E+02  0.00000000000E+00 0. -1.
         -5    1    5    5    0  502  0.56098319942E+02  0.25800592909E+02  0.52841836721E+02  0.81406644709E+02  0.47000000000E+01 0.  1.
         11    1    6    6    0    0  0.22345402641E+02  0.53706411742E+01  0.21622964493E+03  0.21744751126E+03  0.00000000000E+00 0. -1.
        -12    1    6    6    0    0 -0.40321470010E+02  0.39023373146E+02  0.13245846171E+03  0.14385370581E+03  0.00000000000E+00 0.  1.
</event>
<event>
12    1  0.8133506E-002  0.1734002E+03  0.7818608E-02  0.1174753E+00
         21   -1    0    0  503  502  0.00000000000E+00  0.00000000000E+00  0.56378722121E+02  0.56378722121E+02  0.00000000000E+00 0. -1.
         21   -1    0    0  501  503 -0.00000000000E+00 -0.00000000000E+00 -0.76454337493E+03  0.76454337493E+03  0.00000000000E+00 0. -1.
          6    2    1    2  501    0  0.15679797172E+02  0.14636568490E+01 -0.58330580896E+03  0.60853374003E+03  0.17268366355E+03 0.  0.
         24    2    3    3    0    0  0.69550706803E+02 -0.10713500279E+02 -0.25349324246E+03  0.27409573818E+03  0.76925742179E+02 0.  0.
         -6    2    1    2    0  502 -0.15679797172E+02 -0.14636568490E+01 -0.12485884386E+03  0.21238835703E+03  0.17108794517E+03 0.  0.
        -24    2    5    5    0    0 -0.41517256992E+02  0.57125327809E+02 -0.66097453364E+02  0.12535253414E+03  0.79733297744E+02 0.  0.
          5    1    3    3  501    0 -0.53870909630E+02  0.12177157128E+02 -0.32981256649E+03  0.33443800184E+03  0.47000000000E+01 0. -1.
        -11    1    4    4    0    0  0.54276155636E+02 -0.41214750255E+02 -0.14211963017E+03  0.15761518324E+03  0.00000000000E+00 0.  1.
         12    1    4    4    0    0  0.15274551167E+02  0.30501249976E+02 -0.11137361229E+03  0.11648055494E+03  0.00000000000E+00 0. -1.
         -5    1    5    5    0  502  0.25837459820E+02 -0.58588984658E+02 -0.58761390491E+02  0.87035822887E+02  0.47000000000E+01 0.  1.
         13    1    6    6    0    0 -0.51551016501E+02  0.73962570309E+01 -0.17077482339E+02  0.54807411208E+02  0.00000000000E+00 0. -1.
        -14    1    6    6    0    0  0.10033759509E+02  0.49729070778E+02 -0.49019971026E+02  0.70545122933E+02  0.00000000000E+00 0.  1.
</event>
<event>
12    1  0.8133506E-002  0.1739631E+03  0.7818608E-02  0.1173949E+00
         21   -1    0    0  503  502  0.00000000000E+00  0.00000000000E+00  0.99130168346E+03  0.99130168346E+03  0.00000000000E+00 0.  1.
         21   -1    0    0  501  503 -0.00000000000E+00 -0.00000000000E+00 -0.34377606644E+02  0.34377606644E+02  0.00000000000E+00 0.  1.
          6    2    1    2  501    0 -0.68257622770E+01 -0.97519400320E+01  0.65186273819E+03  0.67450188553E+03  0.17287588837E+03 0.  0.
         24    2    3    3    0    0 -0.49936960575E+02 -0.51539264038E+02  0.32734939876E+03  0.34444771826E+03  0.79602801302E+02 0.  0.
         -6    2    1    2    0  502  0.68257622770E+01  0.97519400320E+01  0.30506133862E+03  0.35117740457E+03  0.17355534504E+03 0.  0.
        -24    2    5    5    0    0 -0.26287696092E+02  0.59731815191E+02  0.22295376487E+03  0.24940200129E+03  0.90741634677E+02 0.  0.
          5    1    3    3  501    0  0.43111198298E+02  0.41787324006E+02  0.32451333943E+03  0.33005416727E+03  0.47000000000E+01 0. -1.
        -11    1    4    4    0    0 -0.18434034600E+02 -0.41062515729E+02  0.29387461568E+03  0.29730158690E+03  0.00000000000E+00 0.  1.
         12    1    4    4    0    0 -0.31502925975E+02 -0.10476748309E+02  0.33474783080E+02  0.47146131362E+02  0.00000000000E+00 0. -1.
         -5    1    5    5    0  502  0.33113458369E+02 -0.49979875159E+02  0.82107573751E+02  0.10177540328E+03  0.47000000000E+01 0.  1.
         11    1    6    6    0    0 -0.19059717325E+02 -0.43580220468E+01  0.15303543772E+03  0.15427932583E+03  0.00000000000E+00 0. -1.
        -12    1    6    6    0    0 -0.72279787674E+01  0.64089837238E+02  0.69918327151E+02  0.95122675456E+02  0.00000000000E+00 0.  1.
</event>
<event>
12    1  0.8133506E-002  0.2760264E+03  0.7818608E-02  0.1097989E+00
         21   -1    0    0  503  502  0.00000000000E+00  0.00000000000E+00  0.14847748308E+03  0.14847748308E+03  0.00000000000E+00 0. -1.
         21   -1    0    0  501  503 -0.00000000000E+00 -0.00000000000E+00 -0.52415623940E+03  0.52415623940E+03  0.00000000000E+00 0.  1.
          6    2    1    2  501    0 -0.18269229411E+03 -0.11307663620E+03 -0.13570610018E+03  0.30687773261E+03  0.17203196552E+03 0.  0.
         24    2    3    3    0    0 -0.96063444816E+02 -0.10893404237E+03 -0.23316766106E+02  0.16483840345E+03  0.74385594394E+02 0.  0.
         -6    2    1    2    0  502  0.18269229411E+03  0.11307663620E+03 -0.23997265614E+03  0.36575598988E+03  0.17328522285E+03 0.  0.
        -24    2    5    5    0    0  0.14100888323E+03  0.78916752534E+02 -0.24870857437E+03  0.31095808242E+03  0.93421705597E+02 0.  0.
          5    1    3    3  501    0 -0.86628849290E+02 -0.41425938353E+01 -0.11238933408E+03  0.14203932916E+03  0.47000000000E+01 0. -1.
        -11    1    4    4    0    0  0.14227543981E+01  0.55409485196E+01  0.93590898115E+01  0.10968997341E+02  0.00000000000E+00 0.  1.
         12    1    4    4    0    0 -0.97486199214E+02 -0.11447499089E+03 -0.32675855917E+02  0.15386940611E+03  0.00000000000E+00 0. -1.
         -5    1    5    5    0  502  0.41683410881E+02  0.34159883669E+02  0.87359182320E+01  0.54797907463E+02  0.47000000000E+01 0.  1.
         11    1    6    6    0    0  0.44387216775E+02  0.29830750983E+02 -0.18628432919E+02  0.56631415577E+02  0.00000000000E+00 0. -1.
        -12    1    6    6    0    0  0.96621666450E+02  0.49086001550E+02 -0.23008014145E+03  0.25432666684E+03  0.00000000000E+00 0.  1.
</event>
<event>
12    1  0.8133506E-002  0.2532751E+03  0.7818608E-02  0.1111576E+00
         21   -1    0    0  501  502  0.00000000000E+00  0.00000000000E+00  0.20715939705E+04  0.20715939705E+04  0.00000000000E+00 0.  1.
         21   -1    0    0  502  503 -0.00000000000E+00 -0.00000000000E+00 -0.38515490987E+02  0.38515490987E+02  0.00000000000E+00 0.  1.
         -6    2    1    2    0  503  0.71727611158E+02 -0.17248058729E+03  0.53831843962E+03  0.59404355498E+03  0.16794820507E+03 0.  0.
        -24    2    3    3    0    0  0.93172436722E+02 -0.18016093336E+03  0.51763518573E+03  0.56291872164E+03  0.88273647200E+02 0.  0.
          6    2    1    2  501    0 -0.71727611158E+02  0.17248058729E+03  0.14947600399E+04  0.15160659065E+04  0.17103757719E+03 0.  0.
         24    2    5    5    0    0 -0.72268366291E+02  0.12423856665E+03  0.13996716472E+04  0.14093350422E+04  0.80539449865E+02 0.  0.
          5    1    5    5  501    0  0.54075513309E+00  0.48242020638E+02  0.95088392733E+02  0.10673086435E+03  0.47000000000E+01 0. -1.
        -11    1    6    6    0    0 -0.59378121150E+02  0.74294167456E+02  0.11738860441E+04  0.11777324947E+04  0.00000000000E+00 0.  1.
         12    1    6    6    0    0 -0.12890245141E+02  0.49944399196E+02  0.22578560307E+03  0.23160254745E+03  0.00000000000E+00 0. -1.
         -5    1    3    3    0  503 -0.21444825565E+02  0.76803460731E+01  0.20683253893E+02  0.31124833347E+02  0.47000000000E+01 0.  1.
         13    1    4    4    0    0 -0.12348076604E+02 -0.52435846189E+02  0.15866906099E+03  0.16756450662E+03  0.00000000000E+00 0. -1.
        -14    1    4    4    0    0  0.10552051333E+03 -0.12772508717E+03  0.35896612473E+03  0.39535421502E+03  0.00000000000E+00 0.  1.
</event>
<event>
12    1  0.8133506E-002  0.1933028E+03  0.7818608E-02  0.1156450E+00
         21   -1    0    0  503  502  0.00000000000E+00  0.00000000000E+00  0.17021123168E+03  0.17021123168E+03  0.00000000000E+00 0.  1.
         21   -1    0    0  501  503 -0.00000000000E+00 -0.00000000000E+00 -0.27552089398E+03  0.27552089398E+03  0.00000000000E+00 0.  1.
          6    2    1    2  501    0  0.45042826044E+02  0.75666927200E+02 -0.15682668851E+03  0.24568220880E+03  0.16736426573E+03 0.  0.
         24    2    3    3    0    0  0.21100340650E+02  0.54702808932E+02 -0.16275845855E+02  0.10149702845E+03  0.81234979817E+02 0.  0.
         -6    2    1    2    0  502 -0.45042826044E+02 -0.75666927200E+02  0.51517026211E+02  0.20004991686E+03  0.17208028707E+03 0.  0.
        -24    2    5    5    0    0  0.23455133198E+02 -0.65895547953E+02 -0.10712630855E+02  0.10687228816E+03  0.80090942078E+02 0.  0.
          5    1    3    3  501    0  0.23942485395E+02  0.20964118268E+02 -0.14055084265E+03  0.14418518035E+03  0.47000000000E+01 0. -1.
        -11    1    4    4    0    0  0.45195261006E+02  0.14422865382E+02  0.88487981963E+01  0.48259008410E+02  0.00000000000E+00 0.  1.
         12    1    4    4    0    0 -0.24094920356E+02  0.40279943550E+02 -0.25124644051E+02  0.53238020042E+02  0.00000000000E+00 0. -1.
         -5    1    5    5    0  502 -0.68497959242E+02 -0.97713792473E+01  0.62229657066E+02  0.93177628706E+02  0.47000000000E+01 0.  1.
         13    1    6    6    0    0 -0.21888042884E+01 -0.24008708584E+02 -0.42151137748E+02  0.48558494268E+02  0.00000000000E+00 0. -1.
        -14    1    6    6    0    0  0.25643937486E+02 -0.41886839369E+02  0.31438506894E+02  0.58313793890E+02  0.00000000000E+00 0.  1.
</event>
<event>
12    1  0.8133506E-002  0.2218870E+03  0.7818608E-02  0.1132830E+00
         21   -1    0    0  503  502  0.00000000000E+00  0.00000000000E+00  0.16834366619E+03  0.16834366619E+03  0.00000000000E+00 0.  1.
         21   -1    0    0  501  503 -0.00000000000E+00 -0.00000000000E+00 -0.31359015612E+03  0.31359015612E+03  0.00000000000E+00 0.  1.
          6    2    1    2  501    0 -0.59507903197E+02  0.12390076597E+03 -0.68209736340E+01  0.22199182445E+03  0.17418741083E+03 0.  0.
         24    2    3    3    0    0 -0.11387854554E+03  0.90743803743E+02 -0.12967292725E+01  0.15789690914E+03  0.61049089738E+02 0.  0.
         -6    2    1    2    0  502  0.59507903197E+02 -0.12390076597E+03 -0.13842551629E+03  0.25994199786E+03  0.17180113021E+03 0.  0.
        -24    2    5    5    0    0 -0.33202277258E+02 -0.59651808627E+02 -0.47919582939E+02  0.11524742280E+03  0.79529570261E+02 0.  0.
          5    1    3    3  501    0  0.54370642340E+02  0.33156962222E+02 -0.55242443614E+01  0.64094915306E+02  0.47000000000E+01 0. -1.
        -13    1    4    4    0    0 -0.88809229759E+02  0.74692482443E+02 -0.26340998683E+02  0.11899535468E+03  0.00000000000E+00 0.  1.
         14    1    4    4    0    0 -0.25069315778E+02  0.16051321299E+02  0.25044269411E+02  0.38901554459E+02  0.00000000000E+00 0. -1.
         -5    1    5    5    0  502  0.92710180454E+02 -0.64248957338E+02 -0.90505933356E+02  0.14469457506E+03  0.47000000000E+01 0.  1.
         13    1    6    6    0    0 -0.24247275271E+02 -0.34992756429E+02 -0.69348369385E+02  0.81373335295E+02  0.00000000000E+00 0. -1.
        -14    1    6    6    0    0 -0.89550019867E+01 -0.24659052198E+02  0.21428786447E+02  0.33874087507E+02  0.00000000000E+00 0.  1.
</event>
<event>
12    1  0.8133506E-002  0.1915776E+03  0.7818608E-02  0.1157087E+00
         21   -1    0    0  501  502  0.00000000000E+00  0.00000000000E+00  0.15001526384E+03  0.15001526384E+03  0.00000000000E+00 0.  1.
         21   -1    0    0  502  503 -0.00000000000E+00 -0.00000000000E+00 -0.29646711033E+03  0.29646711033E+03  0.00000000000E+00 0.  1.
         -6    2    1    2    0  503 -0.57328532860E+02  0.67528842426E+02 -0.16673490023E+03  0.25383403600E+03  0.16965991169E+03 0.  0.
        -24    2    3    3    0    0 -0.37013035768E+00  0.11974439633E+02 -0.16397286772E+02  0.83675171091E+02  0.81173511952E+02 0.  0.
          6    2    1    2  501    0  0.57328532860E+02 -0.67528842426E+02  0.20283053737E+02  0.19264833817E+03  0.16986840404E+03 0.  0.
         24    2    5    5    0    0 -0.20417422224E+02 -0.32367672579E+02 -0.29926069723E+02  0.93533316731E+02  0.79927306543E+02 0.  0.
          5    1    5    5  501    0  0.77745955084E+02 -0.35161169847E+02  0.50209123460E+02  0.99115021442E+02  0.47000000000E+01 0. -1.
        -13    1    6    6    0    0  0.28360552123E+02 -0.13559271458E+02 -0.26548019683E+02  0.41145742286E+02  0.00000000000E+00 0.  1.
         14    1    6    6    0    0 -0.48777974347E+02 -0.18808401121E+02 -0.33780500404E+01  0.52387574445E+02  0.00000000000E+00 0. -1.
         -5    1    3    3    0  503 -0.56958402502E+02  0.55554402793E+02 -0.15033761346E+03  0.17015886491E+03  0.47000000000E+01 0.  1.
         13    1    4    4    0    0  0.25028701205E+02  0.35566312627E+02 -0.21705597317E+02  0.48605878583E+02  0.00000000000E+00 0. -1.
        -14    1    4    4    0    0 -0.25398831563E+02 -0.23591872995E+02  0.53083105450E+01  0.35069292508E+02  0.00000000000E+00 0.  1.
</event>
<event>
12    1  0.8133506E-002  0.2530621E+03  0.7818608E-02  0.1112078E+00
         21   -1    0    0  503  502  0.00000000000E+00  0.00000000000E+00  0.16404653070E+04  0.16404653070E+04  0.00000000000E+00 0. -1.
         21   -1    0    0  501  503 -0.00000000000E+00 -0.00000000000E+00 -0.47066319129E+02  0.47066319129E+02  0.00000000000E+00 0. -1.
          6    2    1    2  501    0 -0.17513918781E+03  0.62489750559E+02  0.43952025717E+03  0.50716711221E+03  0.17164416451E+03 0.  0.
         24    2    3    3    0    0 -0.15023468201E+03 -0.49313931408E+00  0.22011323930E+03  0.27749646037E+03  0.77354667195E+02 0.  0.
         -6    2    1    2    0  502  0.17513918781E+03 -0.62489750559E+02  0.11538787307E+04  0.11803645139E+04  0.16506228075E+03 0.  0.
        -24    2    5    5    0    0  0.14972891083E+03 -0.10269766799E+03  0.85040134833E+03  0.87314639855E+03  0.78972288246E+02 0.  0.
          5    1    3    3  501    0 -0.24904505798E+02  0.62982889873E+02  0.21940701787E+03  0.22967065184E+03  0.47000000000E+01 0. -1.
        -13    1    4    4    0    0 -0.39611469470E+02 -0.35058179724E+02  0.63037556139E+02  0.82291420957E+02  0.00000000000E+00 0.  1.
         14    1    4    4    0    0 -0.11062321254E+03  0.34565040409E+02  0.15707568316E+03  0.19520503942E+03  0.00000000000E+00 0. -1.
         -5    1    5    5    0  502  0.25410276976E+02  0.40207917432E+02  0.30347738232E+03  0.30721811532E+03  0.47000000000E+01 0.  1.
         13    1    6    6    0    0  0.12722398384E+03 -0.58954491924E+02  0.49929768049E+03  0.51861329324E+03  0.00000000000E+00 0. -1.
        -14    1    6    6    0    0  0.22504926997E+02 -0.43743176067E+02  0.35110366784E+03  0.35453310531E+03  0.00000000000E+00 0.  1.
</event>
<event>
12    1  0.8133506E-002  0.1904933E+03  0.7818608E-02  0.1158844E+00
         21   -1    0    0  503  502  0.00000000000E+00  0.00000000000E+00  0.24130024213E+03  0.24130024213E+03  0.00000000000E+00 0. -1.
         21   -1    0    0  501  503 -0.00000000000E+00 -0.00000000000E+00 -0.16642824937E+03  0.16642824937E+03  0.00000000000E+00 0.  1.
          6    2    1    2  501    0  0.16526018335E+01 -0.72960982778E+02  0.10582318984E+03  0.21473711479E+03  0.17201001384E+03 0.  0.
         24    2    3    3    0    0 -0.23683335013E+02 -0.11188897355E+03  0.69597902804E+02  0.15564684840E+03  0.79385329775E+02 0.  0.
         -6    2    1    2    0  502 -0.16526018335E+01  0.72960982778E+02 -0.30951197073E+02  0.19299137671E+03  0.17595925319E+03 0.  0.
        -24    2    5    5    0    0  0.97720396244E+01 -0.29984781258E+02 -0.11272601205E+02  0.87456122407E+02  0.80789367760E+02 0.  0.
          5    1    3    3  501    0  0.25335936846E+02  0.38927990771E+02  0.36225287033E+02  0.59090266389E+02  0.47000000000E+01 0. -1.
        -11    1    4    4    0    0  0.50727224269E+01 -0.81877577010E+02  0.95096610455E+01  0.82583919639E+02  0.00000000000E+00 0.  1.
         12    1    4    4    0    0 -0.28756057439E+02 -0.30011396539E+02  0.60088241758E+02  0.73062928762E+02  0.00000000000E+00 0. -1.
         -5    1    5    5    0  502 -0.11424641458E+02  0.10294576404E+03 -0.19678595868E+02  0.10553525430E+03  0.47000000000E+01 0.  1.
         11    1    6    6    0    0  0.33531658003E+01  0.18098203970E+02  0.21960972808E+02  0.28654371997E+02  0.00000000000E+00 0. -1.
        -12    1    6    6    0    0  0.64188738242E+01 -0.48082985228E+02 -0.33233574014E+02  0.58801750410E+02  0.00000000000E+00 0.  1.
</event>
<event>
12    1  0.8133506E-002  0.2126699E+03  0.7818608E-02  0.1139588E+00
         21   -1    0    0  503  502  0.00000000000E+00  0.00000000000E+00  0.41494669941E+03  0.41494669941E+03  0.00000000000E+00 0.  1.
         21   -1    0    0  501  503 -0.00000000000E+00 -0.00000000000E+00 -0.13400521178E+03  0.13400521178E+03  0.00000000000E+00 0.  1.
          6    2    1    2  501    0 -0.51792902741E+02  0.11354407067E+03  0.21324399430E+02  0.21373636387E+03  0.17220262039E+03 0.  0.
         24    2    3    3    0    0 -0.76697758700E+02  0.12087786834E+03  0.52732518367E+02  0.17271690051E+03  0.80971624562E+02 0.  0.
         -6    2    1    2    0  502  0.51792902741E+02 -0.11354407067E+03  0.25961708820E+03  0.33521554732E+03  0.17144582212E+03 0.  0.
        -24    2    5    5    0    0  0.31197397096E+02 -0.14103346817E+03  0.16056975823E+03  0.23027601519E+03  0.79879153640E+02 0.  0.
          5    1    3    3  501    0  0.24904855958E+02 -0.73337976722E+01 -0.31408118938E+02  0.41019463354E+02  0.47000000000E+01 0. -1.
        -13    1    4    4    0    0 -0.47756077849E+02  0.11933663307E+03  0.21880034383E+02  0.13038639066E+03  0.00000000000E+00 0.  1.
         14    1    4    4    0    0 -0.28941680850E+02  0.15412352747E+01  0.30852483985E+02  0.42330509856E+02  0.00000000000E+00 0. -1.
         -5    1    5    5    0  502  0.20595505646E+02  0.27489397504E+02  0.99047329974E+02  0.10493953213E+03  0.47000000000E+01 0.  1.
         13    1    6    6    0    0 -0.51552867140E+01 -0.28241069742E+02 -0.23627443063E+01  0.28804818380E+02  0.00000000000E+00 0. -1.
        -14    1    6    6    0    0  0.36352683810E+02 -0.11279239843E+03  0.16293250253E+03  0.20147119681E+03  0.00000000000E+00 0.  1.
</event>
<event>
12    1  0.8133506E-002  0.1789820E+03  0.7818608E-02  0.1169015E+00
         21   -1    0    0  503  502  0.00000000000E+00  0.00000000000E+00  0.17669376949E+03  0.17669376949E+03  0.00000000000E+00 0.  1.
         21   -1    0    0  501  503 -0.00000000000E+00 -0.00000000000E+00 -0.28618099504E+03  0.28618099504E+03  0.00000000000E+00 0.  1.
          6    2    1    2  501    0  0.35057565304E+02  0.30120944119E+02 -0.19537705193E+03  0.26435120073E+03  0.17196819690E+03 0.  0.
         24    2    3    3    0    0  0.65900069483E+02  0.66991945799E+02 -0.16513017163E+03  0.20736265278E+03  0.83069586654E+02 0.  0.
         -6    2    1    2    0  502 -0.35057565304E+02 -0.30120944119E+02  0.85889826382E+02  0.19852356379E+03  0.17291107236E+03 0.  0.
        -24    2    5    5    0    0 -0.38856416751E+02 -0.47719478967E+02  0.12175301303E+03  0.15812062012E+03  0.79946010080E+02 0.  0.
          5    1    3    3  501    0 -0.30842504179E+02 -0.36871001680E+02 -0.30246880303E+02  0.56988547946E+02  0.47000000000E+01 0. -1.
        -11    1    4    4    0    0  0.66347670974E+02  0.34411099425E+02 -0.55778795063E+02  0.93259911999E+02  0.00000000000E+00 0.  1.
         12    1    4    4    0    0 -0.44760149048E+00  0.32580846374E+02 -0.10935137657E+03  0.11410274078E+03  0.00000000000E+00 0. -1.
         -5    1    5    5    0  502  0.37988514471E+01  0.17598534848E+02 -0.35863186651E+02  0.40402943678E+02  0.47000000000E+01 0.  1.
         13    1    6    6    0    0  0.23888570313E+02 -0.14382033318E+02  0.21342835580E+02  0.35114431571E+02  0.00000000000E+00 0. -1.
        -14    1    6    6    0    0 -0.62744987065E+02 -0.33337445649E+02  0.10041017745E+03  0.12300618854E+03  0.00000000000E+00 0.  1.
</event>
<event>
12    1  0.8133506E-002  0.1939937E+03  0.7818608E-02  0.1155710E+00
         21   -1    0    0  503  502  0.00000000000E+00  0.00000000000E+00  0.58355643860E+03  0.58355643860E+03  0.00000000000E+00 0. -1.
         21   -1    0    0  501  503 -0.00000000000E+00 -0.00000000000E+00 -0.13014077903E+03  0.13014077903E+03  0.00000000000E+00 0. -1.
          6    2    1    2  501    0 -0.77734270746E+02 -0.17243215728E+02 -0.28002770599E+02  0.19600436228E+03  0.17689999868E+03 0.  0.
         24    2    3    3    0    0 -0.10369057308E+03 -0.13845544031E+02 -0.68406111967E+02  0.14763294719E+03  0.78566258066E+02 0.  0.
         -6    2    1    2    0  502  0.77734270746E+02  0.17243215728E+02  0.48141843017E+03  0.51769285535E+03  0.17292264815E+03 0.  0.
        -24    2    5    5    0    0  0.70208077001E+02 -0.51736903953E+02  0.36636779451E+03  0.38325461947E+03  0.71083480360E+02 0.  0.
          5    1    3    3  501    0  0.25956302337E+02 -0.33976716971E+01  0.40403341368E+02  0.48371415088E+02  0.47000000000E+01 0. -1.
        -13    1    4    4    0    0  0.18974147817E+01 -0.17780360640E+02  0.54785552435E+01  0.18701763952E+02  0.00000000000E+00 0.  1.
         14    1    4    4    0    0 -0.10558798786E+03  0.39348166089E+01 -0.73884667210E+02  0.12893118324E+03  0.00000000000E+00 0. -1.
         -5    1    5    5    0  502  0.75261937446E+01  0.68980119681E+02  0.11505063565E+03  0.13443823589E+03  0.47000000000E+01 0.  1.
         11    1    6    6    0    0  0.20557818272E+02 -0.34959374660E+02  0.59900226884E+02  0.72338226060E+02  0.00000000000E+00 0. -1.
        -12    1    6    6    0    0  0.49650258729E+02 -0.16777529292E+02  0.30646756763E+03  0.31091639341E+03  0.00000000000E+00 0.  1.
</event>
<event>
12    1  0.8133506E-002  0.1860824E+03  0.7818608E-02  0.1162549E+00
         21   -1    0    0  501  502  0.00000000000E+00  0.00000000000E+00  0.18120011811E+03  0.18120011811E+03  0.00000000000E+00 0. -1.
         21   -1    0    0  502  503 -0.00000000000E+00 -0.00000000000E+00 -0.22405865160E+03  0.22405865160E+03  0.00000000000E+00 0. -1.
         -6    2    1    2    0  503 -0.65508563753E+02 -0.21608163245E+02 -0.10182917558E+03  0.21212220543E+03  0.17282466373E+03 0.  0.
        -24    2    3    3    0    0 -0.67875215490E+02 -0.30897774387E+02 -0.13725088326E+03  0.17512645849E+03  0.79181779268E+02 0.  0.
          6    2    1    2  501    0  0.65508563753E+02  0.21608163245E+02  0.58970642084E+02  0.19313656429E+03  0.17048727575E+03 0.  0.
         24    2    5    5    0    0  0.86910533592E+02  0.52799392527E+02  0.78115654427E+02  0.15048027993E+03  0.78746698230E+02 0.  0.
          5    1    5    5  501    0 -0.21401969839E+02 -0.31191229283E+02 -0.19145012343E+02  0.42656284353E+02  0.47000000000E+01 0. -1.
        -13    1    6    6    0    0  0.80813359543E+02  0.32875486275E+02  0.21075860972E+02  0.89754045001E+02  0.00000000000E+00 0.  1.
         14    1    6    6    0    0  0.60971740495E+01  0.19923906252E+02  0.57039793455E+02  0.60726234933E+02  0.00000000000E+00 0. -1.
         -5    1    3    3    0  503  0.23666517369E+01  0.92896111425E+01  0.35421707687E+02  0.36995746932E+02  0.47000000000E+01 0.  1.
         13    1    4    4    0    0 -0.75889545511E+02 -0.20785052271E+01 -0.11519373819E+03  0.13796064881E+03  0.00000000000E+00 0. -1.
        -14    1    4    4    0    0  0.80143300212E+01 -0.28819269160E+02 -0.22057145071E+02  0.37165809681E+02  0.00000000000E+00 0.  1.
</event>
<event>
12    1  0.8133506E-002  0.1777834E+03  0.7818608E-02  0.1170911E+00
         21   -1    0    0  503  502  0.00000000000E+00  0.00000000000E+00  0.38163935618E+02  0.38163935618E+02  0.00000000000E+00 0. -1.
         21   -1    0    0  501  503 -0.00000000000E+00 -0.00000000000E+00 -0.82264413556E+03  0.82264413556E+03  0.00000000000E+00 0. -1.
          6    2    1    2  501    0 -0.13212265773E+02  0.29203635547E+02 -0.34428695867E+03  0.38747962022E+03  0.17487003711E+03 0.  0.
         24    2    3    3    0    0 -0.20716577026E+02  0.85799045086E+02 -0.25893529999E+03  0.28468686411E+03  0.78793834253E+02 0.  0.
         -6    2    1    2    0  502  0.13212265773E+02 -0.29203635547E+02 -0.44019324127E+03  0.47332845096E+03  0.17100384946E+03 0.  0.
        -24    2    5    5    0    0  0.49547655415E+02  0.18462748624E+02 -0.36489528416E+03  0.37697380880E+03  0.78516500656E+02 0.  0.
          5    1    3    3  501    0  0.75043112532E+01 -0.56595409539E+02 -0.85351658681E+02  0.10279275611E+03  0.47000000000E+01 0. -1.
        -11    1    4    4    0    0 -0.44154364620E+02  0.80699016536E+02 -0.22547077944E+03  0.24351388372E+03  0.00000000000E+00 0.  1.
         12    1    4    4    0    0  0.23437787594E+02  0.51000285499E+01 -0.33464520552E+02  0.41172980391E+02  0.00000000000E+00 0. -1.
         -5    1    5    5    0  502 -0.36335389642E+02 -0.47666384171E+02 -0.75297957110E+02  0.96354642158E+02  0.47000000000E+01 0.  1.
         13    1    6    6    0    0  0.26132866922E+02  0.47364264215E+02 -0.16481826660E+03  0.17346861752E+03  0.00000000000E+00 0. -1.
        -14    1    6    6    0    0  0.23414788493E+02 -0.28901515591E+02 -0.20007701756E+03  0.20350519128E+03  0.00000000000E+00 0.  1.
</event>
<event>
12    1  0.8133506E-002  0.1726550E+03  0.7818608E-02  0.1175121E+00
         21   -1    0    0  503  502  0.00000000000E+00  0.00000000000E+00  0.42713313724E+02  0.42713313724E+02  0.00000000000E+00 0. -1.
         21   -1    0    0  501  503 -0.00000000000E+00 -0.00000000000E+00 -0.14489449339E+04  0.14489449339E+04  0.00000000000E+00 0. -1.
          6    2    1    2  501    0  0.63857326615E+01 -0.14580314871E+02 -0.12402142918E+04  0.12521746058E+04  0.17191972130E+03 0.  0.
         24    2    3    3    0    0 -0.18178273060E+02 -0.56772875974E+02 -0.47437278387E+03  0.48476408469E+03  0.80081650017E+02 0.  0.
         -6    2    1    2    0  502 -0.63857326615E+01  0.14580314871E+02 -0.16601732834E+03  0.23948364182E+03  0.17186418542E+03 0.  0.
        -24    2    5    5    0    0 -0.57625179246E+02  0.45711584818E+02 -0.12687645470E+03  0.16772895665E+03  0.81395072778E+02 0.  0.
          5    1    3    3  501    0  0.24564005722E+02  0.42192561104E+02 -0.76584150795E+03  0.76741052109E+03  0.47000000000E+01 0. -1.
        -11    1    4    4    0    0 -0.30450159989E+02 -0.66322718710E+01 -0.64289895702E+02  0.71445013562E+02  0.00000000000E+00 0.  1.
         12    1    4    4    0    0  0.12271886929E+02 -0.50140604103E+02 -0.41008288817E+03  0.41331907113E+03  0.00000000000E+00 0. -1.
         -5    1    5    5    0  502  0.51239446585E+02 -0.31131269947E+02 -0.39140873640E+02  0.71754685172E+02  0.47000000000E+01 0.  1.
         11    1    6    6    0    0 -0.71233199922E+02  0.16758107791E+02 -0.64149283409E+02  0.97314610978E+02  0.00000000000E+00 0. -1.
        -12    1    6    6    0    0  0.13608020676E+02  0.28953477026E+02 -0.62727171287E+02  0.70414345671E+02  0.00000000000E+00 0.  1.
</event>
<event>
12    1  0.8133506E-002  0.1974993E+03  0.7818608E-02  0.1152144E+00
         21   -1    0    0  501  502  0.00000000000E+00  0.00000000000E+00  0.11502314113E+03  0.11502314113E+03  0.00000000000E+00 0. -1.
         21   -1    0    0  502  503 -0.00000000000E+00 -0.00000000000E+00 -0.33698230193E+03  0.33698230193E+03  0.00000000000E+00 0.  1.
         -6    2    1    2    0  503 -0.94089544039E+02  0.81698188537E+01 -0.10787989815E+03  0.22504232922E+03  0.17345428585E+03 0.  0.
        -24    2    3    3    0    0  0.17925107374E+02 -0.13404811235E+02 -0.46298363943E+02  0.95322931484E+02  0.80261599313E+02 0.  0.
          6    2    1    2  501    0  0.94089544039E+02 -0.81698188537E+01 -0.11407926265E+03  0.22696311383E+03  0.17198426857E+03 0.  0.
         24    2    5    5    0    0  0.69866121788E+02 -0.17525347947E+02  0.22462634662E+01  0.10768185740E+03  0.80012023586E+02 0.  0.
          5    1    5    5  501    0  0.24223422251E+02  0.93555290930E+01 -0.11632552612E+03  0.11928125644E+03  0.47000000000E+01 0. -1.
        -13    1    6    6    0    0  0.43925399968E+02  0.25406655518E+02  0.19898592407E+02  0.54505897724E+02  0.00000000000E+00 0.  1.
         14    1    6    6    0    0  0.25940721820E+02 -0.42932003464E+02 -0.17652328941E+02  0.53175959672E+02  0.00000000000E+00 0. -1.
         -5    1    3    3    0  503 -0.11201465141E+03  0.21574630088E+02 -0.61581534203E+02  0.12971939774E+03  0.47000000000E+01 0.  1.
         11    1    4    4    0    0  0.46085576874E+02  0.54227316516E+01 -0.13878748169E+02  0.48434554454E+02  0.00000000000E+00 0. -1.
        -12    1    4    4    0    0 -0.28160469500E+02 -0.18827542886E+02 -0.32419615774E+02  0.46888377030E+02  0.00000000000E+00 0.  1.
</event>
<event>
12    1  0.8133506E-002  0.2449320E+03  0.7818608E-02  0.1116766E+00
         21   -1    0    0  503  502  0.00000000000E+00  0.00000000000E+00  0.25190427065E+03  0.25190427065E+03  0.00000000000E+00 0.  1.
         21   -1    0    0  501  503 -0.00000000000E+00 -0.00000000000E+00 -0.27480858586E+03  0.27480858586E+03  0.00000000000E+00 0. -1.
          6    2    1    2  501    0 -0.71461018862E+02  0.15902697039E+03  0.86378597227E+02  0.25971701375E+03  0.17203316728E+03 0.  0.
         24    2    3    3    0    0 -0.66170901500E+02  0.14836262505E+03  0.12392518260E+03  0.22004902066E+03  0.81694944111E+02 0.  0.
         -6    2    1    2    0  502  0.71461018862E+02 -0.15902697039E+03 -0.10928291244E+03  0.26699584275E+03  0.17014044366E+03 0.  0.
        -24    2    5    5    0    0 -0.72710881560E+01 -0.13414878245E+03 -0.46850679043E+02  0.16337372795E+03  0.80294609405E+02 0.  0.
          5    1    3    3  501    0 -0.52901173627E+01  0.10664345337E+02 -0.37546585369E+02  0.39667993094E+02  0.47000000000E+01 0. -1.
        -13    1    4    4    0    0 -0.55372916537E+02  0.11708851899E+03  0.49602970231E+02  0.13869511823E+03  0.00000000000E+00 0.  1.
         14    1    4    4    0    0 -0.10797984963E+02  0.31274106059E+02  0.74322212365E+02  0.81353902426E+02  0.00000000000E+00 0. -1.
         -5    1    5    5    0  502  0.78732107018E+02 -0.24878187934E+02 -0.62432233395E+02  0.10362211481E+03  0.47000000000E+01 0.  1.
         13    1    6    6    0    0  0.26691925325E+02 -0.77576720723E+02 -0.52093187188E+02  0.97181822514E+02  0.00000000000E+00 0. -1.
        -14    1    6    6    0    0 -0.33963013481E+02 -0.56572061730E+02  0.52425081448E+01  0.66191905432E+02  0.00000000000E+00 0.  1.
</event>
<event>
12    1  0.8133506E-002  0.2366844E+03  0.7818608E-02  0.1122325E+00
         21   -1    0    0  503  502  0.00000000000E+00  0.00000000000E+00  0.36293726160E+02  0.36293726160E+02  0.00000000000E+00 0.  1.
         21   -1    0    0  501  503 -0.00000000000E+00 -0.00000000000E+00 -0.16904314355E+04  0.16904314355E+04  0.00000000000E+00 0.  1.
          6    2    1    2  501    0 -0.74731282696E+02 -0.14360243837E+03 -0.10942983872E+04  0.11196019150E+04  0.17266459671E+03 0.  0.
         24    2    3    3    0    0 -0.27250398065E+02 -0.24528317504E+02 -0.69576042667E+03  0.70092820358E+03  0.76639106811E+02 0.  0.
         -6    2    1    2    0  502  0.74731282696E+02  0.14360243837E+03 -0.55983932221E+03  0.60712324672E+03  0.17021205917E+03 0.  0.
        -24    2    5    5    0    0  0.57192406532E+02  0.11080055701E+03 -0.54952536062E+03  0.56823824444E+03  0.73272407382E+02 0.  0.
          5    1    3    3  501    0 -0.47480884631E+02 -0.11907412087E+03 -0.39853796048E+03  0.41867371140E+03  0.47000000000E+01 0. -1.
        -11    1    4    4    0    0  0.17997221397E+02 -0.20404096270E+02 -0.46156362265E+03  0.46236479632E+03  0.00000000000E+00 0.  1.
         12    1    4    4    0    0 -0.45247619462E+02 -0.41242212337E+01 -0.23419680402E+03  0.23856340726E+03  0.00000000000E+00 0. -1.
         -5    1    5    5    0  502  0.17538876164E+02  0.32801881365E+02 -0.10313961593E+02  0.38885002275E+02  0.47000000000E+01 0.  1.
         11    1    6    6    0    0  0.19188541756E+02  0.23193221565E+02 -0.29252037387E+03  0.29406511998E+03  0.00000000000E+00 0. -1.
        -12    1    6    6    0    0  0.38003864776E+02  0.87607335444E+02 -0.25700498675E+03  0.27417312446E+03  0.00000000000E+00 0.  1.
</event>
<event>
12    1  0.8133506E-002  0.1827519E+03  0.7818608E-02  0.1169346E+00
         21   -1    0    0  501  502  0.00000000000E+00  0.00000000000E+00  0.41684461584E+03  0.41684461584E+03  0.00000000000E+00 0. -1.
         21   -1    0    0  502  503 -0.00000000000E+00 -0.00000000000E+00 -0.19963247820E+03  0.19963247820E+03  0.00000000000E+00 0. -1.
         -6    2    1    2    0  503  0.32137784175E+02 -0.52809783707E+02 -0.13873992549E+03  0.21635195676E+03  0.15407041196E+03 0.  0.
        -24    2    3    3    0    0  0.26711981301E+02 -0.20614634866E+02 -0.16121843612E+02  0.89374592838E+02  0.81175186404E+02 0.  0.
          6    2    1    2  501    0 -0.32137784175E+02  0.52809783707E+02  0.35595206313E+03  0.40012513728E+03  0.17197832366E+03 0.  0.
         24    2    5    5    0    0  0.25487963133E+02  0.83302674840E+02  0.24193199495E+03  0.26869755605E+03  0.77963546238E+02 0.  0.
          5    1    5    5  501    0 -0.57625747308E+02 -0.30492891132E+02  0.11402006817E+03  0.13142758123E+03  0.47000000000E+01 0. -1.
        -11    1    6    6    0    0  0.21847360668E+01 -0.15232658158E+02  0.26183505569E+02  0.30370757484E+02  0.00000000000E+00 0.  1.
         12    1    6    6    0    0  0.23303227066E+02  0.98535332998E+02  0.21574848938E+03  0.23832679856E+03  0.00000000000E+00 0. -1.
         -5    1    3    3    0  503  0.54258028732E+01 -0.32195148842E+02 -0.12261808188E+03  0.12697736392E+03  0.47000000000E+01 0.  1.
         11    1    4    4    0    0 -0.90410615982E+01 -0.11470997216E+02 -0.41891012239E+02  0.44364191398E+02  0.00000000000E+00 0. -1.
        -12    1    4    4    0    0  0.35753042900E+02 -0.91436376493E+01  0.25769168627E+02  0.45010401440E+02  0.00000000000E+00 0.  1.
</event>
<event>
12    1  0.8133506E-002  0.1884602E+03  0.7818608E-02  0.1159922E+00
         21   -1    0    0  503  502  0.00000000000E+00  0.00000000000E+00  0.10815297635E+04  0.10815297635E+04  0.00000000000E+00 0.  1.
         21   -1    0    0  501  503 -0.00000000000E+00 -0.00000000000E+00 -0.55477501464E+02  0.55477501464E+02  0.00000000000E+00 0. -1.
          6    2    1    2  501    0  0.12794916700E+02 -0.78091580725E+02  0.14970472044E+03  0.24068394369E+03  0.17104166906E+03 0.  0.
         24    2    3    3    0    0 -0.23824822490E+02 -0.24616760096E+02  0.16697075933E+02  0.92651226908E+02  0.84450283946E+02 0.  0.
         -6    2    1    2    0  502 -0.12794916700E+02  0.78091580725E+02  0.87634754163E+03  0.89632332131E+03  0.17072925271E+03 0.  0.
        -24    2    5    5    0    0 -0.18134479070E+02  0.87742623595E+01  0.70711821017E+03  0.71330950167E+03  0.91588399995E+02 0.  0.
          5    1    3    3  501    0  0.36619739190E+02 -0.53474820629E+02  0.13300764451E+03  0.14803271678E+03  0.47000000000E+01 0. -1.
        -13    1    4    4    0    0  0.31068076857E+02 -0.46028441736E+00  0.37541625248E+01  0.31297459922E+02  0.00000000000E+00 0.  1.
         14    1    4    4    0    0 -0.54892899347E+02 -0.24156475678E+02  0.12942913408E+02  0.61353766986E+02  0.00000000000E+00 0. -1.
         -5    1    5    5    0  502  0.53395623693E+01  0.69317318365E+02  0.16922933146E+03  0.18301381964E+03  0.47000000000E+01 0.  1.
         13    1    6    6    0    0 -0.10301693625E+02 -0.41377935391E+02  0.29125939449E+03  0.29436421880E+03  0.00000000000E+00 0. -1.
        -14    1    6    6    0    0 -0.78327854450E+01  0.50152197751E+02  0.41585881567E+03  0.41894528287E+03  0.00000000000E+00 0.  1.
</event>
<event>
12    1  0.8133506E-002  0.2110790E+03  0.7818608E-02  0.1141061E+00
         21   -1    0    0  503  502  0.00000000000E+00  0.00000000000E+00  0.15326281595E+04  0.15326281595E+04  0.00000000000E+00 0. -1.
         21   -1    0    0  501  503 -0.00000000000E+00 -0.00000000000E+00 -0.34336546580E+02  0.34336546580E+02  0.00000000000E+00 0.  1.
          6    2    1    2  501    0  0.22253369023E+02  0.11971806764E+03  0.43799720730E+03  0.48620563432E+03  0.17241443411E+03 0.  0.
         24    2    3    3    0    0 -0.55267764391E+02  0.73485173284E+02  0.24609554931E+03  0.27408457693E+03  0.78132832095E+02 0.  0.
         -6    2    1    2    0  502 -0.22253369023E+02 -0.11971806764E+03  0.10602944057E+04  0.10807590718E+04  0.17025955612E+03 0.  0.
        -24    2    5    5    0    0  0.65378158804E+01  0.58007132472E+01  0.35932053575E+03  0.36803868274E+03  0.79150699754E+02 0.  0.
          5    1    3    3  501    0  0.77521133414E+02  0.46232894354E+02  0.19190165799E+03  0.21212105739E+03  0.47000000000E+01 0. -1.
        -13    1    4    4    0    0  0.18666194397E+02  0.25147897900E+02  0.49793611393E+02  0.58823866905E+02  0.00000000000E+00 0.  1.
         14    1    4    4    0    0 -0.73933958788E+02  0.48337275384E+02  0.19630193791E+03  0.21526071003E+03  0.00000000000E+00 0. -1.
         -5    1    5    5    0  502 -0.28791184904E+02 -0.12551878089E+03  0.70097386990E+03  0.71272038905E+03  0.47000000000E+01 0.  1.
         13    1    6    6    0    0  0.29726094489E+02  0.93713142205E+01  0.32484750648E+03  0.32633933978E+03  0.00000000000E+00 0. -1.
        -14    1    6    6    0    0 -0.23188278608E+02 -0.35706009733E+01  0.34473029273E+02  0.41699342961E+02  0.00000000000E+00 0.  1.
</event>
<event>
12    1  0.8133506E-002  0.2004416E+03  0.7818608E-02  0.1149484E+00
         21   -1    0    0  501  502  0.00000000000E+00  0.00000000000E+00  0.61264814554E+03  0.61264814554E+03  0.00000000000E+00 0. -1.
         21   -1    0    0  502  503 -0.00000000000E+00 -0.00000000000E+00 -0.86998820281E+02  0.86998820281E+02  0.00000000000E+00 0.  1.
         -6    2    1    2    0  503 -0.31570121341E+02  0.92365367078E+02  0.88782827590E+02  0.21922413581E+03  0.17506798008E+03 0.  0.
        -24    2    3    3    0    0  0.95087749182E+01  0.30379964319E+02 -0.19319946454E+02  0.87930702507E+02  0.79656695135E+02 0.  0.
          6    2    1    2  501    0  0.31570121341E+02 -0.92365367078E+02  0.43686649767E+03  0.48042283001E+03  0.17442971424E+03 0.  0.
         24    2    5    5    0    0  0.59865825000E+02 -0.19557318332E+02  0.13358468167E+03  0.16720787391E+03  0.78404082914E+02 0.  0.
          5    1    5    5  501    0 -0.28295703659E+02 -0.72808048745E+02  0.30328181600E+03  0.31321495610E+03  0.47000000000E+01 0. -1.
        -13    1    6    6    0    0  0.32547101854E+02  0.28903951873E+02  0.45033774599E+02  0.62632205195E+02  0.00000000000E+00 0.  1.
         14    1    6    6    0    0  0.27318723146E+02 -0.48461270205E+02  0.88550907071E+02  0.10457566872E+03  0.00000000000E+00 0. -1.
         -5    1    3    3    0  503 -0.41078896259E+02  0.61985402759E+02  0.10810277404E+03  0.13129343331E+03  0.47000000000E+01 0.  1.
         11    1    4    4    0    0 -0.24155424004E+02  0.22109307320E+02  0.17692247951E+02  0.37219908873E+02  0.00000000000E+00 0. -1.
        -12    1    4    4    0    0  0.33664198922E+02  0.82706569995E+01 -0.37012194405E+02  0.50710793634E+02  0.00000000000E+00 0.  1.
</event>
<event>
12    1  0.8133506E-002  0.1746221E+03  0.7818608E-02  0.1173340E+00
         21   -1    0    0  503  502  0.00000000000E+00  0.00000000000E+00  0.34555737371E+03  0.34555737371E+03  0.00000000000E+00 0.  1.
         21   -1    0    0  501  503 -0.00000000000E+00 -0.00000000000E+00 -0.94817588850E+02  0.94817588850E+02  0.00000000000E+00 0.  1.
          6    2    1    2  501    0  0.19410003548E+02  0.18841920827E+02  0.65708445689E+02  0.18657568895E+03  0.17251412016E+03 0.  0.
         24    2    3    3    0    0  0.35946977120E+02  0.62100766407E+02  0.60990192660E+02  0.13978732365E+03  0.10330538176E+03 0.  0.
         -6    2    1    2    0  502 -0.19410003548E+02 -0.18841920827E+02  0.18503133917E+03  0.25379927361E+03  0.17159751918E+03 0.  0.
        -24    2    5    5    0    0 -0.20536075407E+02  0.15589111806E+02  0.21015544935E+02  0.86138798821E+02  0.79457464932E+02 0.  0.
          5    1    3    3  501    0 -0.16536973572E+02 -0.43258845580E+02  0.47182530287E+01  0.46788365300E+02  0.47000000000E+01 0. -1.
        -11    1    4    4    0    0 -0.19640727180E+02  0.67135774134E+02  0.35004600202E+02  0.78219513985E+02  0.00000000000E+00 0.  1.
         12    1    4    4    0    0  0.55587704300E+02 -0.50350077272E+01  0.25985592458E+02  0.61567809670E+02  0.00000000000E+00 0. -1.
         -5    1    5    5    0  502  0.11260718587E+01 -0.34431032633E+02  0.16401579424E+03  0.16766047478E+03  0.47000000000E+01 0.  1.
         11    1    6    6    0    0 -0.28991530484E+02  0.19060570157E+02  0.47099698599E+02  0.58499536602E+02  0.00000000000E+00 0. -1.
        -12    1    6    6    0    0  0.84554550771E+01 -0.34714583510E+01 -0.26084153664E+02  0.27639262219E+02  0.00000000000E+00 0.  1.
</event>
<event>
12    1  0.8133506E-002  0.2071870E+03  0.7818608E-02  0.1145176E+00
         21   -1    0    0  501  502  0.00000000000E+00  0.00000000000E+00  0.30116890923E+03  0.30116890923E+03  0.00000000000E+00 0.  1.
         21   -1    0    0  502  503 -0.00000000000E+00 -0.00000000000E+00 -0.18818158276E+03  0.18818158276E+03  0.00000000000E+00 0.  1.
         -6    2    1    2    0  503 -0.73716756313E+02 -0.87377051871E+02 -0.69171785582E+02  0.21842891110E+03  0.17279335615E+03 0.  0.
        -24    2    3    3    0    0  0.97587167227E+01  0.26520343933E+01 -0.22423882727E+02  0.86972274172E+02  0.83421101166E+02 0.  0.
          6    2    1    2  501    0  0.73716756313E+02  0.87377051871E+02  0.18215911205E+03  0.27092158089E+03  0.16476544399E+03 0.  0.
         24    2    5    5    0    0  0.17520313118E+02  0.11038910163E+03  0.10765842372E+03  0.17469249369E+03  0.80214811745E+02 0.  0.
          5    1    5    5  501    0  0.56196443195E+02 -0.23012049758E+02  0.74500688325E+02  0.96229087197E+02  0.47000000000E+01 0. -1.
        -11    1    6    6    0    0 -0.25802648759E+02  0.22617874151E+02  0.51385634725E+02  0.61788577991E+02  0.00000000000E+00 0.  1.
         12    1    6    6    0    0  0.43322961877E+02  0.87771227478E+02  0.56272788996E+02  0.11290391570E+03  0.00000000000E+00 0. -1.
         -5    1    3    3    0  503 -0.83475473036E+02 -0.90029086264E+02 -0.46747902855E+02  0.13145663693E+03  0.47000000000E+01 0.  1.
         11    1    4    4    0    0 -0.18054248928E+02  0.11916267007E+02  0.23846844288E+02  0.32196666073E+02  0.00000000000E+00 0. -1.
        -12    1    4    4    0    0  0.27812965650E+02 -0.92642326133E+01 -0.46270727015E+02  0.54775608099E+02  0.00000000000E+00 0.  1.
</event>
<event>
12    1  0.8133506E-002  0.1851153E+03  0.7818608E-02  0.1163100E+00
         21   -1    0    0  503  502  0.00000000000E+00  0.00000000000E+00  0.37325849328E+03  0.37325849328E+03  0.00000000000E+00 0.  1.
         21   -1    0    0  501  503 -0.00000000000E+00 -0.00000000000E+00 -0.18679754261E+03  0.18679754261E+03  0.00000000000E+00 0.  1.
          6    2    1    2  501    0  0.64699693712E+02 -0.26744027932E+02 -0.10689372235E+03  0.21317759691E+03  0.17063741252E+03 0.  0.
         24    2    3    3    0    0 -0.16950956232E+02 -0.35249081565E+02 -0.99151039948E+02  0.13058701813E+03  0.75446722343E+02 0.  0.
         -6    2    1    2    0  502 -0.64699693712E+02  0.26744027932E+02  0.29335467303E+03  0.34687843897E+03  0.17136625643E+03 0.  0.
        -24    2    5    5    0    0  0.10555366144E+02  0.57490075757E+02  0.11964311230E+03  0.15502839383E+03  0.79390200956E+02 0.  0.
          5    1    3    3  501    0  0.81650649944E+02  0.85050536337E+01 -0.77426824048E+01  0.82590578788E+02  0.47000000000E+01 0. -1.
        -11    1    4    4    0    0  0.28078192915E+02 -0.10974201705E+02 -0.56267504497E+02  0.63834552421E+02  0.00000000000E+00 0.  1.
         12    1    4    4    0    0 -0.45029149147E+02 -0.24274879860E+02 -0.42883535450E+02  0.66752465706E+02  0.00000000000E+00 0. -1.
         -5    1    5    5    0  502 -0.75255059857E+02 -0.30746047825E+02  0.17371156073E+03  0.19185004515E+03  0.47000000000E+01 0.  1.
         11    1    6    6    0    0  0.20935014171E+02  0.23934128600E+02  0.15647829653E+01  0.31836549372E+02  0.00000000000E+00 0. -1.
        -12    1    6    6    0    0 -0.10379648026E+02  0.33555947157E+02  0.11807832933E+03  0.12319184446E+03  0.00000000000E+00 0.  1.
</event>
<event>
12    1  0.8133506E-002  0.2216557E+03  0.7818608E-02  0.1132794E+00
         21   -1    0    0  503  502  0.00000000000E+00  0.00000000000E+00  0.20226791826E+03  0.20226791826E+03  0.00000000000E+00 0. -1.
         21   -1    0    0  501  503 -0.00000000000E+00 -0.00000000000E+00 -0.38429010816E+03  0.38429010816E+03  0.00000000000E+00 0.  1.
          6    2    1    2  501    0 -0.73351002311E+02 -0.11905288612E+03 -0.26952152541E+03  0.34896004581E+03  0.17198052704E+03 0.  0.
         24    2    3    3    0    0  0.14881392202E+02 -0.61644633777E+02 -0.19564636314E+03  0.22027324587E+03  0.78875133779E+02 0.  0.
         -6    2    1    2    0  502  0.73351002311E+02  0.11905288612E+03  0.87499335512E+02  0.23759798061E+03  0.17100499245E+03 0.  0.
        -24    2    5    5    0    0  0.73651843954E+01  0.11944436010E+03  0.26551000886E+02  0.14764760034E+03  0.82302230444E+02 0.  0.
          5    1    3    3  501    0 -0.88232394513E+02 -0.57408252341E+02 -0.73875162266E+02  0.12868679994E+03  0.47000000000E+01 0. -1.
        -13    1    4    4    0    0  0.44438105530E+02 -0.27232362340E+02 -0.74572611317E+02  0.90980333811E+02  0.00000000000E+00 0.  1.
         14    1    4    4    0    0 -0.29556713327E+02 -0.34412271437E+02 -0.12107375182E+03  0.12929291206E+03  0.00000000000E+00 0. -1.
         -5    1    5    5    0  502  0.65985817915E+02 -0.39147398234E+00  0.60948334626E+02  0.89950380274E+02  0.47000000000E+01 0.  1.
         13    1    6    6    0    0  0.43608489696E+02  0.68963333048E+02  0.25529201264E+02  0.85494922632E+02  0.00000000000E+00 0. -1.
        -14    1    6    6    0    0 -0.36243305301E+02  0.50481027052E+02  0.10217996220E+01  0.62152677704E+02  0.00000000000E+00 0.  1.
</event>
<event>
12    1  0.8133506E-002  0.2088190E+03  0.7818608E-02  0.1142546E+00
         21   -1    0    0  501  502  0.00000000000E+00  0.00000000000E+00  0.35919799314E+03  0.35919799314E+03  0.00000000000E+00 0.  1.
         21   -1    0    0  502  503 -0.00000000000E+00 -0.00000000000E+00 -0.18997778687E+03  0.18997778687E+03  0.00000000000E+00 0.  1.
         -6    2    1    2    0  503  0.10690771996E+03 -0.50221809764E+02 -0.80489631921E+02  0.22379441693E+03  0.17220298905E+03 0.  0.
        -24    2    3    3    0    0  0.70857569871E+02 -0.10001411820E+03 -0.47527507270E+02  0.15388391012E+03  0.79986091290E+02 0.  0.
          6    2    1    2  501    0 -0.10690771996E+03  0.50221809764E+02  0.24970983819E+03  0.32538136309E+03  0.17194922912E+03 0.  0.
         24    2    5    5    0    0 -0.19193118078E+02  0.82558550190E+01  0.19957255106E+03  0.21587871334E+03  0.79610808403E+02 0.  0.
          5    1    5    5  501    0 -0.87714601883E+02  0.41965954745E+02  0.50137287133E+02  0.10950264975E+03  0.47000000000E+01 0. -1.
        -11    1    6    6    0    0 -0.23256926870E+02  0.27207593654E+02  0.34637129577E+02  0.49808318032E+02  0.00000000000E+00 0.  1.
         12    1    6    6    0    0  0.40638087926E+01 -0.18951738635E+02  0.16493542148E+03  0.16607039531E+03  0.00000000000E+00 0. -1.
         -5    1    3    3    0  503  0.36050150090E+02  0.49792308432E+02 -0.32962124651E+02  0.69910506807E+02  0.47000000000E+01 0.  1.
         11    1    4    4    0    0 -0.31308920130E+01 -0.58578986753E+02 -0.34592254934E+02  0.68102307415E+02  0.00000000000E+00 0. -1.
        -12    1    4    4    0    0  0.73988461884E+02 -0.41435131443E+02 -0.12935252336E+02  0.85781602705E+02  0.00000000000E+00 0.  1.
</event>
<event>
12    1  0.8133506E-002  0.2728535E+03  0.7818608E-02  0.1099657E+00
         21   -1    0    0  501  502  0.00000000000E+00  0.00000000000E+00  0.11150909586E+03  0.11150909586E+03  0.00000000000E+00 0.  1.
         21   -1    0    0  502  503 -0.00000000000E+00 -0.00000000000E+00 -0.80985197203E+03  0.80985197203E+03  0.00000000000E+00 0. -1.
         -6    2    1    2    0  503  0.40735177805E+02 -0.20834627019E+03 -0.54221280195E+03  0.60699569687E+03  0.17141041512E+03 0.  0.
        -24    2    3    3    0    0  0.22997031248E+02 -0.97790409017E+02 -0.42929081056E+03  0.44790230788E+03  0.78955999322E+02 0.  0.
          6    2    1    2  501    0 -0.40735177805E+02  0.20834627019E+03 -0.15613007422E+03  0.31436537102E+03  0.17141021967E+03 0.  0.
         24    2    5    5    0    0 -0.63749963923E+02  0.13596898488E+03 -0.16552948312E+03  0.23769340289E+03  0.80910575622E+02 0.  0.
          5    1    5    5  501    0  0.23014786118E+02  0.72377285305E+02  0.93994089013E+01  0.76671968123E+02  0.47000000000E+01 0. -1.
        -11    1    6    6    0    0 -0.45651498815E+02  0.34968642439E+02 -0.22691637637E+02  0.61820512103E+02  0.00000000000E+00 0.  1.
         12    1    6    6    0    0 -0.18098465108E+02  0.10100034244E+03 -0.14283784548E+03  0.17587289079E+03  0.00000000000E+00 0. -1.
         -5    1    3    3    0  503  0.17738146557E+02 -0.11055586117E+03 -0.11292199139E+03  0.15909338900E+03  0.47000000000E+01 0.  1.
         11    1    4    4    0    0  0.97434491267E+01 -0.10869335620E+03 -0.39095710241E+03  0.40590224982E+03  0.00000000000E+00 0. -1.
        -12    1    4    4    0    0  0.13253582121E+02  0.10902947186E+02 -0.38333708151E+02  0.42000058060E+02  0.00000000000E+00 0.  1.
</event>
<event>
12    1  0.8133506E-002  0.2192637E+03  0.7818608E-02  0.1134488E+00
         21   -1    0    0  501  502  0.00000000000E+00  0.00000000000E+00  0.46091981361E+03  0.46091981361E+03  0.00000000000E+00 0. -1.
         21   -1    0    0  502  503 -0.00000000000E+00 -0.00000000000E+00 -0.27901329980E+03  0.27901329980E+03  0.00000000000E+00 0. -1.
         -6    2    1    2    0  503 -0.87487612238E+01 -0.13553351033E+03 -0.20194194273E+03  0.29787407502E+03  0.17176304343E+03 0.  0.
        -24    2    3    3    0    0 -0.67745756811E+02 -0.84981036331E+02 -0.91919334000E+02  0.16310292622E+03  0.79637531841E+02 0.  0.
          6    2    1    2  501    0  0.87487612238E+01  0.13553351033E+03  0.38384845655E+03  0.44205903840E+03  0.17213565171E+03 0.  0.
         24    2    5    5    0    0  0.64422274368E+01 -0.23440335275E+01  0.13661724183E+03  0.15893203380E+03  0.80920478350E+02 0.  0.
          5    1    5    5  501    0  0.23065337871E+01  0.13787754386E+03  0.24723121472E+03  0.28312700459E+03  0.47000000000E+01 0. -1.
        -11    1    6    6    0    0  0.41323366676E+02  0.32088758459E+01  0.99028756304E+02  0.10735274609E+03  0.00000000000E+00 0.  1.
         12    1    6    6    0    0 -0.34881139239E+02 -0.55529093734E+01  0.37588485527E+02  0.51579287717E+02  0.00000000000E+00 0. -1.
         -5    1    3    3    0  503  0.58996995587E+02 -0.50552474000E+02 -0.11002260873E+03  0.13477114879E+03  0.47000000000E+01 0.  1.
         11    1    4    4    0    0 -0.21943871397E+02 -0.78279326267E+02 -0.82577225385E+02  0.11588004386E+03  0.00000000000E+00 0. -1.
        -12    1    4    4    0    0 -0.45801885415E+02 -0.67017100642E+01 -0.93421086149E+01  0.47222882363E+02  0.00000000000E+00 0.  1.
</event>
<event>
12    1  0.8133506E-002  0.1875669E+03  0.7818608E-02  0.1161377E+00
         21   -1    0    0  501  502  0.00000000000E+00  0.00000000000E+00  0.61902968054E+03  0.61902968054E+03  0.00000000000E+00 0. -1.
         21   -1    0    0  502  503 -0.00000000000E+00 -0.00000000000E+00 -0.11674699319E+03  0.11674699319E+03  0.00000000000E+00 0. -1.
         -6    2    1    2    0  503  0.74055769773E+02  0.78896266271E+01 -0.13427208658E+02  0.18804686015E+03  0.17214769366E+03 0.  0.
        -24    2    3    3    0    0  0.10102607046E+03 -0.74120210876E+01  0.35538581790E+02  0.12989811832E+03  0.73139082431E+02 0.  0.
          6    2    1    2  501    0 -0.74055769773E+02 -0.78896266271E+01  0.51570989601E+03  0.54772981359E+03  0.16883349374E+03 0.  0.
         24    2    5    5    0    0 -0.10151090457E+03 -0.46129996083E+02  0.36437065102E+03  0.38916825660E+03  0.79079202892E+02 0.  0.
          5    1    5    5  501    0  0.27455134797E+02  0.38240369456E+02  0.15133924498E+03  0.15856155699E+03  0.47000000000E+01 0. -1.
        -13    1    6    6    0    0  0.97408051749E+00  0.16115468282E+02  0.32257144700E+02  0.36071880114E+02  0.00000000000E+00 0.  1.
         14    1    6    6    0    0 -0.10248498509E+03 -0.62245464365E+02  0.33211350632E+03  0.35309637648E+03  0.00000000000E+00 0. -1.
         -5    1    3    3    0  503 -0.26970300684E+02  0.15301647715E+02 -0.48965790448E+02  0.58148741826E+02  0.47000000000E+01 0.  1.
         11    1    4    4    0    0  0.19383302871E+02  0.93419894682E-01 -0.22312051857E+02  0.29555859243E+02  0.00000000000E+00 0. -1.
        -12    1    4    4    0    0  0.81642767585E+02 -0.75054409822E+01  0.57850633648E+02  0.10034225908E+03  0.00000000000E+00 0.  1.
</event>
<event>
12    1  0.8133506E-002  0.2429022E+03  0.7818608E-02  0.1117924E+00
         21   -1    0    0  501  502  0.00000000000E+00  0.00000000000E+00  0.35780865913E+03  0.35780865913E+03  0.00000000000E+00 0. -1.
         21   -1    0    0  502  503 -0.00000000000E+00 -0.00000000000E+00 -0.20982051284E+03  0.20982051284E+03  0.00000000000E+00 0. -1.
         -6    2    1    2    0  503  0.97093505263E+02 -0.14172711363E+03 -0.57593467530E+02  0.24963672995E+03  0.17172002194E+03 0.  0.
        -24    2    3    3    0    0 -0.80255238439E+01 -0.30061782816E+02  0.28392275373E+01  0.84732645646E+02  0.78761921042E+02 0.  0.
          6    2    1    2  501    0 -0.97093505263E+02  0.14172711363E+03  0.20558161382E+03  0.31799244202E+03  0.17129410306E+03 0.  0.
         24    2    5    5    0    0 -0.65266520301E+02  0.11966606831E+03  0.22445398103E+03  0.27465766457E+03  0.80483268641E+02 0.  0.
          5    1    5    5  501    0 -0.31826984962E+02  0.22061045320E+02 -0.18872367214E+02  0.43334777450E+02  0.47000000000E+01 0. -1.
        -11    1    6    6    0    0 -0.58928817955E+02  0.58064220518E+02  0.70421577616E+02  0.10864279950E+03  0.00000000000E+00 0.  1.
         12    1    6    6    0    0 -0.63377023463E+01  0.61601847789E+02  0.15403240342E+03  0.16601486507E+03  0.00000000000E+00 0. -1.
         -5    1    3    3    0  503  0.10511902911E+03 -0.11166533081E+03 -0.60432695068E+02  0.16490408430E+03  0.47000000000E+01 0.  1.
         11    1    4    4    0    0  0.12913938750E+02  0.23664892885E+02  0.24272007275E+01  0.27068215174E+02  0.00000000000E+00 0. -1.
        -12    1    4    4    0    0 -0.20939462594E+02 -0.53726675702E+02  0.41202680987E+00  0.57664430473E+02  0.00000000000E+00 0.  1.
</event>
<event>
12    1  0.8133506E-002  0.1975433E+03  0.7818608E-02  0.1152184E+00
         21   -1    0    0  503  502  0.00000000000E+00  0.00000000000E+00  0.25791401391E+02  0.25791401391E+02  0.00000000000E+00 0. -1.
         21   -1    0    0  501  503 -0.00000000000E+00 -0.00000000000E+00 -0.15013197788E+04  0.15013197788E+04  0.00000000000E+00 0.  1.
          6    2    1    2  501    0 -0.93210203823E+02 -0.18009794639E+02 -0.72197019376E+03  0.74850805077E+03  0.17323638935E+03 0.  0.
         24    2    3    3    0    0 -0.41307840406E+02 -0.47909052297E+02 -0.63632696015E+03  0.64389125289E+03  0.75381233475E+02 0.  0.
         -6    2    1    2    0  502  0.93210203823E+02  0.18009794639E+02 -0.75355818361E+03  0.77860312938E+03  0.17134877354E+03 0.  0.
        -24    2    5    5    0    0  0.10834534399E+03  0.37270175587E+02 -0.37995725426E+03  0.40417051975E+03  0.76540932956E+02 0.  0.
          5    1    3    3  501    0 -0.51902363417E+02  0.29899257658E+02 -0.85643233609E+02  0.10461679789E+03  0.47000000000E+01 0. -1.
        -11    1    4    4    0    0 -0.43349048281E+02 -0.10737139742E+01 -0.17941841590E+03  0.18458402101E+03  0.00000000000E+00 0.  1.
         12    1    4    4    0    0  0.20412078746E+01 -0.46835338323E+02 -0.45690854425E+03  0.45930723187E+03  0.00000000000E+00 0. -1.
         -5    1    5    5    0  502 -0.15135140165E+02 -0.19260380947E+02 -0.37360092935E+03  0.37443260963E+03  0.47000000000E+01 0.  1.
         13    1    6    6    0    0  0.48476448242E+02 -0.19628294543E+02 -0.10887250815E+03  0.12078269335E+03  0.00000000000E+00 0. -1.
        -14    1    6    6    0    0  0.59868895746E+02  0.56898470129E+02 -0.27108474611E+03  0.28338782640E+03  0.00000000000E+00 0.  1.
</event>
<event>
12    1  0.8133506E-002  0.2424503E+03  0.7818608E-02  0.1118202E+00
         21   -1    0    0  503  502  0.00000000000E+00  0.00000000000E+00  0.66684437572E+02  0.66684437572E+02  0.00000000000E+00 0.  1.
         21   -1    0    0  501  503 -0.00000000000E+00 -0.00000000000E+00 -0.93921457756E+03  0.93921457756E+03  0.00000000000E+00 0. -1.
          6    2    1    2  501    0 -0.76577851137E+02 -0.15346750998E+03 -0.56182653083E+03  0.61190784996E+03  0.17136429672E+03 0.  0.
         24    2    3    3    0    0 -0.10731720577E+03 -0.12850690104E+03 -0.35557549196E+03  0.40183757372E+03  0.83716777927E+02 0.  0.
         -6    2    1    2    0  502  0.76577851137E+02  0.15346750998E+03 -0.31070360916E+03  0.39399116518E+03  0.17110190410E+03 0.  0.
        -24    2    5    5    0    0 -0.46223658679E+01  0.40141359642E+02 -0.19611025973E+03  0.21346411090E+03  0.73993227056E+02 0.  0.
          5    1    3    3  501    0  0.30739354628E+02 -0.24960608941E+02 -0.20625103887E+03  0.21007027623E+03  0.47000000000E+01 0. -1.
        -11    1    4    4    0    0 -0.70523297207E+02 -0.88637704320E+02 -0.14287897663E+03  0.18233096292E+03  0.00000000000E+00 0.  1.
         12    1    4    4    0    0 -0.36793908558E+02 -0.39869196718E+02 -0.21269651533E+03  0.21950661080E+03  0.00000000000E+00 0. -1.
         -5    1    5    5    0  502  0.81200217005E+02  0.11332615034E+03 -0.11459334943E+03  0.18052705428E+03  0.47000000000E+01 0.  1.
         13    1    6    6    0    0 -0.30162539496E+02  0.10794038414E+02 -0.33853707684E+02  0.46608621285E+02  0.00000000000E+00 0. -1.
        -14    1    6    6    0    0  0.25540173628E+02  0.29347321228E+02 -0.16225655205E+03  0.16685548961E+03  0.00000000000E+00 0.  1.
</event>
<event>
12    1  0.8133506E-002  0.5710016E+03  0.7818608E-02  0.9967535E-01
         21   -1    0    0  503  502  0.00000000000E+00  0.00000000000E+00  0.16038888684E+04  0.16038888684E+04  0.00000000000E+00 0.  1.
         21   -1    0    0  501  503 -0.00000000000E+00 -0.00000000000E+00 -0.25768211527E+03  0.25768211527E+03  0.00000000000E+00 0. -1.
          6    2    1    2  501    0  0.28212160479E+03  0.46530756776E+03  0.24531890420E+03  0.62146934482E+03  0.17302904173E+03 0.  0.
         24    2    3    3    0    0  0.17478965270E+03  0.24755768248E+03  0.20687826596E+03  0.37563417006E+03  0.80412585725E+02 0.  0.
         -6    2    1    2    0  502 -0.28212160479E+03 -0.46530756776E+03  0.11008878490E+04  0.12401016389E+04  0.17261021493E+03 0.  0.
        -24    2    5    5    0    0 -0.56584364845E+02 -0.12577074690E+03  0.31179122151E+03  0.35193055359E+03  0.87299929079E+02 0.  0.
          5    1    3    3  501    0  0.10733195209E+03  0.21774988528E+03  0.38440638239E+02  0.24583517475E+03  0.47000000000E+01 0. -1.
        -11    1    4    4    0    0  0.81308930240E+02  0.17098868001E+03  0.15255361607E+03  0.24314784927E+03  0.00000000000E+00 0.  1.
         12    1    4    4    0    0  0.93480722456E+02  0.76569002472E+02  0.54324649894E+02  0.13248632079E+03  0.00000000000E+00 0. -1.
         -5    1    5    5    0  502 -0.22553723994E+03 -0.33953682086E+03  0.78909662745E+03  0.88817108531E+03  0.47000000000E+01 0.  1.
         11    1    6    6    0    0 -0.16660366834E+02  0.11122880310E+02  0.29360518314E+02  0.35543302113E+02  0.00000000000E+00 0. -1.
        -12    1    6    6    0    0 -0.39923998011E+02 -0.13689362721E+03  0.28243070320E+03  0.31638725147E+03  0.00000000000E+00 0.  1.
</event>
<event>
12    1  0.8133506E-002  0.1841280E+03  0.7818608E-02  0.1164022E+00
         21   -1    0    0  501  502  0.00000000000E+00  0.00000000000E+00  0.14854536555E+03  0.14854536555E+03  0.00000000000E+00 0. -1.
         21   -1    0    0  502  503 -0.00000000000E+00 -0.00000000000E+00 -0.23642244421E+03  0.23642244421E+03  0.00000000000E+00 0. -1.
         -6    2    1    2    0  503  0.30223913762E+02  0.59012444813E+02 -0.81580414925E+02  0.20139136960E+03  0.17177650027E+03 0.  0.
        -24    2    3    3    0    0  0.38141791439E+02 -0.67500480922E+00 -0.10380950352E+03  0.13703682968E+03  0.80916177506E+02 0.  0.
          6    2    1    2  501    0 -0.30223913762E+02 -0.59012444813E+02 -0.62966637369E+01  0.18357644016E+03  0.17106930701E+03 0.  0.
         24    2    5    5    0    0 -0.73919285464E+02 -0.99847142987E-01  0.79579338554E+01  0.10870813428E+03  0.79309892284E+02 0.  0.
          5    1    5    5  501    0  0.43695371702E+02 -0.58912597670E+02 -0.14254597592E+02  0.74868305877E+02  0.47000000000E+01 0. -1.
        -13    1    6    6    0    0 -0.32227472981E+02 -0.37603921123E+02 -0.85359829433E+01  0.50254630666E+02  0.00000000000E+00 0.  1.
         14    1    6    6    0    0 -0.41691812483E+02  0.37504073980E+02  0.16493916799E+02  0.58453503613E+02  0.00000000000E+00 0. -1.
         -5    1    3    3    0  503 -0.79178776774E+01  0.59687449622E+02  0.22229088591E+02  0.64354539925E+02  0.47000000000E+01 0.  1.
         13    1    4    4    0    0 -0.18919290990E+02 -0.28326458532E+01 -0.65594654501E+02  0.68327316303E+02  0.00000000000E+00 0. -1.
        -14    1    4    4    0    0  0.57061082429E+02  0.21576410440E+01 -0.38214849015E+02  0.68709513374E+02  0.00000000000E+00 0.  1.
</event>
<event>
12    1  0.8133506E-002  0.1904600E+03  0.7818608E-02  0.1159151E+00
         21   -1    0    0  501  502  0.00000000000E+00  0.00000000000E+00  0.13841729676E+02  0.13841729676E+02  0.00000000000E+00 0.  1.
         21   -1    0    0  502  503 -0.00000000000E+00 -0.00000000000E+00 -0.26723146847E+04  0.26723146847E+04  0.00000000000E+00 0.  1.
         -6    2    1    2    0  503 -0.62108557711E+02 -0.28786046599E+02 -0.16276379908E+04  0.16387435575E+04  0.17773268931E+03 0.  0.
        -24    2    3    3    0    0 -0.87193581743E+02 -0.86321910856E+01 -0.65588026081E+03  0.66644184916E+03  0.79300607601E+02 0.  0.
          6    2    1    2  501    0  0.62108557711E+02  0.28786046599E+02 -0.10308349643E+04  0.10474128569E+04  0.17253075027E+03 0.  0.
         24    2    5    5    0    0  0.57858125485E+02 -0.39853636950E+02 -0.45105438407E+03  0.46354893138E+03  0.80570958359E+02 0.  0.
          5    1    5    5  501    0  0.42504322261E+01  0.68639683549E+02 -0.57978058024E+03  0.58386392555E+03  0.47000000000E+01 0. -1.
        -13    1    6    6    0    0 -0.19687058449E+02 -0.39790071887E+01 -0.60112621820E+02  0.63379334729E+02  0.00000000000E+00 0.  1.
         14    1    6    6    0    0  0.77545183934E+02 -0.35874629761E+02 -0.39094176225E+03  0.40016959665E+03  0.00000000000E+00 0. -1.
         -5    1    3    3    0  503  0.25085024031E+02 -0.20153855514E+02 -0.97175772994E+03  0.97230170833E+03  0.47000000000E+01 0.  1.
         13    1    4    4    0    0 -0.39094207348E+02 -0.24079845037E+02 -0.12504868712E+03  0.13321174924E+03  0.00000000000E+00 0. -1.
        -14    1    4    4    0    0 -0.48099374395E+02  0.15447653952E+02 -0.53083157369E+03  0.53323009992E+03  0.00000000000E+00 0.  1.
</event>
<event>
12    1  0.8133506E-002  0.2457237E+03  0.7818608E-02  0.1116136E+00
         21   -1    0    0  501  502  0.00000000000E+00  0.00000000000E+00  0.69888277731E+02  0.69888277731E+02  0.00000000000E+00 0. -1.
         21   -1    0    0  502  503 -0.00000000000E+00 -0.00000000000E+00 -0.86213018381E+03  0.86213018381E+03  0.00000000000E+00 0. -1.
         -6    2    1    2    0  503  0.16797869862E+03 -0.39542378596E+02 -0.40545137154E+03  0.47410012637E+03  0.17492762001E+03 0.  0.
        -24    2    3    3    0    0  0.48128152406E+02 -0.78822390778E+02 -0.20006338524E+03  0.23303294133E+03  0.75826811154E+02 0.  0.
          6    2    1    2  501    0 -0.16797869862E+03  0.39542378596E+02 -0.38679053453E+03  0.45791833517E+03  0.17407424044E+03 0.  0.
         24    2    5    5    0    0 -0.49567915361E+02  0.39034163914E+02 -0.80072477143E+02  0.12910314604E+03  0.79217274223E+02 0.  0.
          5    1    5    5  501    0 -0.11841078326E+03  0.50821468239E+00 -0.30671805739E+03  0.32881518913E+03  0.47000000000E+01 0. -1.
        -11    1    6    6    0    0 -0.26344995784E+02  0.62758185365E+02 -0.52964067495E+02  0.86242919006E+02  0.00000000000E+00 0.  1.
         12    1    6    6    0    0 -0.23222919576E+02 -0.23724021452E+02 -0.27108409648E+02  0.42860227031E+02  0.00000000000E+00 0. -1.
         -5    1    3    3    0  503  0.11985054621E+03  0.39280012182E+02 -0.20538798630E+03  0.24106718504E+03  0.47000000000E+01 0.  1.
         11    1    4    4    0    0  0.49794092433E+02 -0.10428888553E+02 -0.78602207511E+02  0.93629698191E+02  0.00000000000E+00 0. -1.
        -12    1    4    4    0    0 -0.16659400270E+01 -0.68393502225E+02 -0.12146117773E+03  0.13940324314E+03  0.00000000000E+00 0.  1.
</event>
<event>
12    1  0.8133506E-002  0.2166687E+03  0.7818608E-02  0.1136463E+00
         21   -1    0    0  501  502  0.00000000000E+00  0.00000000000E+00  0.29994224204E+03  0.29994224204E+03  0.00000000000E+00 0.  1.
         21   -1    0    0  502  503 -0.00000000000E+00 -0.00000000000E+00 -0.16250874122E+03  0.16250874122E+03  0.00000000000E+00 0.  1.
         -6    2    1    2    0  503 -0.12788586070E+03 -0.31710250058E+02  0.11406199188E+03  0.24452539183E+03  0.17152899444E+03 0.  0.
        -24    2    3    3    0    0 -0.12411172760E+00 -0.35231658014E+02  0.33446576263E+02  0.93342059251E+02  0.79704337594E+02 0.  0.
          6    2    1    2  501    0  0.12788586070E+03  0.31710250058E+02  0.23371508945E+02  0.21792559143E+03  0.17200291464E+03 0.  0.
         24    2    5    5    0    0  0.14400998430E+03 -0.87041909770E+01  0.42947822474E+02  0.16998149422E+03  0.78959194542E+02 0.  0.
          5    1    5    5  501    0 -0.16124123601E+02  0.40414441035E+02 -0.19576313529E+02  0.47944097212E+02  0.47000000000E+01 0. -1.
        -13    1    6    6    0    0  0.59545531504E+02 -0.40763877254E+02  0.32130687150E+02  0.78992056991E+02  0.00000000000E+00 0.  1.
         14    1    6    6    0    0  0.84464452800E+02  0.32059686277E+02  0.10817135324E+02  0.90989437231E+02  0.00000000000E+00 0. -1.
         -5    1    3    3    0  503 -0.12776174898E+03  0.35214079557E+01  0.80615415613E+02  0.15118333258E+03  0.47000000000E+01 0.  1.
         11    1    4    4    0    0 -0.35979870623E+02 -0.35558997151E+02  0.25346672581E+02  0.56581332428E+02  0.00000000000E+00 0. -1.
        -12    1    4    4    0    0  0.35855758895E+02  0.32733913702E+00  0.80999036820E+01  0.36760726823E+02  0.00000000000E+00 0.  1.
</event>
<event>
12    1  0.8133506E-002  0.2030445E+03  0.7818608E-02  0.1147446E+00
         21   -1    0    0  503  502  0.00000000000E+00  0.00000000000E+00  0.21003906209E+03  0.21003906209E+03  0.00000000000E+00 0.  1.
         21   -1    0    0  501  503 -0.00000000000E+00 -0.00000000000E+00 -0.24124780111E+03  0.24124780111E+03  0.00000000000E+00 0.  1.
          6    2    1    2  501    0  0.42715928255E+02  0.96127277821E+02 -0.11423650355E+03  0.23192260714E+03  0.17225856406E+03 0.  0.
         24    2    3    3    0    0  0.95546027994E+02  0.85522482643E+02 -0.88578701753E+02  0.17205697500E+03  0.72899092848E+02 0.  0.
         -6    2    1    2    0  502 -0.42715928255E+02 -0.96127277821E+02  0.83027764525E+02  0.21936425606E+03  0.17367199856E+03 0.  0.
        -24    2    5    5    0    0  0.67325026742E+00  0.11885124634E+02  0.61542386442E+02  0.10090324404E+03  0.79071422618E+02 0.  0.
          5    1    3    3  501    0 -0.52830099738E+02  0.10604795178E+02 -0.25657801793E+02  0.59865632144E+02  0.47000000000E+01 0. -1.
        -13    1    4    4    0    0  0.75163788767E+02  0.18441737769E+02 -0.46038300682E+02  0.90051196347E+02  0.00000000000E+00 0.  1.
         14    1    4    4    0    0  0.20382239227E+02  0.67080744874E+02 -0.42540401071E+02  0.82005778650E+02  0.00000000000E+00 0. -1.
         -5    1    5    5    0  502 -0.43389178523E+02 -0.10801240246E+03  0.21485378083E+02  0.11846101202E+03  0.47000000000E+01 0.  1.
         13    1    6    6    0    0  0.11498313480E+02  0.15876817392E+02 -0.14251575227E+02  0.24236170074E+02  0.00000000000E+00 0. -1.
        -14    1    6    6    0    0 -0.10825063213E+02 -0.39916927577E+01  0.75793961669E+02  0.76667073964E+02  0.00000000000E+00 0.  1.
</event>
<event>
12    1  0.8133506E-002  0.1863324E+03  0.7818608E-02  0.1162069E+00
         21   -1    0    0  501  502  0.00000000000E+00  0.00000000000E+00  0.51860911537E+03  0.51860911537E+03  0.00000000000E+00 0.  1.
         21   -1    0    0  502  503 -0.00000000000E+00 -0.00000000000E+00 -0.13916430428E+03  0.13916430428E+03  0.00000000000E+00 0.  1.
         -6    2    1    2    0  503 -0.58233881095E+02  0.38088934342E+02 -0.47578051769E+02  0.19231074684E+03  0.17285196127E+03 0.  0.
        -24    2    3    3    0    0 -0.57606531658E+02  0.67683591791E+02  0.16117168052E+02  0.12191608551E+03  0.81879104244E+02 0.  0.
          6    2    1    2  501    0  0.58233881095E+02 -0.38088934342E+02  0.42702286286E+03  0.46546267281E+03  0.17165378688E+03 0.  0.
         24    2    5    5    0    0 -0.11004006658E+02  0.99596015834E+01  0.98035678053E+02  0.12581991244E+03  0.77455628393E+02 0.  0.
          5    1    5    5  501    0  0.69237887753E+02 -0.48048535926E+02  0.32898718481E+03  0.33964276037E+03  0.47000000000E+01 0. -1.
        -11    1    6    6    0    0  0.15865849716E+02 -0.27040093985E+02  0.53376639036E+02  0.61902806598E+02  0.00000000000E+00 0.  1.
         12    1    6    6    0    0 -0.26869856374E+02  0.36999695569E+02  0.44659039017E+02  0.63917105845E+02  0.00000000000E+00 0. -1.
         -5    1    3    3    0  503 -0.62734943659E+00 -0.29594657449E+02 -0.63695219821E+02  0.70394661338E+02  0.47000000000E+01 0.  1.
         11    1    4    4    0    0 -0.65586542912E+01  0.37086686791E+02  0.42525111408E+02  0.56805135186E+02  0.00000000000E+00 0. -1.
        -12    1    4    4    0    0 -0.51047877367E+02  0.30596905000E+02 -0.26407943356E+02  0.65110950320E+02  0.00000000000E+00 0.  1.
</event>
<event>
12    1  0.8133506E-002  0.1818299E+03  0.7818608E-02  0.1166189E+00
         21   -1    0    0  503  502  0.00000000000E+00  0.00000000000E+00  0.79039135773E+02  0.79039135773E+02  0.00000000000E+00 0.  1.
         21   -1    0    0  501  503 -0.00000000000E+00 -0.00000000000E+00 -0.46119511007E+03  0.46119511007E+03  0.00000000000E+00 0.  1.
          6    2    1    2  501    0 -0.53619210266E+02 -0.25429645453E+02 -0.27449609113E+03  0.32892224263E+03  0.17123098749E+03 0.  0.
         24    2    3    3    0    0 -0.33232985626E+02  0.40564144536E+02 -0.22142594193E+03  0.24169088813E+03  0.81456469916E+02 0.  0.
         -6    2    1    2    0  502  0.53619210266E+02  0.25429645453E+02 -0.10765988317E+03  0.21131200321E+03  0.17187328379E+03 0.  0.
        -24    2    5    5    0    0  0.55873330610E+01  0.65457819833E+02 -0.24402193859E+02  0.10708509305E+03  0.80967929581E+02 0.  0.
          5    1    3    3  501    0 -0.20386224640E+02 -0.65993789989E+02 -0.53070149197E+02  0.87231354500E+02  0.47000000000E+01 0. -1.
        -13    1    4    4    0    0 -0.51127631367E+02  0.25280261976E+02 -0.20551707107E+03  0.21328476935E+03  0.00000000000E+00 0.  1.
         14    1    4    4    0    0  0.17894645741E+02  0.15283882560E+02 -0.15908870858E+02  0.28406118783E+02  0.00000000000E+00 0. -1.
         -5    1    5    5    0  502  0.48031877205E+02 -0.40028174380E+02 -0.83257689312E+02  0.10422691016E+03  0.47000000000E+01 0.  1.
         13    1    6    6    0    0  0.39201565305E+02  0.34295436118E+02 -0.31247499181E+02  0.60739985725E+02  0.00000000000E+00 0. -1.
        -14    1    6    6    0    0 -0.33614232244E+02  0.31162383715E+02  0.68453053215E+01  0.46345107326E+02  0.00000000000E+00 0.  1.
</event>
<event>
12    1  0.8133506E-002  0.1970693E+03  0.7818608E-02  0.1152864E+00
         21   -1    0    0  503  502  0.00000000000E+00  0.00000000000E+00  0.27494368987E+03  0.27494368987E+03  0.00000000000E+00 0. -1.
         21   -1    0    0  501  503 -0.00000000000E+00 -0.00000000000E+00 -0.16368197458E+03  0.16368197458E+03  0.00000000000E+00 0.  1.
          6    2    1    2  501    0  0.54388210157E+02  0.80073203623E+02 -0.29568056776E+02  0.19640812878E+03  0.16832138226E+03 0.  0.
         24    2    3    3    0    0  0.14559210906E+02  0.10296976316E+03 -0.56310283930E+02  0.14304298723E+03  0.80471767538E+02 0.  0.
         -6    2    1    2    0  502 -0.54388210157E+02 -0.80073203623E+02  0.14082977207E+03  0.24221753567E+03  0.17165813276E+03 0.  0.
        -24    2    5    5    0    0 -0.98926387409E+02 -0.27413914509E+02  0.10266601957E+03  0.16325417728E+03  0.74656962116E+02 0.  0.
          5    1    3    3  501    0  0.39828999251E+02 -0.22896559538E+02  0.26742227154E+02  0.53365141555E+02  0.47000000000E+01 0. -1.
        -11    1    4    4    0    0  0.99826864782E+01 -0.11262564385E+02 -0.15627751631E+02  0.21696221028E+02  0.00000000000E+00 0.  1.
         12    1    4    4    0    0  0.45765244282E+01  0.11423232755E+03 -0.40682532298E+02  0.12134676620E+03  0.00000000000E+00 0. -1.
         -5    1    5    5    0  502  0.44538177251E+02 -0.52659289114E+02  0.38163752499E+02  0.78963358386E+02  0.47000000000E+01 0.  1.
         13    1    6    6    0    0 -0.35161062629E+02  0.22390613250E+01 -0.40361044772E+01  0.35462710841E+02  0.00000000000E+00 0. -1.
        -14    1    6    6    0    0 -0.63765324779E+02 -0.29652975834E+02  0.10670212404E+03  0.12779146644E+03  0.00000000000E+00 0.  1.
</event>
<event>
12    1  0.8133506E-002  0.2719153E+03  0.7818608E-02  0.1100405E+00
         21   -1    0    0  501  502  0.00000000000E+00  0.00000000000E+00  0.40662744353E+02  0.40662744353E+02  0.00000000000E+00 0. -1.
         21   -1    0    0  502  503 -0.00000000000E+00 -0.00000000000E+00 -0.18315605282E+04  0.18315605282E+04  0.00000000000E+00 0. -1.
         -6    2    1    2    0  503 -0.20266309164E+03 -0.57624216517E+02 -0.79207225750E+03  0.83744635660E+03  0.17188676517E+03 0.  0.
        -24    2    3    3    0    0 -0.31058349401E+02 -0.43542921954E+02 -0.26245553874E+03  0.28052407369E+03  0.83368093312E+02 0.  0.
          6    2    1    2  501    0  0.20266309164E+03  0.57624216517E+02 -0.99882552637E+03  0.10347769160E+04  0.16946372669E+03 0.  0.
         24    2    5    5    0    0  0.64086322405E+02  0.72943085759E+02 -0.37529270091E+03  0.39582976389E+03  0.80055231861E+02 0.  0.
          5    1    5    5  501    0  0.13857676924E+03 -0.15318869241E+02 -0.62353282546E+03  0.63894715209E+03  0.47000000000E+01 0. -1.
        -11    1    6    6    0    0  0.54117022078E+02  0.25555415768E+02 -0.10184712269E+03  0.11812945337E+03  0.00000000000E+00 0.  1.
         12    1    6    6    0    0  0.99693003276E+01  0.47387669991E+02 -0.27344557821E+03  0.27770031052E+03  0.00000000000E+00 0. -1.
         -5    1    3    3    0  503 -0.17160474224E+03 -0.14081294563E+02 -0.52961671876E+03  0.55692228291E+03  0.47000000000E+01 0.  1.
         13    1    4    4    0    0 -0.29560523392E+02 -0.56060983868E+02 -0.10557001487E+03  0.12313280024E+03  0.00000000000E+00 0. -1.
        -14    1    4    4    0    0 -0.14978260088E+01  0.12518061913E+02 -0.15688552387E+03  0.15739127345E+03  0.00000000000E+00 0.  1.
</event>
<event>
12    1  0.8133506E-002  0.2486027E+03  0.7818608E-02  0.1115302E+00
         21   -1    0    0  501  502  0.00000000000E+00  0.00000000000E+00  0.56458996176E+02  0.56458996176E+02  0.00000000000E+00 0. -1.
         21   -1    0    0  502  503 -0.00000000000E+00 -0.00000000000E+00 -0.10675713707E+04  0.10675713707E+04  0.00000000000E+00 0. -1.
         -6    2    1    2    0  503  0.78595803791E+02  0.14610959887E+03 -0.54232121090E+03  0.59658663728E+03  0.18514320062E+03 0.  0.
        -24    2    3    3    0    0  0.66595240521E+02  0.15351656541E+03 -0.29310220405E+03  0.34692470577E+03  0.80284416520E+02 0.  0.
          6    2    1    2  501    0 -0.78595803791E+02 -0.14610959887E+03 -0.46879116365E+03  0.52744372962E+03  0.17580221144E+03 0.  0.
         24    2    5    5    0    0 -0.75907115632E+02 -0.90614173307E+02 -0.44335794924E+03  0.46615825257E+03  0.82246134718E+02 0.  0.
          5    1    5    5  501    0 -0.26886881593E+01 -0.55495425560E+02 -0.25433214407E+02  0.61285477049E+02  0.47000000000E+01 0. -1.
        -11    1    6    6    0    0 -0.39135930596E+02 -0.55745192240E+02 -0.11302788259E+03  0.13196381991E+03  0.00000000000E+00 0.  1.
         12    1    6    6    0    0 -0.36771185035E+02 -0.34868981067E+02 -0.33033006665E+03  0.33419443266E+03  0.00000000000E+00 0. -1.
         -5    1    3    3    0  503  0.12000563270E+02 -0.74069665451E+01 -0.24921900685E+03  0.24966193152E+03  0.47000000000E+01 0.  1.
         11    1    4    4    0    0  0.31678032408E+02  0.13846380274E+03 -0.19140671481E+03  0.23835321034E+03  0.00000000000E+00 0. -1.
        -12    1    4    4    0    0  0.34917208113E+02  0.15052762670E+02 -0.10169548924E+03  0.10857149542E+03  0.00000000000E+00 0.  1.
</event>
<event>
12    1  0.8133506E-002  0.1776959E+03  0.7818608E-02  0.1170796E+00
         21   -1    0    0  501  502  0.00000000000E+00  0.00000000000E+00  0.11824687458E+03  0.11824687458E+03  0.00000000000E+00 0. -1.
         21   -1    0    0  502  503 -0.00000000000E+00 -0.00000000000E+00 -0.27190489914E+03  0.27190489914E+03  0.00000000000E+00 0. -1.
         -6    2    1    2    0  503  0.45484417694E+02  0.28862147311E+01 -0.11364237534E+03  0.21092757054E+03  0.17175182110E+03 0.  0.
        -24    2    3    3    0    0 -0.15461787716E+02  0.52857205813E+02 -0.52556621287E+02  0.11110222680E+03  0.80923144236E+02 0.  0.
          6    2    1    2  501    0 -0.45484417694E+02 -0.28862147311E+01 -0.40015649212E+02  0.17922420318E+03  0.16865023076E+03 0.  0.
         24    2    5    5    0    0 -0.43736127635E+02  0.59375369613E+02 -0.94033707092E+01  0.10966298555E+03  0.80618010656E+02 0.  0.
          5    1    5    5  501    0 -0.17482900587E+01 -0.62261584344E+02 -0.30612278503E+02  0.69561217631E+02  0.47000000000E+01 0. -1.
        -13    1    6    6    0    0  0.21087383243E+02  0.23208101569E+02 -0.15882425618E+02  0.35150322246E+02  0.00000000000E+00 0.  1.
         14    1    6    6    0    0 -0.64823510878E+02  0.36167268044E+02  0.64790549089E+01  0.74512663305E+02  0.00000000000E+00 0. -1.
         -5    1    3    3    0  503  0.60946205410E+02 -0.49970991082E+02 -0.61085754055E+02  0.99825343736E+02  0.47000000000E+01 0.  1.
         11    1    4    4    0    0  0.32616347213E+02  0.22437866727E+02 -0.12475409987E+02  0.41508069373E+02  0.00000000000E+00 0. -1.
        -12    1    4    4    0    0 -0.48078134928E+02  0.30419339087E+02 -0.40081211299E+02  0.69594157426E+02  0.00000000000E+00 0.  1.
</event>
<event>
12    1  0.8133506E-002  0.1986216E+03  0.7818608E-02  0.1151020E+00
         21   -1    0    0  503  502  0.00000000000E+00  0.00000000000E+00  0.13239653778E+03  0.13239653778E+03  0.00000000000E+00 0.  1.
         21   -1    0    0  501  503 -0.00000000000E+00 -0.00000000000E+00 -0.51013483798E+03  0.51013483798E+03  0.00000000000E+00 0.  1.
          6    2    1    2  501    0  0.86992880028E+02 -0.43778140059E+02 -0.39658574892E+03  0.44354346248E+03  0.17310765478E+03 0.  0.
         24    2    3    3    0    0  0.75541873718E+02 -0.10021130364E+02 -0.39362602295E+03  0.40746699887E+03  0.72669880181E+02 0.  0.
         -6    2    1    2    0  502 -0.86992880028E+02  0.43778140059E+02  0.18847448718E+02  0.19898791328E+03  0.17250123647E+03 0.  0.
        -24    2    5    5    0    0 -0.10165719489E+03  0.39190272777E+02  0.65217033484E+02  0.14991328594E+03  0.79691085396E+02 0.  0.
          5    1    3    3  501    0  0.11451006310E+02 -0.33757009695E+02 -0.29597259696E+01  0.36076463613E+02  0.47000000000E+01 0. -1.
        -13    1    4    4    0    0  0.40825851045E+02  0.16661990515E+02 -0.85062514554E+02  0.95812334403E+02  0.00000000000E+00 0.  1.
         14    1    4    4    0    0  0.34716022673E+02 -0.26683120879E+02 -0.30856350839E+03  0.31165466446E+03  0.00000000000E+00 0. -1.
         -5    1    5    5    0  502  0.14664314866E+02  0.45878672818E+01 -0.46369584765E+02  0.49074627334E+02  0.47000000000E+01 0.  1.
         11    1    6    6    0    0 -0.39313046484E+01 -0.18324644489E+02  0.21145211393E+02  0.28255401550E+02  0.00000000000E+00 0. -1.
        -12    1    6    6    0    0 -0.97725890245E+02  0.57514917267E+02  0.44071822091E+02  0.12165788439E+03  0.00000000000E+00 0.  1.
</event>
<event>
12    1  0.8133506E-002  0.1933038E+03  0.7818608E-02  0.1155559E+00
         21   -1    0    0  503  502  0.00000000000E+00  0.00000000000E+00  0.54584573507E+03  0.54584573507E+03  0.00000000000E+00 0. -1.
         21   -1    0    0  501  503 -0.00000000000E+00 -0.00000000000E+00 -0.24335799673E+03  0.24335799673E+03  0.00000000000E+00 0. -1.
          6    2    1    2  501    0  0.37522624286E+02 -0.79465956428E+02 -0.18333113322E+03  0.26641443339E+03  0.17217305348E+03 0.  0.
         24    2    3    3    0    0 -0.23077404770E+01  0.17971649352E+02 -0.42981409443E+02  0.90913208488E+02  0.78035274545E+02 0.  0.
         -6    2    1    2    0  502 -0.37522624286E+02  0.79465956428E+02  0.48581887156E+03  0.52278929841E+03  0.17194734370E+03 0.  0.
        -24    2    5    5    0    0  0.25715460950E+02  0.83672040905E+02  0.21329952277E+03  0.24295786337E+03  0.76612933626E+02 0.  0.
          5    1    3    3  501    0  0.39830364763E+02 -0.97437605780E+02 -0.14034972377E+03  0.17550122490E+03  0.47000000000E+01 0. -1.
        -13    1    4    4    0    0  0.33033559402E+02  0.20017290434E+02 -0.39654274389E+02  0.55356747018E+02  0.00000000000E+00 0.  1.
         14    1    4    4    0    0 -0.35341299879E+02 -0.20456410820E+01 -0.33271350541E+01  0.35556461470E+02  0.00000000000E+00 0. -1.
         -5    1    5    5    0  502 -0.63238085236E+02 -0.42060844776E+01  0.27251934879E+03  0.27983143504E+03  0.47000000000E+01 0.  1.
         13    1    6    6    0    0  0.11829779689E+02  0.94295289559E+02  0.15244224208E+03  0.17963903387E+03  0.00000000000E+00 0. -1.
        -14    1    6    6    0    0  0.13885681262E+02 -0.10623248653E+02  0.60857280689E+02  0.63318829497E+02  0.00000000000E+00 0.  1.
</event>
<event>
12    1  0.8133506E-002  0.1927625E+03  0.7818608E-02  0.1156023E+00
         21   -1    0    0  501  502  0.00000000000E+00  0.00000000000E+00  0.18541330725E+03  0.18541330725E+03  0.00000000000E+00 0.  1.
         21   -1    0    0  502  503 -0.00000000000E+00 -0.00000000000E+00 -0.23755740755E+03  0.23755740755E+03  0.00000000000E+00 0.  1.
         -6    2    1    2    0  503  0.53572096388E+02  0.70059756289E+02 -0.10987725244E+03  0.22187924789E+03  0.17140318281E+03 0.  0.
        -24    2    3    3    0    0  0.86936241145E+02  0.57173125546E+02 -0.12648280938E+03  0.18216695850E+03  0.79751008714E+02 0.  0.
          6    2    1    2  501    0 -0.53572096388E+02 -0.70059756289E+02  0.57733152139E+02  0.20109146691E+03  0.17124929852E+03 0.  0.
         24    2    5    5    0    0 -0.52498296043E+02 -0.92907455915E+02  0.90505820509E+02  0.16085083797E+03  0.79333612532E+02 0.  0.
          5    1    5    5  501    0 -0.10738003452E+01  0.22847699626E+02 -0.32772668370E+02  0.40240628940E+02  0.47000000000E+01 0. -1.
        -13    1    6    6    0    0 -0.26704173258E+02 -0.35926258152E+02 -0.66977514459E+01  0.45262222312E+02  0.00000000000E+00 0.  1.
         14    1    6    6    0    0 -0.25794122785E+02 -0.56981197764E+02  0.97203571955E+02  0.11558861566E+03  0.00000000000E+00 0. -1.
         -5    1    3    3    0  503 -0.33364144756E+02  0.12886630743E+02  0.16605556941E+02  0.39712289389E+02  0.47000000000E+01 0.  1.
         11    1    4    4    0    0 -0.13988450064E+02  0.39866637033E+01 -0.27587750955E+02  0.31187404917E+02  0.00000000000E+00 0. -1.
        -12    1    4    4    0    0  0.10092469121E+03  0.53186461843E+02 -0.98895058424E+02  0.15097955358E+03  0.00000000000E+00 0.  1.
</event>
<event>
12    1  0.8133506E-002  0.2137934E+03  0.7818608E-02  0.1138608E+00
         21   -1    0    0  501  502  0.00000000000E+00  0.00000000000E+00  0.37582242141E+03  0.37582242141E+03  0.00000000000E+00 0. -1.
         21   -1    0    0  502  503 -0.00000000000E+00 -0.00000000000E+00 -0.12209319535E+03  0.12209319535E+03  0.00000000000E+00 0. -1.
         -6    2    1    2    0  503 -0.12279137379E+03  0.34306693907E+02  0.11081018922E+03  0.24075130769E+03  0.17154481454E+03 0.  0.
        -24    2    3    3    0    0 -0.17506517289E+02 -0.25157667200E+02  0.18829081570E+02  0.88752868836E+02  0.81136619644E+02 0.  0.
          6    2    1    2  501    0  0.12279137379E+03 -0.34306693907E+02  0.14291903685E+03  0.25716430907E+03  0.17161864712E+03 0.  0.
         24    2    5    5    0    0  0.10394149334E+03 -0.80548051456E+01  0.23577693659E+02  0.13343506495E+03  0.79876748784E+02 0.  0.
          5    1    5    5  501    0  0.18849880458E+02 -0.26251888761E+02  0.11934134319E+03  0.12372924412E+03  0.47000000000E+01 0. -1.
        -11    1    6    6    0    0  0.44180861397E+02  0.11268948645E+02 -0.26828066710E+02  0.52902579150E+02  0.00000000000E+00 0.  1.
         12    1    6    6    0    0  0.59760631938E+02 -0.19323753791E+02  0.50405760369E+02  0.80532485797E+02  0.00000000000E+00 0. -1.
         -5    1    3    3    0  503 -0.10528485650E+03  0.59464361107E+02  0.91981107647E+02  0.15199843886E+03  0.47000000000E+01 0.  1.
         11    1    4    4    0    0 -0.45753645635E+02  0.12176715805E+01  0.14691217961E-01  0.45769848468E+02  0.00000000000E+00 0. -1.
        -12    1    4    4    0    0  0.28247128346E+02 -0.26375338780E+02  0.18814390352E+02  0.42983020367E+02  0.00000000000E+00 0.  1.
</event>
<event>
12    1  0.8133506E-002  0.2664765E+03  0.7818608E-02  0.1103636E+00
         21   -1    0    0  503  502  0.00000000000E+00  0.00000000000E+00  0.70900967782E+03  0.70900967782E+03  0.00000000000E+00 0.  1.
         21   -1    0    0  501  503 -0.00000000000E+00 -0.00000000000E+00 -0.28268379157E+03  0.28268379157E+03  0.00000000000E+00 0.  1.
          6    2    1    2  501    0  0.20066378807E+03  0.11522516133E+01 -0.18586809888E+03  0.32489489939E+03  0.17533528437E+03 0.  0.
         24    2    3    3    0    0  0.17684653860E+03  0.27918170274E+02 -0.77781744196E+02  0.21092812422E+03  0.79915902127E+02 0.  0.
         -6    2    1    2    0  502 -0.20066378807E+03 -0.11522516133E+01  0.61219398514E+03  0.66679857000E+03  0.17196387408E+03 0.  0.
        -24    2    5    5    0    0 -0.81164840695E+02 -0.42571818446E+02  0.18903690473E+03  0.22512042514E+03  0.80896003471E+02 0.  0.
          5    1    3    3  501    0  0.23817249470E+02 -0.26765918661E+02 -0.10808635468E+03  0.11396677517E+03  0.47000000000E+01 0. -1.
        -13    1    4    4    0    0  0.11355350721E+03  0.39020561162E+02 -0.83747934546E+02  0.14639234862E+03  0.00000000000E+00 0.  1.
         14    1    4    4    0    0  0.63293031391E+02 -0.11102390888E+02  0.59661903498E+01  0.64535775609E+02  0.00000000000E+00 0. -1.
         -5    1    5    5    0  502 -0.11949894737E+03  0.41419566833E+02  0.42315708041E+03  0.44167814485E+03  0.47000000000E+01 0.  1.
         13    1    6    6    0    0 -0.39675259091E+02 -0.85797106101E+01  0.15445425293E+02  0.43431541310E+02  0.00000000000E+00 0. -1.
        -14    1    6    6    0    0 -0.41489581604E+02 -0.33992107836E+02  0.17359147943E+03  0.18168888383E+03  0.00000000000E+00 0.  1.
</event>
<event>
12    1  0.8133506E-002  0.1849057E+03  0.7818608E-02  0.1163798E+00
         21   -1    0    0  503  502  0.00000000000E+00  0.00000000000E+00  0.19018834144E+03  0.19018834144E+03  0.00000000000E+00 0. -1.
         21   -1    0    0  501  503 -0.00000000000E+00 -0.00000000000E+00 -0.18953053437E+03  0.18953053437E+03  0.00000000000E+00 0. -1.
          6    2    1    2  501    0  0.62872450313E+02  0.32327493624E+02 -0.48372986371E+02  0.19112837603E+03  0.17085695322E+03 0.  0.
         24    2    3    3    0    0 -0.21448396574E+02 -0.13566397743E+02 -0.40210949772E+02  0.94666138211E+02  0.81857659256E+02 0.  0.
         -6    2    1    2    0  502 -0.62872450313E+02 -0.32327493624E+02  0.49030793437E+02  0.18859049978E+03  0.16782236457E+03 0.  0.
        -24    2    5    5    0    0 -0.56236363127E+02 -0.18045918182E+02  0.95792446094E+02  0.13902495520E+03  0.81630642154E+02 0.  0.
          5    1    3    3  501    0  0.84320846886E+02  0.45893891367E+02 -0.81620365987E+01  0.96462237823E+02  0.47000000000E+01 0. -1.
        -13    1    4    4    0    0 -0.42863269292E+01 -0.47119611831E+02 -0.28343681733E+02  0.55154280993E+02  0.00000000000E+00 0.  1.
         14    1    4    4    0    0 -0.17162069644E+02  0.33553214088E+02 -0.11867268039E+02  0.39511857218E+02  0.00000000000E+00 0. -1.
         -5    1    5    5    0  502 -0.66360871861E+01 -0.14281575442E+02 -0.46761652656E+02  0.49565544579E+02  0.47000000000E+01 0.  1.
         11    1    6    6    0    0 -0.60208387429E+02  0.19279247452E+02  0.60234303340E+02  0.87320734067E+02  0.00000000000E+00 0. -1.
        -12    1    6    6    0    0  0.39720243025E+01 -0.37325165634E+02  0.35558142754E+02  0.51704221131E+02  0.00000000000E+00 0.  1.
</event>
<event>
12    1  0.8133506E-002  0.4458112E+03  0.7818608E-02  0.1029020E+00
         21   -1    0    0  501  502  0.00000000000E+00  0.00000000000E+00  0.69775072297E+03  0.69775072297E+03  0.00000000000E+00 0. -1.
         21   -1    0    0  502  503 -0.00000000000E+00 -0.00000000000E+00 -0.28498798625E+03  0.28498798625E+03  0.00000000000E+00 0.  1.
         -6    2    1    2    0  503  0.10073338750E+03  0.40027930780E+03  0.18597306616E+03  0.48304616739E+03  0.16845438220E+03 0.  0.
        -24    2    3    3    0    0  0.36534824578E+02  0.33941478450E+03  0.18141095263E+03  0.39433963686E+03  0.77824328615E+02 0.  0.
          6    2    1    2  501    0 -0.10073338750E+03 -0.40027930780E+03  0.22678967056E+03  0.49969254183E+03  0.16699803016E+03 0.  0.
         24    2    5    5    0    0 -0.13332250489E+03 -0.30809253067E+03  0.19651729416E+03  0.39722811277E+03  0.80468807014E+02 0.  0.
          5    1    5    5  501    0  0.32589117394E+02 -0.92186777127E+02  0.30272376393E+02  0.10246442906E+03  0.47000000000E+01 0. -1.
        -11    1    6    6    0    0 -0.11709615852E+03 -0.30567880756E+03  0.17843724186E+03  0.37281482403E+03  0.00000000000E+00 0.  1.
         12    1    6    6    0    0 -0.16226346372E+02 -0.24137231081E+01  0.18080052300E+02  0.24413288738E+02  0.00000000000E+00 0. -1.
         -5    1    3    3    0  503  0.64198562921E+02  0.60864523298E+02  0.45621135324E+01  0.88706530522E+02  0.47000000000E+01 0.  1.
         11    1    4    4    0    0  0.55923851806E+02  0.30275158656E+03  0.16813353102E+03  0.35079179669E+03  0.00000000000E+00 0. -1.
        -12    1    4    4    0    0 -0.19389027228E+02  0.36663197934E+02  0.13277421609E+02  0.43547840178E+02  0.00000000000E+00 0.  1.
</event>
<event>
12    1  0.8133506E-002  0.1942055E+03  0.7818608E-02  0.1157291E+00
         21   -1    0    0  503  502  0.00000000000E+00  0.00000000000E+00  0.94061310318E+03  0.94061310318E+03  0.00000000000E+00 0. -1.
         21   -1    0    0  501  503 -0.00000000000E+00 -0.00000000000E+00 -0.73472078340E+02  0.73472078340E+02  0.00000000000E+00 0. -1.
          6    2    1    2  501    0  0.85285017533E+02 -0.22388150992E+02  0.73574691711E+02  0.19710090962E+03  0.16018979304E+03 0.  0.
         24    2    3    3    0    0  0.69572799681E+02 -0.24830127474E+02  0.11793065250E+03  0.14974715268E+03  0.55314204775E+02 0.  0.
         -6    2    1    2    0  502 -0.85285017533E+02  0.22388150992E+02  0.79356633313E+03  0.81698427190E+03  0.17303471309E+03 0.  0.
        -24    2    5    5    0    0 -0.51904342049E+02 -0.29499121856E+02  0.68312603054E+03  0.69039158247E+03  0.80094348353E+02 0.  0.
          5    1    3    3  501    0  0.15712217852E+02  0.24419764820E+01 -0.44355960791E+02  0.47353756944E+02  0.47000000000E+01 0. -1.
        -13    1    4    4    0    0  0.13012532701E+01 -0.13497873301E+02  0.53499630766E+02  0.55191451655E+02  0.00000000000E+00 0.  1.
         14    1    4    4    0    0  0.68271546411E+02 -0.11332254173E+02  0.64431021737E+02  0.94555701024E+02  0.00000000000E+00 0. -1.
         -5    1    5    5    0  502 -0.33380675484E+02  0.51887272848E+02  0.11044030259E+03  0.12659268942E+03  0.47000000000E+01 0.  1.
         13    1    6    6    0    0  0.12036839088E+02  0.61611891723E+01  0.30168781952E+03  0.30199070547E+03  0.00000000000E+00 0. -1.
        -14    1    6    6    0    0 -0.63941181137E+02 -0.35660311029E+02  0.38143821102E+03  0.38840087700E+03  0.00000000000E+00 0.  1.
</event>
<event>
12    1  0.8133506E-002  0.1908010E+03  0.7818608E-02  0.1157862E+00
         21   -1    0    0  501  502  0.00000000000E+00  0.00000000000E+00  0.14284878287E+03  0.14284878287E+03  0.00000000000E+00 0.  1.
         21   -1    0    0  502  503 -0.00000000000E+00 -0.00000000000E+00 -0.27342223894E+03  0.27342223894E+03  0.00000000000E+00 0.  1.
         -6    2    1    2    0  503  0.58818130321E+02  0.57844467006E+02 -0.12048516788E+03  0.22520349535E+03  0.17144790411E+03 0.  0.
        -24    2    3    3    0    0  0.86336559025E+02  0.66756880591E+02 -0.64487522785E+02  0.16200127000E+03  0.10087263432E+03 0.  0.
          6    2    1    2  501    0 -0.58818130321E+02 -0.57844467006E+02 -0.10088288198E+02  0.19106752646E+03  0.17204496880E+03 0.  0.
         24    2    5    5    0    0 -0.93267271878E+02 -0.75751184764E+02 -0.29673954761E+02  0.14732873099E+03  0.79926124552E+02 0.  0.
          5    1    5    5  501    0  0.34449141557E+02  0.17906717758E+02  0.19585666563E+02  0.43738795475E+02  0.47000000000E+01 0. -1.
        -11    1    6    6    0    0 -0.32678378133E+02 -0.73176553285E+02 -0.32824669216E+02  0.86603367470E+02  0.00000000000E+00 0.  1.
         12    1    6    6    0    0 -0.60588893745E+02 -0.25746314793E+01  0.31507144548E+01  0.60725363515E+02  0.00000000000E+00 0. -1.
         -5    1    3    3    0  503 -0.27518428704E+02 -0.89124135848E+01 -0.55997645091E+02  0.63202225356E+02  0.47000000000E+01 0.  1.
         13    1    4    4    0    0  0.22408787565E+02 -0.21353862439E+02 -0.39726060526E+02  0.50361702574E+02  0.00000000000E+00 0. -1.
        -14    1    4    4    0    0  0.63927771460E+02  0.88110743030E+02 -0.24761462259E+02  0.11163956742E+03  0.00000000000E+00 0.  1.
</event>
<event>
12    1  0.8133506E-002  0.1864617E+03  0.7818608E-02  0.1162594E+00
         21   -1    0    0  501  502  0.00000000000E+00  0.00000000000E+00  0.21007383695E+03  0.21007383695E+03  0.00000000000E+00 0.  1.
         21   -1    0    0  502  503 -0.00000000000E+00 -0.00000000000E+00 -0.21523664787E+03  0.21523664787E+03  0.00000000000E+00 0. -1.
         -6    2    1    2    0  503  0.37759457201E+02  0.55640652982E+02 -0.10826403566E+03  0.21561326453E+03  0.17391469045E+03 0.  0.
        -24    2    3    3    0    0  0.47888975039E+02  0.81415318281E+02 -0.24988324108E+02  0.12772768758E+03  0.82268693019E+02 0.  0.
          6    2    1    2  501    0 -0.37759457201E+02 -0.55640652982E+02  0.10310122474E+03  0.20969722028E+03  0.16976867431E+03 0.  0.
         24    2    5    5    0    0 -0.10997461892E+01 -0.78505584058E+02  0.11947441852E+03  0.16325466481E+03  0.78826472268E+02 0.  0.
          5    1    5    5  501    0 -0.36659711012E+02  0.22864931076E+02 -0.16373193779E+02  0.46442555476E+02  0.47000000000E+01 0. -1.
        -13    1    6    6    0    0  0.36603732303E+02 -0.33628369286E+02  0.73652321812E+02  0.88855866141E+02  0.00000000000E+00 0.  1.
         14    1    6    6    0    0 -0.37703478492E+02 -0.44877214773E+02  0.45822096708E+02  0.74398798665E+02  0.00000000000E+00 0. -1.
         -5    1    3    3    0  503 -0.10129517838E+02 -0.25774665299E+02 -0.83275711550E+02  0.87885576957E+02  0.47000000000E+01 0.  1.
         13    1    4    4    0    0  0.13896893840E+02  0.36010511195E+02 -0.52117367881E+02  0.64854457131E+02  0.00000000000E+00 0. -1.
        -14    1    4    4    0    0  0.33992081199E+02  0.45404807087E+02  0.27129043773E+02  0.62873230447E+02  0.00000000000E+00 0.  1.
</event>
<event>
12    1  0.8133506E-002  0.1886854E+03  0.7818608E-02  0.1160369E+00
         21   -1    0    0  501  502  0.00000000000E+00  0.00000000000E+00  0.54377745824E+02  0.54377745824E+02  0.00000000000E+00 0.  1.
         21   -1    0    0  502  503 -0.00000000000E+00 -0.00000000000E+00 -0.64562792071E+03  0.64562792071E+03  0.00000000000E+00 0.  1.
         -6    2    1    2    0  503  0.21878024000E+02 -0.67287287602E+02 -0.27522874525E+03  0.33194083377E+03  0.17154482769E+03 0.  0.
        -24    2    3    3    0    0 -0.45716476918E+02 -0.35645600584E+02 -0.10135442427E+03  0.14266700460E+03  0.81978959381E+02 0.  0.
          6    2    1    2  501    0 -0.21878024000E+02  0.67287287602E+02 -0.31602142964E+03  0.36806483276E+03  0.17491698065E+03 0.  0.
         24    2    5    5    0    0  0.29511402427E+02  0.49566070430E+02 -0.78719540201E+02  0.12457111330E+03  0.77417556463E+02 0.  0.
          5    1    5    5  501    0 -0.51389426427E+02  0.17721217172E+02 -0.23730188944E+03  0.24349371946E+03  0.47000000000E+01 0. -1.
        -11    1    6    6    0    0 -0.72983057534E+01  0.19528471662E+02 -0.73938067093E+02  0.76820988264E+02  0.00000000000E+00 0.  1.
         12    1    6    6    0    0  0.36809708180E+02  0.30037598768E+02 -0.47814731076E+01  0.47750125038E+02  0.00000000000E+00 0. -1.
         -5    1    3    3    0  503  0.67594500918E+02 -0.31641687018E+02 -0.17387432098E+03  0.18927382917E+03  0.47000000000E+01 0.  1.
         11    1    4    4    0    0 -0.15594796627E+02  0.17323232198E+02  0.12396634115E+01  0.23341568520E+02  0.00000000000E+00 0. -1.
        -12    1    4    4    0    0 -0.30121680291E+02 -0.52968832782E+02 -0.10259408768E+03  0.11932543608E+03  0.00000000000E+00 0.  1.
</event>
<event>
12    1  0.8133506E-002  0.1755720E+03  0.7818608E-02  0.1172201E+00
         21   -1    0    0  503  502  0.00000000000E+00  0.00000000000E+00  0.13360157038E+03  0.13360157038E+03  0.00000000000E+00 0.  1.
         21   -1    0    0  501  503 -0.00000000000E+00 -0.00000000000E+00 -0.28046857343E+03  0.28046857343E+03  0.00000000000E+00 0.  1.
          6    2    1    2  501    0 -0.35421239311E+02 -0.13649334551E+01 -0.16084681480E+03  0.23811180758E+03  0.17195641261E+03 0.  0.
         24    2    3    3    0    0  0.21554279957E+02  0.48104958732E+02 -0.58961757014E+02  0.11124126321E+03  0.78226950665E+02 0.  0.
         -6    2    1    2    0  502  0.35421239311E+02  0.13649334551E+01  0.13979811753E+02  0.17595833623E+03  0.17178292615E+03 0.  0.
        -24    2    5    5    0    0 -0.18238182310E+02  0.27326879339E+02 -0.39643272908E+02  0.95640957220E+02  0.80599094180E+02 0.  0.
          5    1    3    3  501    0 -0.56975519268E+02 -0.49469892187E+02 -0.10188505779E+03  0.12687054437E+03  0.47000000000E+01 0. -1.
        -11    1    4    4    0    0  0.43784571121E+02  0.26103504676E+02 -0.61478799458E+02  0.79863160515E+02  0.00000000000E+00 0.  1.
         12    1    4    4    0    0 -0.22230291164E+02  0.22001454055E+02  0.25170424441E+01  0.31378102691E+02  0.00000000000E+00 0. -1.
         -5    1    5    5    0  502  0.53659421621E+02 -0.25961945884E+02  0.53623084661E+02  0.80317379012E+02  0.47000000000E+01 0.  1.
         13    1    6    6    0    0  0.11022425894E+02 -0.10772040288E+02 -0.44751924498E+02  0.47331442729E+02  0.00000000000E+00 0. -1.
        -14    1    6    6    0    0 -0.29260608204E+02  0.38098919628E+02  0.51086515899E+01  0.48309514491E+02  0.00000000000E+00 0.  1.
</event>
<event>
12    1  0.8133506E-002  0.2238815E+03  0.7818608E-02  0.1131254E+00
         21   -1    0    0  503  502  0.00000000000E+00  0.00000000000E+00  0.57980807472E+03  0.57980807472E+03  0.00000000000E+00 0. -1.
         21   -1    0    0  501  503 -0.00000000000E+00 -0.00000000000E+00 -0.95254551349E+02  0.95254551349E+02  0.00000000000E+00 0.  1.
          6    2    1    2  501    0  0.12923898168E+03 -0.63353243090E+02  0.13744701867E+03  0.26270633653E+03  0.17148349343E+03 0.  0.
         24    2    3    3    0    0  0.13045260818E+03 -0.74524213302E+01  0.53042500917E+02  0.16135256315E+03  0.78407405041E+02 0.  0.
         -6    2    1    2    0  502 -0.12923898168E+03  0.63353243090E+02  0.34710650470E+03  0.41235628954E+03  0.16981883323E+03 0.  0.
        -24    2    5    5    0    0 -0.14283162890E+03  0.23577405565E+02  0.32619039370E+03  0.36517100572E+03  0.77413966477E+02 0.  0.
          5    1    3    3  501    0 -0.12136265052E+01 -0.55900821759E+02  0.84404517750E+02  0.10135377338E+03  0.47000000000E+01 0. -1.
        -11    1    4    4    0    0  0.91599067077E+01  0.25035541254E+02  0.65309679648E+01  0.27446962661E+02  0.00000000000E+00 0.  1.
         12    1    4    4    0    0  0.12129270147E+03 -0.32487962584E+02  0.46511532952E+02  0.13390560048E+03  0.00000000000E+00 0. -1.
         -5    1    5    5    0  502  0.13592647227E+02  0.39775837525E+02  0.20916110998E+02  0.47185283815E+02  0.47000000000E+01 0.  1.
         11    1    6    6    0    0 -0.98858174231E+02  0.48991485650E+02  0.25376145847E+03  0.27670920130E+03  0.00000000000E+00 0. -1.
        -12    1    6    6    0    0 -0.43973454672E+02 -0.25414080085E+02  0.72428935233E+02  0.88461804421E+02  0.00000000000E+00 0.  1.
</event>
<event>
12    1  0.8133506E-002  0.1758460E+03  0.7818608E-02  0.1172267E+00
         21   -1    0    0  503  502  0.00000000000E+00  0.00000000000E+00  0.89429625363E+02  0.89429625363E+02  0.00000000000E+00 0.  1.
         21   -1    0    0  501  503 -0.00000000000E+00 -0.00000000000E+00 -0.34695165456E+03  0.34695165456E+03  0.00000000000E+00 0.  1.
          6    2    1    2  501    0  0.38976897230E+01 -0.35438587446E+02 -0.10537127966E+03  0.20499979572E+03  0.17219385646E+03 0.  0.
         24    2    3    3    0    0 -0.13570941751E+02 -0.79866218451E+02 -0.33753311259E+02  0.11880124074E+03  0.80072876004E+02 0.  0.
         -6    2    1    2    0  502 -0.38976897230E+01  0.35438587446E+02 -0.15215074954E+03  0.23138148421E+03  0.17063544527E+03 0.  0.
        -24    2    5    5    0    0 -0.68373275252E+02  0.32843787661E+02 -0.89622319471E+02  0.14140521688E+03  0.78801370904E+02 0.  0.
          5    1    3    3  501    0  0.17468631474E+02  0.44427631005E+02 -0.71617968397E+02  0.86198554974E+02  0.47000000000E+01 0. -1.
        -13    1    4    4    0    0 -0.74617476778E+01  0.15941326336E+02 -0.21551344091E+01  0.17732686432E+02  0.00000000000E+00 0.  1.
         14    1    4    4    0    0 -0.61091940732E+01 -0.95807544788E+02 -0.31598176850E+02  0.10106855431E+03  0.00000000000E+00 0. -1.
         -5    1    5    5    0  502  0.64475585529E+02  0.25947997853E+01 -0.62528430073E+02  0.89976267330E+02  0.47000000000E+01 0.  1.
         11    1    6    6    0    0 -0.43122764430E+01  0.28116363866E+02 -0.67865142149E+02  0.73585346123E+02  0.00000000000E+00 0. -1.
        -12    1    6    6    0    0 -0.64060998809E+02  0.47274237948E+01 -0.21757177322E+02  0.67819870755E+02  0.00000000000E+00 0.  1.
</event>
<event>
12    1  0.8133506E-002  0.2187376E+03  0.7818608E-02  0.1135121E+00
         21   -1    0    0  501  502  0.00000000000E+00  0.00000000000E+00  0.10728349334E+04  0.10728349334E+04  0.00000000000E+00 0. -1.
         21   -1    0    0  502  503 -0.00000000000E+00 -0.00000000000E+00 -0.46876999399E+02  0.46876999399E+02  0.00000000000E+00 0. -1.
         -6    2    1    2    0  503 -0.39811529479E+02  0.12998103007E+03  0.64645642841E+03  0.68246029408E+03  0.17136543731E+03 0.  0.
        -24    2    3    3    0    0 -0.45397291256E+02  0.78900005266E+01  0.21758372841E+03  0.23648798212E+03  0.80378608204E+02 0.  0.
          6    2    1    2  501    0  0.39811529479E+02 -0.12998103007E+03  0.37950150564E+03  0.43725163877E+03  0.16937407348E+03 0.  0.
         24    2    5    5    0    0 -0.11589804127E+01 -0.14749679586E+03  0.33382126168E+03  0.37326601991E+03  0.78321381789E+02 0.  0.
          5    1    5    5  501    0  0.40970509892E+02  0.17515765799E+02  0.45680243958E+02  0.63985618856E+02  0.47000000000E+01 0. -1.
        -11    1    6    6    0    0  0.30852814592E+01  0.17969092968E+01  0.70087425288E+02  0.70178308816E+02  0.00000000000E+00 0.  1.
         12    1    6    6    0    0 -0.42442618719E+01 -0.14929370516E+03  0.26373383639E+03  0.30308771110E+03  0.00000000000E+00 0. -1.
         -5    1    3    3    0  503  0.55857617774E+01  0.12209102954E+03  0.42887270000E+03  0.44597231196E+03  0.47000000000E+01 0.  1.
         11    1    4    4    0    0 -0.66913152369E+02  0.16971811404E+02  0.15452639050E+03  0.16924484543E+03  0.00000000000E+00 0. -1.
        -12    1    4    4    0    0  0.21515861113E+02 -0.90818108774E+01  0.63057337909E+02  0.67243136694E+02  0.00000000000E+00 0.  1.
</event>
<event>
12    1  0.8133506E-002  0.2466738E+03  0.7818608E-02  0.1115657E+00
         21   -1    0    0  503  502  0.00000000000E+00  0.00000000000E+00  0.13314884554E+03  0.13314884554E+03  0.00000000000E+00 0.  1.
         21   -1    0    0  501  503 -0.00000000000E+00 -0.00000000000E+00 -0.87950696307E+03  0.87950696307E+03  0.00000000000E+00 0.  1.
          6    2    1    2  501    0 -0.64482113497E+02 -0.16342212823E+03 -0.72578282409E+03  0.76655638487E+03  0.17315671655E+03 0.  0.
         24    2    3    3    0    0 -0.89384823442E+02 -0.79620027355E+02 -0.56848239120E+03  0.58653290512E+03  0.80744190292E+02 0.  0.
         -6    2    1    2    0  502  0.64482113497E+02  0.16342212823E+03 -0.20575293437E+02  0.24609942373E+03  0.17110478867E+03 0.  0.
        -24    2    5    5    0    0 -0.23010104295E+02  0.41445108233E+02 -0.26155409011E+01  0.94844922003E+02  0.82106980699E+02 0.  0.
          5    1    3    3  501    0  0.24902709945E+02 -0.83802100880E+02 -0.15730043289E+03  0.18002347975E+03  0.47000000000E+01 0. -1.
        -13    1    4    4    0    0 -0.46205376506E+02  0.39716968842E+01 -0.25701315336E+03  0.26116368851E+03  0.00000000000E+00 0.  1.
         14    1    4    4    0    0 -0.43179446936E+02 -0.83591724239E+02 -0.31146923784E+03  0.32536921662E+03  0.00000000000E+00 0. -1.
         -5    1    5    5    0  502  0.87492217792E+02  0.12197702000E+03 -0.17959752536E+02  0.15125450173E+03  0.47000000000E+01 0.  1.
         13    1    6    6    0    0  0.11280186591E+02  0.61882059785E+01 -0.34101350966E+02  0.36447752200E+02  0.00000000000E+00 0. -1.
        -14    1    6    6    0    0 -0.34290290886E+02  0.35256902254E+02  0.31485810065E+02  0.58397169803E+02  0.00000000000E+00 0.  1.
</event>
<event>
12    1  0.8133506E-002  0.2182412E+03  0.7818608E-02  0.1135377E+00
         21   -1    0    0  503  502  0.00000000000E+00  0.00000000000E+00  0.87355132705E+03  0.87355132705E+03  0.00000000000E+00 0.  1.
         21   -1    0    0  501  503 -0.00000000000E+00 -0.00000000000E+00 -0.11207910328E+03  0.11207910328E+03  0.00000000000E+00 0. -1.
          6    2    1    2  501    0 -0.43999067960E+02  0.12654178810E+03  0.27263483829E+02  0.21993755881E+03  0.17228026616E+03 0.  0.
         24    2    3    3    0    0 -0.86862508795E+02  0.70167647144E+02  0.49540746754E+02  0.14554881791E+03  0.79130137542E+02 0.  0.
         -6    2    1    2    0  502  0.43999067960E+02 -0.12654178810E+03  0.73420873994E+03  0.76569287151E+03  0.17109750894E+03 0.  0.
        -24    2    5    5    0    0  0.80419688111E+02 -0.39949096561E+02  0.34524825266E+03  0.36552152513E+03  0.79664125029E+02 0.  0.
          5    1    3    3  501    0  0.42863440835E+02  0.56374140961E+02 -0.22277262925E+02  0.74388740900E+02  0.47000000000E+01 0. -1.
        -11    1    4    4    0    0 -0.47577535535E+02  0.82106710171E+02  0.42126355914E+02  0.10382564040E+03  0.00000000000E+00 0.  1.
         12    1    4    4    0    0 -0.39284973260E+02 -0.11939063027E+02  0.74143908405E+01  0.41723177510E+02  0.00000000000E+00 0. -1.
         -5    1    5    5    0  502 -0.36420620151E+02 -0.86592691544E+02  0.38896048729E+03  0.40017134639E+03  0.47000000000E+01 0.  1.
         13    1    6    6    0    0  0.68934003644E+02 -0.55730081981E+02  0.32699856046E+03  0.33880052751E+03  0.00000000000E+00 0. -1.
        -14    1    6    6    0    0  0.11485684466E+02  0.15780985421E+02  0.18249692196E+02  0.26720997619E+02  0.00000000000E+00 0.  1.
</event>
<event>
12    1  0.8133506E-002  0.2522694E+03  0.7818608E-02  0.1112257E+00
         21   -1    0    0  501  502  0.00000000000E+00  0.00000000000E+00  0.54965422076E+03  0.54965422076E+03  0.00000000000E+00 0.  1.
         21   -1    0    0  502  503 -0.00000000000E+00 -0.00000000000E+00 -0.12267203807E+03  0.12267203807E+03  0.00000000000E+00 0.  1.
         -6    2    1    2    0  503  0.66050262221E+02  0.16926902162E+03  0.12864055673E+03  0.28317529695E+03  0.17500062042E+03 0.  0.
        -24    2    3    3    0    0  0.74537491184E+02  0.19518914612E+03  0.10687089542E+03  0.24796316746E+03  0.80060625623E+02 0.  0.
          6    2    1    2  501    0 -0.66050262221E+02 -0.16926902162E+03  0.29834162595E+03  0.38915096187E+03  0.17151124316E+03 0.  0.
         24    2    5    5    0    0 -0.67972714980E+02 -0.19579697225E+03  0.28085416002E+03  0.35697442611E+03  0.74799313963E+02 0.  0.
          5    1    5    5  501    0  0.19224527585E+01  0.26527950628E+02  0.17487465933E+02  0.32176535766E+02  0.47000000000E+01 0. -1.
        -11    1    6    6    0    0 -0.54201188231E+00 -0.24088055195E+02  0.42019466138E+01  0.24457811335E+02  0.00000000000E+00 0.  1.
         12    1    6    6    0    0 -0.67430703098E+02 -0.17170891706E+03  0.27665221341E+03  0.33251661477E+03  0.00000000000E+00 0. -1.
         -5    1    3    3    0  503 -0.84872289624E+01 -0.25920124498E+02  0.21769661311E+02  0.35212129488E+02  0.47000000000E+01 0.  1.
         13    1    4    4    0    0  0.10994594482E+02  0.12454778773E+03  0.38224956102E+02  0.13074471234E+03  0.00000000000E+00 0. -1.
        -14    1    4    4    0    0  0.63542896701E+02  0.70641358395E+02  0.68645939320E+02  0.11721845513E+03  0.00000000000E+00 0.  1.
</event>
<event>
12    1  0.8133506E-002  0.2818232E+03  0.7818608E-02  0.1094716E+00
         21   -1    0    0  503  502  0.00000000000E+00  0.00000000000E+00  0.18478053170E+03  0.18478053170E+03  0.00000000000E+00 0. -1.
         21   -1    0    0  501  503 -0.00000000000E+00 -0.00000000000E+00 -0.57477121490E+03  0.57477121490E+03  0.00000000000E+00 0. -1.
          6    2    1    2  501    0  0.21801478708E+03 -0.48200302039E+02 -0.38588426126E+03  0.47783992331E+03  0.17196107909E+03 0.  0.
         24    2    3    3    0    0  0.69125054144E+02 -0.39863627889E+01 -0.73958457275E+02  0.12935344985E+03  0.80425725898E+02 0.  0.
         -6    2    1    2    0  502 -0.21801478708E+03  0.48200302039E+02 -0.41064219383E+01  0.28171182329E+03  0.17172935737E+03 0.  0.
        -24    2    5    5    0    0 -0.17143811378E+03  0.80427843331E+02  0.40662327956E+02  0.20936314065E+03  0.79497389320E+02 0.  0.
          5    1    3    3  501    0  0.14888973293E+03 -0.44213939250E+02 -0.31192580398E+03  0.34848647347E+03  0.47000000000E+01 0. -1.
        -11    1    4    4    0    0  0.54204919372E+02  0.12740915153E+02 -0.39248338443E+01  0.55820323572E+02  0.00000000000E+00 0.  1.
         12    1    4    4    0    0  0.14920134772E+02 -0.16727277942E+02 -0.70033623431E+02  0.73533126275E+02  0.00000000000E+00 0. -1.
         -5    1    5    5    0  502 -0.46576673300E+02 -0.32227541292E+02 -0.44768749895E+02  0.72348682645E+02  0.47000000000E+01 0.  1.
         13    1    6    6    0    0 -0.11542231862E+03  0.22014481713E+02  0.50384853184E+02  0.12784984346E+03  0.00000000000E+00 0. -1.
        -14    1    6    6    0    0 -0.56015795154E+02  0.58413361617E+02 -0.97225252278E+01  0.81513297192E+02  0.00000000000E+00 0.  1.
</event>
<event>
12    1  0.8133506E-002  0.1860493E+03  0.7818608E-02  0.1162181E+00
         21   -1    0    0  501  502  0.00000000000E+00  0.00000000000E+00  0.52351830270E+02  0.52351830270E+02  0.00000000000E+00 0. -1.
         21   -1    0    0  502  503 -0.00000000000E+00 -0.00000000000E+00 -0.68386992999E+03  0.68386992999E+03  0.00000000000E+00 0.  1.
         -6    2    1    2    0  503  0.70222629063E+02  0.11780177109E+02 -0.38556933580E+03  0.42810984396E+03  0.17188465778E+03 0.  0.
        -24    2    3    3    0    0 -0.10598937369E+02  0.41069730911E+02 -0.12976830563E+03  0.15820937971E+03  0.79945821735E+02 0.  0.
          6    2    1    2  501    0 -0.70222629063E+02 -0.11780177109E+02 -0.24594876391E+03  0.30811191630E+03  0.17138310386E+03 0.  0.
         24    2    5    5    0    0 -0.45705250919E+02  0.46177248910E+02 -0.79771995963E+02  0.13035654150E+03  0.80049661421E+02 0.  0.
          5    1    5    5  501    0 -0.24517378144E+02 -0.57957426019E+02 -0.16617676795E+03  0.17775537480E+03  0.47000000000E+01 0. -1.
        -11    1    6    6    0    0 -0.32322142164E+01  0.38853367637E+02 -0.78022456676E+02  0.87221185105E+02  0.00000000000E+00 0.  1.
         12    1    6    6    0    0 -0.42473036703E+02  0.73238812734E+01 -0.17495392873E+01  0.43135356396E+02  0.00000000000E+00 0. -1.
         -5    1    3    3    0  503  0.80821566432E+02 -0.29289553803E+02 -0.25580103018E+03  0.26990046425E+03  0.47000000000E+01 0.  1.
         11    1    4    4    0    0 -0.71174408139E+01  0.11556896711E+02  0.90059768923E+01  0.16288874888E+02  0.00000000000E+00 0. -1.
        -12    1    4    4    0    0 -0.34814965556E+01  0.29512834201E+02 -0.13877428252E+03  0.14192050482E+03  0.00000000000E+00 0.  1.
</event>
<event>
12    1  0.8133506E-002  0.1977283E+03  0.7818608E-02  0.1155444E+00
         21   -1    0    0  501  502  0.00000000000E+00  0.00000000000E+00  0.94715362735E+03  0.94715362735E+03  0.00000000000E+00 0. -1.
         21   -1    0    0  502  503 -0.00000000000E+00 -0.00000000000E+00 -0.40620022406E+02  0.40620022406E+02  0.00000000000E+00 0.  1.
         -6    2    1    2    0  503  0.96906824960E+02 -0.19187918943E+02  0.30548262994E+03  0.35503455325E+03  0.15156116865E+03 0.  0.
        -24    2    3    3    0    0  0.46226979759E+02  0.17491770667E+02  0.98491947881E+02  0.13874521278E+03  0.84301094727E+02 0.  0.
          6    2    1    2  501    0 -0.96906824960E+02  0.19187918943E+02  0.60105097500E+03  0.63273909651E+03  0.17128158321E+03 0.  0.
         24    2    5    5    0    0 -0.41615295815E+02 -0.20784772336E+02  0.51379150187E+03  0.52187307424E+03  0.78777906887E+02 0.  0.
          5    1    5    5  501    0 -0.55291529146E+02  0.39972691279E+02  0.87259473126E+02  0.11086602227E+03  0.47000000000E+01 0. -1.
        -13    1    6    6    0    0 -0.30317941129E+02  0.32157357899E+01  0.59951060651E+02  0.67258071517E+02  0.00000000000E+00 0.  1.
         14    1    6    6    0    0 -0.11297354686E+02 -0.24000508126E+02  0.45384044122E+03  0.45461500273E+03  0.00000000000E+00 0. -1.
         -5    1    3    3    0  503  0.50679845201E+02 -0.36679689610E+02  0.20699068206E+03  0.21628934047E+03  0.47000000000E+01 0.  1.
         13    1    4    4    0    0 -0.81957949086E+01 -0.15724535587E+02  0.63678482603E+02  0.66101295148E+02  0.00000000000E+00 0. -1.
        -14    1    4    4    0    0  0.54422774668E+02  0.33216306254E+02  0.34813465278E+02  0.72643917628E+02  0.00000000000E+00 0.  1.
</event>
<event>
12    1  0.8133506E-002  0.1914723E+03  0.7818608E-02  0.1157725E+00
         21   -1    0    0  503  502  0.00000000000E+00  0.00000000000E+00  0.53888254223E+02  0.53888254223E+02  0.00000000000E+00 0.  1.
         21   -1    0    0  501  503 -0.00000000000E+00 -0.00000000000E+00 -0.68779805173E+03  0.68779805173E+03  0.00000000000E+00 0. -1.
          6    2    1    2  501    0  0.49109990254E+01  0.78295458385E+02 -0.37258175569E+03  0.41772028582E+03  0.17181029013E+03 0.  0.
         24    2    3    3    0    0  0.22289779230E+02 -0.12610648610E+02 -0.10137702870E+03  0.13111945499E+03  0.79114769870E+02 0.  0.
         -6    2    1    2    0  502 -0.49109990254E+01 -0.78295458385E+02 -0.26132804181E+03  0.32396602013E+03  0.17466350520E+03 0.  0.
        -24    2    5    5    0    0 -0.64079884884E+02 -0.79726631768E+02 -0.20446695721E+03  0.24175727210E+03  0.78595639588E+02 0.  0.
          5    1    3    3  501    0 -0.17378780204E+02  0.90906106994E+02 -0.27120472699E+03  0.28660083083E+03  0.47000000000E+01 0. -1.
        -13    1    4    4    0    0  0.75913052297E+01  0.20977417465E+02  0.10448753845E+01  0.22333197781E+02  0.00000000000E+00 0.  1.
         14    1    4    4    0    0  0.14698474000E+02 -0.33588066074E+02 -0.10242190408E+03  0.10878625721E+03  0.00000000000E+00 0. -1.
         -5    1    5    5    0  502  0.59168885859E+02  0.14311733836E+01 -0.56861084604E+02  0.82208748034E+02  0.47000000000E+01 0.  1.
         13    1    6    6    0    0 -0.59331973907E+02 -0.95525359109E+02 -0.17607032407E+03  0.20891657756E+03  0.00000000000E+00 0. -1.
        -14    1    6    6    0    0 -0.47479109766E+01  0.15798727341E+02 -0.28396633138E+02  0.32840694539E+02  0.00000000000E+00 0.  1.
</event>
<event>
12    1  0.8133506E-002  0.2495505E+03  0.7818608E-02  0.1113636E+00
         21   -1    0    0  503  502  0.00000000000E+00  0.00000000000E+00  0.11994605630E+04  0.11994605630E+04  0.00000000000E+00 0. -1.
         21   -1    0    0  501  503 -0.00000000000E+00 -0.00000000000E+00 -0.56783700546E+02  0.56783700546E+02  0.00000000000E+00 0. -1.
          6    2    1    2  501    0  0.12529989948E+02 -0.18012141500E+03  0.38665458753E+03  0.46019257200E+03  0.17226348562E+03 0.  0.
         24    2    3    3    0    0  0.49114255057E+02 -0.12729508685E+03  0.36255025418E+03  0.39140203278E+03  0.56005493272E+02 0.  0.
         -6    2    1    2    0  502 -0.12529989948E+02  0.18012141500E+03  0.75602227493E+03  0.79605169155E+03  0.17183681398E+03 0.  0.
        -24    2    5    5    0    0 -0.70629537048E+02  0.12125202538E+03  0.56156307625E+03  0.58468085070E+03  0.82510747251E+02 0.  0.
          5    1    3    3  501    0 -0.36584265109E+02 -0.52826328152E+02  0.24104333348E+02  0.68790539217E+02  0.47000000000E+01 0. -1.
        -11    1    4    4    0    0  0.20972114870E+02 -0.66224365914E+02  0.25724208833E+03  0.26645635337E+03  0.00000000000E+00 0.  1.
         12    1    4    4    0    0  0.28142140187E+02 -0.61070720934E+02  0.10530816585E+03  0.12494567941E+03  0.00000000000E+00 0. -1.
         -5    1    5    5    0  502  0.58099547100E+02  0.58869389621E+02  0.19445919868E+03  0.21137084084E+03  0.47000000000E+01 0.  1.
         13    1    6    6    0    0 -0.47062934584E+01  0.82477596980E+02  0.22925796254E+03  0.24368815439E+03  0.00000000000E+00 0. -1.
        -14    1    6    6    0    0 -0.65923243590E+02  0.38774428400E+02  0.33230511371E+03  0.34099269632E+03  0.00000000000E+00 0.  1.
</event>
<event>
12    1  0.8133506E-002  0.1752807E+03  0.7818608E-02  0.1172705E+00
         21   -1    0    0  501  502  0.00000000000E+00  0.00000000000E+00  0.14389959681E+03  0.14389959681E+03  0.00000000000E+00 0. -1.
         21   -1    0    0  502  503 -0.00000000000E+00 -0.00000000000E+00 -0.13067789733E+04  0.13067789733E+04  0.00000000000E+00 0. -1.
         -6    2    1    2    0  503  0.13865404404E+02  0.34341450578E+02 -0.12455330362E+04  0.12578059675E+04  0.17132344511E+03 0.  0.
        -24    2    3    3    0    0 -0.57406193659E+01 -0.32167843463E+02 -0.41438128299E+03  0.42375368539E+03  0.82386973029E+02 0.  0.
          6    2    1    2  501    0 -0.13865404404E+02 -0.34341450578E+02  0.82653659703E+02  0.19287260266E+03  0.17028396497E+03 0.  0.
         24    2    5    5    0    0  0.45765204124E+00  0.32891657566E+02  0.88069193858E+02  0.12375777945E+03  0.80484374165E+02 0.  0.
          5    1    5    5  501    0 -0.14323056446E+02 -0.67233108144E+02 -0.54155341551E+01  0.69114823206E+02  0.47000000000E+01 0. -1.
        -11    1    6    6    0    0 -0.13241853759E+02  0.36973917874E+02  0.98513865517E+02  0.10605375521E+03  0.00000000000E+00 0.  1.
         12    1    6    6    0    0  0.13699505800E+02 -0.40822603084E+01 -0.10444671659E+02  0.17704024245E+02  0.00000000000E+00 0. -1.
         -5    1    3    3    0  503  0.19606023770E+02  0.66509294041E+02 -0.83115175321E+03  0.83405228207E+03  0.47000000000E+01 0.  1.
         11    1    4    4    0    0  0.13951229751E+02  0.12455711934E+02 -0.24445896565E+02  0.30779594381E+02  0.00000000000E+00 0. -1.
        -12    1    4    4    0    0 -0.19691849117E+02 -0.44623555397E+02 -0.38993538643E+03  0.39297409101E+03  0.00000000000E+00 0.  1.
</event>
<event>
12    1  0.8133506E-002  0.2053248E+03  0.7818608E-02  0.1147065E+00
         21   -1    0    0  501  502  0.00000000000E+00  0.00000000000E+00  0.21860140571E+03  0.21860140571E+03  0.00000000000E+00 0.  1.
         21   -1    0    0  502  503 -0.00000000000E+00 -0.00000000000E+00 -0.18910441431E+03  0.18910441431E+03  0.00000000000E+00 0. -1.
         -6    2    1    2    0  503  0.30220265382E+02 -0.10723475371E+03  0.44163117941E+02  0.20185785861E+03  0.16243046898E+03 0.  0.
        -24    2    3    3    0    0  0.71565585396E+02 -0.34019443325E+02  0.29346772480E+02  0.11635036622E+03  0.79982617656E+02 0.  0.
          6    2    1    2  501    0 -0.30220265382E+02  0.10723475371E+03 -0.14666126541E+02  0.20584796141E+03  0.17246950776E+03 0.  0.
         24    2    5    5    0    0 -0.47072761754E+02  0.96321623965E+01  0.29814189775E+02  0.97170176172E+02  0.79022362491E+02 0.  0.
          5    1    5    5  501    0  0.16852496372E+02  0.97602591313E+02 -0.44480316316E+02  0.10867778524E+03  0.47000000000E+01 0. -1.
        -11    1    6    6    0    0 -0.21673356642E+02  0.40045796384E+02 -0.31260083348E+01  0.45641780467E+02  0.00000000000E+00 0.  1.
         12    1    6    6    0    0 -0.25399405113E+02 -0.30413633987E+02  0.32940198110E+02  0.51528395705E+02  0.00000000000E+00 0. -1.
         -5    1    3    3    0  503 -0.41345320014E+02 -0.73215310384E+02  0.14816345461E+02  0.85507492389E+02  0.47000000000E+01 0.  1.
         13    1    4    4    0    0  0.38243962194E+02 -0.56286538703E+02  0.24679515270E+01  0.68094536258E+02  0.00000000000E+00 0. -1.
        -14    1    4    4    0    0  0.33321623202E+02  0.22267095378E+02  0.26878820953E+02  0.48255829961E+02  0.00000000000E+00 0.  1.
</event>
<event>
12    1  0.8133506E-002  0.3324448E+03  0.7818608E-02  0.1070160E+00
         21   -1    0    0  501  502  0.00000000000E+00  0.00000000000E+00  0.91320240411E+03  0.91320240411E+03  0.00000000000E+00 0.  1.
         21   -1    0    0  502  503 -0.00000000000E+00 -0.00000000000E+00 -0.27498534904E+03  0.27498534904E+03  0.00000000000E+00 0.  1.
         -6    2    1    2    0  503  0.13419460593E+03 -0.25084680812E+03 -0.12609766371E+03  0.35470316221E+03  0.17023924074E+03 0.  0.
        -24    2    3    3    0    0  0.16693580442E+03 -0.20566060193E+03 -0.10696212985E+03  0.29552514295E+03  0.75699186978E+02 0.  0.
          6    2    1    2  501    0 -0.13419460593E+03  0.25084680812E+03  0.76431471877E+03  0.83348459093E+03  0.17200947820E+03 0.  0.
         24    2    5    5    0    0 -0.80910056523E+02  0.21875873860E+03  0.70710107641E+03  0.74884194044E+03  0.79815390349E+02 0.  0.
          5    1    5    5  501    0 -0.53284549405E+02  0.32088069520E+02  0.57213642356E+02  0.84642650492E+02  0.47000000000E+01 0. -1.
        -11    1    6    6    0    0 -0.25057708587E+01  0.98436161318E+02  0.35950982916E+03  0.37275095440E+03  0.00000000000E+00 0.  1.
         12    1    6    6    0    0 -0.78404285664E+02  0.12032257728E+03  0.34759124726E+03  0.37609098604E+03  0.00000000000E+00 0. -1.
         -5    1    3    3    0  503 -0.32741198489E+02 -0.45186206189E+02 -0.19135533859E+02  0.59178019267E+02  0.47000000000E+01 0.  1.
         11    1    4    4    0    0  0.27198499589E+02 -0.85806116405E+02 -0.49184762457E+02  0.10257479637E+03  0.00000000000E+00 0. -1.
        -12    1    4    4    0    0  0.13973730483E+03 -0.11985448553E+03 -0.57777367389E+02  0.19295034658E+03  0.00000000000E+00 0.  1.
</event>
<event>
12    1  0.8133506E-002  0.2379330E+03  0.7818608E-02  0.1121299E+00
         21   -1    0    0  501  502  0.00000000000E+00  0.00000000000E+00  0.77250741341E+02  0.77250741341E+02  0.00000000000E+00 0.  1.
         21   -1    0    0  502  503 -0.00000000000E+00 -0.00000000000E+00 -0.74521728094E+03  0.74521728094E+03  0.00000000000E+00 0. -1.
         -6    2    1    2    0  503  0.15785432616E+03 -0.43116139464E+02 -0.27692550137E+03  0.36510250341E+03  0.17272844271E+03 0.  0.
        -24    2    3    3    0    0  0.21533072181E+02  0.71544976699E+01 -0.69746309942E+02  0.11200977613E+03  0.84656849480E+02 0.  0.
          6    2    1    2  501    0 -0.15785432616E+03  0.43116139464E+02 -0.39104103823E+03  0.45736551886E+03  0.17173565296E+03 0.  0.
         24    2    5    5    0    0 -0.12526103683E+03  0.42795030059E+02 -0.15603293165E+03  0.22006122944E+03  0.80987202683E+02 0.  0.
          5    1    5    5  501    0 -0.32593289328E+02  0.32110940424E+00 -0.23500810658E+03  0.23730428942E+03  0.47000000000E+01 0. -1.
        -13    1    6    6    0    0 -0.27571562672E+02  0.49933354999E+02 -0.52225996752E+02  0.77337479571E+02  0.00000000000E+00 0.  1.
         14    1    6    6    0    0 -0.97689474159E+02 -0.71383249394E+01 -0.10380693490E+03  0.14272374987E+03  0.00000000000E+00 0. -1.
         -5    1    3    3    0  503  0.13632125398E+03 -0.50270637134E+02 -0.20717919143E+03  0.25309272728E+03  0.47000000000E+01 0.  1.
         13    1    4    4    0    0 -0.17870474867E+02  0.89689004503E+01 -0.69755345384E+02  0.72564476549E+02  0.00000000000E+00 0. -1.
        -14    1    4    4    0    0  0.39403547048E+02 -0.18144027804E+01  0.90354420881E-02  0.39445299581E+02  0.00000000000E+00 0.  1.
</event>
<event>
12    1  0.8133506E-002  0.1874509E+03  0.7818608E-02  0.1160840E+00
         21   -1    0    0  503  502  0.00000000000E+00  0.00000000000E+00  0.84765291518E+02  0.84765291518E+02  0.00000000000E+00 0. -1.
         21   -1    0    0  501  503 -0.00000000000E+00 -0.00000000000E+00 -0.64993852896E+03  0.64993852896E+03  0.00000000000E+00 0. -1.
          6    2    1    2  501    0  0.53245383529E+02  0.51053476287E+02 -0.50381472697E+03  0.53746614390E+03  0.17204373982E+03 0.  0.
         24    2    3    3    0    0 -0.92967372805E+01  0.27830452813E+02 -0.42798464668E+03  0.43635671421E+03  0.79845856577E+02 0.  0.
         -6    2    1    2    0  502 -0.53245383529E+02 -0.51053476287E+02 -0.61358510466E+02  0.19723767658E+03  0.17232616153E+03 0.  0.
        -24    2    5    5    0    0 -0.77036496040E+02 -0.40899169762E+02  0.12881984402E+02  0.11847938778E+03  0.79145789516E+02 0.  0.
          5    1    3    3  501    0  0.62542120810E+02  0.23223023475E+02 -0.75830080291E+02  0.10110942969E+03  0.47000000000E+01 0. -1.
        -13    1    4    4    0    0  0.42371603065E+01 -0.17750533757E+02 -0.27158886494E+02  0.32720637092E+02  0.00000000000E+00 0.  1.
         14    1    4    4    0    0 -0.13533897587E+02  0.45580986569E+02 -0.40082576019E+03  0.40363607712E+03  0.00000000000E+00 0. -1.
         -5    1    5    5    0  502  0.23791112510E+02 -0.10154306526E+02 -0.74240494868E+02  0.78758288794E+02  0.47000000000E+01 0.  1.
         13    1    6    6    0    0 -0.13304562324E+02  0.13418170847E+02  0.27608582129E+02  0.33455829010E+02  0.00000000000E+00 0. -1.
        -14    1    6    6    0    0 -0.63731933715E+02 -0.54317340609E+02 -0.14726597727E+02  0.85023558774E+02  0.00000000000E+00 0.  1.
</event>
<event>
12    1  0.8133506E-002  0.2060518E+03  0.7818608E-02  0.1145024E+00
         21   -1    0    0  501  502  0.00000000000E+00  0.00000000000E+00  0.98869155135E+03  0.98869155135E+03  0.00000000000E+00 0.  1.
         21   -1    0    0  502  503 -0.00000000000E+00 -0.00000000000E+00 -0.11506697957E+03  0.11506697957E+03  0.00000000000E+00 0.  1.
         -6    2    1    2    0  503 -0.65948507768E+02  0.89672334824E+02 -0.45124407171E+00  0.20605227371E+03  0.17339839264E+03 0.  0.
        -24    2    3    3    0    0 -0.22592255006E+01  0.67642336142E+02 -0.57544599194E+02  0.11760236293E+03  0.77060658783E+02 0.  0.
          6    2    1    2  501    0  0.65948507768E+02 -0.89672334824E+02  0.87407581585E+03  0.89770625722E+03  0.17169059113E+03 0.  0.
         24    2    5    5    0    0  0.42541762901E+02 -0.12877325081E+03  0.71281878598E+03  0.73006772638E+03  0.80597219257E+02 0.  0.
          5    1    5    5  501    0  0.23406744867E+02  0.39100915986E+02  0.16125702988E+03  0.16763853084E+03  0.47000000000E+01 0. -1.
        -11    1    6    6    0    0 -0.17703987106E+02 -0.73900076916E+02  0.36569676650E+03  0.37350873826E+03  0.00000000000E+00 0.  1.
         12    1    6    6    0    0  0.60245750007E+02 -0.54873173894E+02  0.34712201947E+03  0.35655898812E+03  0.00000000000E+00 0. -1.
         -5    1    3    3    0  503 -0.63689282267E+02  0.22029998682E+02  0.57093355123E+02  0.88449910779E+02  0.47000000000E+01 0.  1.
         11    1    4    4    0    0 -0.24125381732E+02  0.27354681714E+02 -0.61595779521E+02  0.71584584306E+02  0.00000000000E+00 0. -1.
        -12    1    4    4    0    0  0.21866156231E+02  0.40287654427E+02  0.40511803269E+01  0.46017778626E+02  0.00000000000E+00 0.  1.
</event>
<event>
12    1  0.8133506E-002  0.2817769E+03  0.7818608E-02  0.1095107E+00
         21   -1    0    0  503  502  0.00000000000E+00  0.00000000000E+00  0.54978371561E+03  0.54978371561E+03  0.00000000000E+00 0.  1.
         21   -1    0    0  501  503 -0.00000000000E+00 -0.00000000000E+00 -0.14298951331E+03  0.14298951331E+03  0.00000000000E+00 0.  1.
          6    2    1    2  501    0  0.16341421642E+03  0.15042270083E+03  0.20597267166E+03  0.34675660305E+03  0.16877264360E+03 0.  0.
         24    2    3    3    0    0  0.22398256779E+02  0.98154576651E+02  0.82914772132E+02  0.15237863537E+03  0.78793313527E+02 0.  0.
         -6    2    1    2    0  502 -0.16341421642E+03 -0.15042270083E+03  0.20082153063E+03  0.34601662588E+03  0.17339845203E+03 0.  0.
        -24    2    5    5    0    0 -0.50281065486E+02 -0.72065345005E+00  0.63744472624E+02  0.11359024471E+03  0.79439794913E+02 0.  0.
          5    1    3    3  501    0  0.14101595964E+03  0.52268124183E+02  0.12305789953E+03  0.19437796767E+03  0.47000000000E+01 0. -1.
        -13    1    4    4    0    0  0.44072603013E+02  0.75290423999E+02  0.32839883098E+02  0.93217488725E+02  0.00000000000E+00 0.  1.
         14    1    4    4    0    0 -0.21674346234E+02  0.22864152653E+02  0.50074889034E+02  0.59161146650E+02  0.00000000000E+00 0. -1.
         -5    1    5    5    0  502 -0.11313315093E+03 -0.14970204738E+03  0.13707705801E+03  0.23242638117E+03  0.47000000000E+01 0.  1.
         13    1    6    6    0    0 -0.34956353313E+02 -0.21950580081E+02 -0.35031177511E+01  0.41425190848E+02  0.00000000000E+00 0. -1.
        -14    1    6    6    0    0 -0.15324712174E+02  0.21229926631E+02  0.67247590375E+02  0.72165053864E+02  0.00000000000E+00 0.  1.
</event>
<event>
12    1  0.8133506E-002  0.2759186E+03  0.7818608E-02  0.1098027E+00
         21   -1    0    0  501  502  0.00000000000E+00  0.00000000000E+00  0.96720518668E+03  0.96720518668E+03  0.00000000000E+00 0.  1.
         21   -1    0    0  502  503 -0.00000000000E+00 -0.00000000000E+00 -0.14978563343E+03  0.14978563343E+03  0.00000000000E+00 0. -1.
         -6    2    1    2    0  503 -0.80328025386E+02  0.19953446312E+03  0.23268551134E+02  0.27627275457E+03  0.17180982455E+03 0.  0.
        -24    2    3    3    0    0 -0.56306961356E+02  0.50316768645E+02 -0.32887718978E+02  0.11497009330E+03  0.80213896487E+02 0.  0.
          6    2    1    2  501    0  0.80328025386E+02 -0.19953446312E+03  0.79415100212E+03  0.84071806554E+03  0.17281336156E+03 0.  0.
         24    2    5    5    0    0  0.10938811239E+03 -0.95350765764E+02  0.43755867308E+03  0.46805345684E+03  0.80987149666E+02 0.  0.
          5    1    5    5  501    0 -0.29060087000E+02 -0.10418369735E+03  0.35659232903E+03  0.37266460870E+03  0.47000000000E+01 0. -1.
        -13    1    6    6    0    0  0.99155847333E+02 -0.70226513387E+02  0.41606103308E+03  0.43344022482E+03  0.00000000000E+00 0.  1.
         14    1    6    6    0    0  0.10232265053E+02 -0.25124252377E+02  0.21497640003E+02  0.34613232026E+02  0.00000000000E+00 0. -1.
         -5    1    3    3    0  503 -0.24021064030E+02  0.14921769447E+03  0.56156270112E+02  0.16130266127E+03  0.47000000000E+01 0.  1.
         13    1    4    4    0    0 -0.72980686674E+02  0.46775950322E+02 -0.11229381831E+02  0.87408633282E+02  0.00000000000E+00 0. -1.
        -14    1    4    4    0    0  0.16673725317E+02  0.35408183235E+01 -0.21658337147E+02  0.27561460018E+02  0.00000000000E+00 0.  1.
</event>
<event>
12    1  0.8133506E-002  0.2411777E+03  0.7818608E-02  0.1119021E+00
         21   -1    0    0  503  502  0.00000000000E+00  0.00000000000E+00  0.36359828203E+03  0.36359828203E+03  0.00000000000E+00 0. -1.
         21   -1    0    0  501  503 -0.00000000000E+00 -0.00000000000E+00 -0.16085549259E+03  0.16085549259E+03  0.00000000000E+00 0.  1.
          6    2    1    2  501    0  0.14288513514E+03  0.87327406977E+02  0.81547327552E+02  0.25459110099E+03  0.17356389089E+03 0.  0.
         24    2    3    3    0    0  0.11208912193E+03 -0.54422903176E+01  0.21216699497E+02  0.13962812501E+03  0.80326055406E+02 0.  0.
         -6    2    1    2    0  502 -0.14288513514E+03 -0.87327406977E+02  0.12119546189E+03  0.26986267363E+03  0.17347992617E+03 0.  0.
        -24    2    5    5    0    0 -0.90714359823E+02 -0.67004131389E+02  0.15284432814E+03  0.20537572873E+03  0.78097071676E+02 0.  0.
          5    1    3    3  501    0  0.30796013211E+02  0.92769697294E+02  0.60330628056E+02  0.11496297599E+03  0.47000000000E+01 0. -1.
        -11    1    4    4    0    0  0.25117330901E+02  0.29407624365E+02 -0.11562237273E+02  0.40365505238E+02  0.00000000000E+00 0.  1.
         12    1    4    4    0    0  0.86971791028E+02 -0.34849914682E+02  0.32778936769E+02  0.99262619771E+02  0.00000000000E+00 0. -1.
         -5    1    5    5    0  502 -0.52170775317E+02 -0.20323275588E+02 -0.31648866255E+02  0.64486944904E+02  0.47000000000E+01 0.  1.
         13    1    6    6    0    0 -0.83585128554E+01 -0.13581706101E+02  0.83939694502E+02  0.85441206633E+02  0.00000000000E+00 0. -1.
        -14    1    6    6    0    0 -0.82355846968E+02 -0.53422425287E+02  0.68904633641E+02  0.11993452210E+03  0.00000000000E+00 0.  1.
</event>
<event>
12    1  0.8133506E-002  0.2593913E+03  0.7818608E-02  0.1108101E+00
         21   -1    0    0  501  502  0.00000000000E+00  0.00000000000E+00  0.14554415679E+03  0.14554415679E+03  0.00000000000E+00 0. -1.
         21   -1    0    0  502  503 -0.00000000000E+00 -0.00000000000E+00 -0.53642130300E+03  0.53642130300E+03  0.00000000000E+00 0.  1.
         -6    2    1    2    0  503  0.12017424800E+03  0.14720035936E+03 -0.32671965122E+03  0.41475760694E+03  0.17078743029E+03 0.  0.
        -24    2    3    3    0    0  0.12364003572E+03  0.15428679383E+03 -0.33861949905E+03  0.39972678473E+03  0.77634168462E+02 0.  0.
          6    2    1    2  501    0 -0.12017424800E+03 -0.14720035936E+03 -0.64157494990E+02  0.26720785285E+03  0.17656176478E+03 0.  0.
         24    2    5    5    0    0 -0.15251361381E+03 -0.13853202420E+03 -0.37349483080E+02  0.22406003578E+03  0.79726981754E+02 0.  0.
          5    1    5    5  501    0  0.32339365810E+02 -0.86683351589E+01 -0.26808011910E+02  0.43147817071E+02  0.47000000000E+01 0. -1.
        -13    1    6    6    0    0 -0.56091975865E+02 -0.46553574063E+02 -0.52662433493E+02  0.89927064424E+02  0.00000000000E+00 0.  1.
         14    1    6    6    0    0 -0.96421637947E+02 -0.91978450138E+02  0.15312950413E+02  0.13413297135E+03  0.00000000000E+00 0. -1.
         -5    1    3    3    0  503 -0.34657877160E+01 -0.70864344664E+01  0.11899847830E+02  0.15030822210E+02  0.47000000000E+01 0.  1.
         13    1    4    4    0    0  0.96648339587E+02  0.14002867320E+03 -0.22506256061E+03  0.28213841825E+03  0.00000000000E+00 0. -1.
        -14    1    4    4    0    0  0.26991696130E+02  0.14258120622E+02 -0.11355693844E+03  0.11758836648E+03  0.00000000000E+00 0.  1.
</event>
<event>
12    1  0.8133506E-002  0.1849018E+03  0.7818608E-02  0.1163662E+00
         21   -1    0    0  501  502  0.00000000000E+00  0.00000000000E+00  0.72728146098E+03  0.72728146098E+03  0.00000000000E+00 0.  1.
         21   -1    0    0  502  503 -0.00000000000E+00 -0.00000000000E+00 -0.54692163491E+02  0.54692163491E+02  0.00000000000E+00 0.  1.
         -6    2    1    2    0  503  0.66604479782E+02  0.45743142180E+01  0.18278122970E+03  0.25842741751E+03  0.17005490617E+03 0.  0.
        -24    2    3    3    0    0  0.93564448258E+02 -0.19292758135E+02  0.76240877328E+02  0.14586892727E+03  0.79615049279E+02 0.  0.
          6    2    1    2  501    0 -0.66604479782E+02 -0.45743142180E+01  0.48980806779E+03  0.52354620696E+03  0.17242855469E+03 0.  0.
         24    2    5    5    0    0 -0.11208893541E+03 -0.50145655839E+01  0.33701172132E+03  0.36405375253E+03  0.79807011689E+02 0.  0.
          5    1    5    5  501    0  0.45484455628E+02  0.44025136585E+00  0.15279634647E+03  0.15949245443E+03  0.47000000000E+01 0. -1.
        -11    1    6    6    0    0 -0.84244714987E+01  0.27725478213E+02  0.71093241974E+02  0.76771888843E+02  0.00000000000E+00 0.  1.
         12    1    6    6    0    0 -0.10366446391E+03 -0.32740043796E+02  0.26591847935E+03  0.28728186369E+03  0.00000000000E+00 0. -1.
         -5    1    3    3    0  503 -0.26959968477E+02  0.23867072353E+02  0.10654035237E+03  0.11255849024E+03  0.47000000000E+01 0.  1.
         11    1    4    4    0    0  0.34716004405E+02  0.17584755448E+01 -0.12834172356E+02  0.37054138476E+02  0.00000000000E+00 0. -1.
        -12    1    4    4    0    0  0.58848443853E+02 -0.21051233680E+02  0.89075049683E+02  0.10881478879E+03  0.00000000000E+00 0.  1.
</event>
<event>
12    1  0.8133506E-002  0.1776896E+03  0.7818608E-02  0.1171211E+00
         21   -1    0    0  503  502  0.00000000000E+00  0.00000000000E+00  0.16763435224E+03  0.16763435224E+03  0.00000000000E+00 0. -1.
         21   -1    0    0  501  503 -0.00000000000E+00 -0.00000000000E+00 -0.18560846300E+03  0.18560846300E+03  0.00000000000E+00 0. -1.
          6    2    1    2  501    0  0.15486147825E+02  0.52139878644E+01 -0.27769213019E+02  0.17528342695E+03  0.17229667474E+03 0.  0.
         24    2    3    3    0    0 -0.22614657074E+02  0.55713431554E+02 -0.45790178679E+02  0.10933867469E+03  0.79011367217E+02 0.  0.
         -6    2    1    2    0  502 -0.15486147825E+02 -0.52139878644E+01  0.97951022591E+01  0.17795938828E+03  0.17693669322E+03 0.  0.
        -24    2    5    5    0    0 -0.54426522428E+02 -0.59389074767E+01 -0.46694044896E+02  0.10918445078E+03  0.82118167886E+02 0.  0.
          5    1    3    3  501    0  0.38100804898E+02 -0.50499443689E+02  0.18020965660E+02  0.65944752256E+02  0.47000000000E+01 0. -1.
        -13    1    4    4    0    0 -0.36615178374E+02  0.64796916929E+02 -0.17442464181E+02  0.76443124528E+02  0.00000000000E+00 0.  1.
         14    1    4    4    0    0  0.14000521301E+02 -0.90834853749E+01 -0.28347714498E+02  0.32895550163E+02  0.00000000000E+00 0. -1.
         -5    1    5    5    0  502  0.38940374603E+02  0.72491961229E+00  0.56489147156E+02  0.68774937507E+02  0.47000000000E+01 0.  1.
         11    1    6    6    0    0 -0.66655530008E+02 -0.17379839921E+02 -0.10999540703E+02  0.69756780402E+02  0.00000000000E+00 0. -1.
        -12    1    6    6    0    0  0.12229007580E+02  0.11440932444E+02 -0.35694504193E+02  0.39427670375E+02  0.00000000000E+00 0.  1.
</event>
<event>
12    1  0.8133506E-002  0.1855043E+03  0.7818608E-02  0.1162966E+00
         21   -1    0    0  501  502  0.00000000000E+00  0.00000000000E+00  0.45798478652E+03  0.45798478652E+03  0.00000000000E+00 0.  1.
         21   -1    0    0  502  503 -0.00000000000E+00 -0.00000000000E+00 -0.74540459937E+02  0.74540459937E+02  0.00000000000E+00 0.  1.
         -6    2    1    2    0  503 -0.61263590596E+02 -0.14043883964E+02  0.19904793957E+03  0.27096480472E+03  0.17277553340E+03 0.  0.
        -24    2    3    3    0    0  0.13530418390E+02  0.32607172077E+02  0.63608339966E+02  0.10929712103E+03  0.81569233532E+02 0.  0.
          6    2    1    2  501    0  0.61263590596E+02  0.14043883964E+02  0.18439638701E+03  0.26156044174E+03  0.17453188513E+03 0.  0.
         24    2    5    5    0    0 -0.60491667831E+01  0.58357511208E+02  0.69674328878E+02  0.12128234121E+03  0.80079352213E+02 0.  0.
          5    1    5    5  501    0  0.67312757379E+02 -0.44313627244E+02  0.11472205814E+03  0.14027810053E+03  0.47000000000E+01 0. -1.
        -11    1    6    6    0    0 -0.36586093091E+02  0.50374601871E+01  0.18438249831E+02  0.41278169408E+02  0.00000000000E+00 0.  1.
         12    1    6    6    0    0  0.30536926308E+02  0.53320051021E+02  0.51236079047E+02  0.80004171800E+02  0.00000000000E+00 0. -1.
         -5    1    3    3    0  503 -0.74794008986E+02 -0.46651056041E+02  0.13543959960E+03  0.16166768369E+03  0.47000000000E+01 0.  1.
         13    1    4    4    0    0 -0.26964697463E+02  0.27329942551E+02  0.55780380333E+02  0.67716109599E+02  0.00000000000E+00 0. -1.
        -14    1    4    4    0    0  0.40495115853E+02  0.52772295258E+01  0.78279596332E+01  0.41581011429E+02  0.00000000000E+00 0.  1.
</event>
<event>
12    1  0.8133506E-002  0.1879124E+03  0.7818608E-02  0.1160567E+00
         21   -1    0    0  501  502  0.00000000000E+00  0.00000000000E+00  0.13977456691E+03  0.13977456691E+03  0.00000000000E+00 0.  1.
         21   -1    0    0  502  503 -0.00000000000E+00 -0.00000000000E+00 -0.29989047717E+03  0.29989047717E+03  0.00000000000E+00 0.  1.
         -6    2    1    2    0  503  0.74337509926E+02  0.97390515861E+01 -0.16861371653E+03  0.25247107784E+03  0.17230828545E+03 0.  0.
        -24    2    3    3    0    0  0.64607168802E+02 -0.55572653660E+02 -0.80378209274E+02  0.14216290443E+03  0.80543334756E+02 0.  0.
          6    2    1    2  501    0 -0.74337509926E+02 -0.97390515861E+01  0.84978062672E+01  0.18719396625E+03  0.17131390422E+03 0.  0.
         24    2    5    5    0    0 -0.53068648288E+02  0.61321371824E+02  0.38678746536E+01  0.11272602336E+03  0.78202326151E+02 0.  0.
          5    1    5    5  501    0 -0.21268861638E+02 -0.71060423411E+02  0.46299316136E+01  0.74467942884E+02  0.47000000000E+01 0. -1.
        -11    1    6    6    0    0 -0.28552745295E+02  0.65335801737E+02  0.29378800103E+02  0.77117703207E+02  0.00000000000E+00 0.  1.
         12    1    6    6    0    0 -0.24515902993E+02 -0.40144299125E+01 -0.25510925449E+02  0.35608320156E+02  0.00000000000E+00 0. -1.
         -5    1    3    3    0  503  0.97303411245E+01  0.65311705246E+02 -0.88235507256E+02  0.11030817341E+03  0.47000000000E+01 0.  1.
         13    1    4    4    0    0  0.71036409523E+02 -0.14761496912E+02 -0.66942482275E+02  0.98718636550E+02  0.00000000000E+00 0. -1.
        -14    1    4    4    0    0 -0.64292407215E+01 -0.40811156749E+02 -0.13435726999E+02  0.43444267877E+02  0.00000000000E+00 0.  1.
</event>
<event>
12    1  0.8133506E-002  0.1978102E+03  0.7818608E-02  0.1152106E+00
         21   -1    0    0  503  502  0.00000000000E+00  0.00000000000E+00  0.54830523227E+03  0.54830523227E+03  0.00000000000E+00 0. -1.
         21   -1    0    0  501  503 -0.00000000000E+00 -0.00000000000E+00 -0.84943319847E+02  0.84943319847E+02  0.00000000000E+00 0. -1.
          6    2    1    2  501    0  0.81267671275E+02  0.53865062113E+02  0.10235063310E+03  0.22272071739E+03  0.17211329567E+03 0.  0.
         24    2    3    3    0    0  0.43435279363E+02  0.88072070801E+02  0.11325095275E+03  0.17035358753E+03  0.80939813052E+02 0.  0.
         -6    2    1    2    0  502 -0.81267671275E+02 -0.53865062113E+02  0.36101127932E+03  0.41052783473E+03  0.16940507660E+03 0.  0.
        -24    2    5    5    0    0 -0.53914374513E+02 -0.65562121354E+02  0.36264743696E+03  0.38036509197E+03  0.77196425557E+02 0.  0.
          5    1    3    3  501    0  0.37832391911E+02 -0.34207008688E+02 -0.10900319648E+02  0.52367129858E+02  0.47000000000E+01 0. -1.
        -11    1    4    4    0    0  0.21696984705E+02  0.78460841687E+01  0.75714705164E+02  0.79151985194E+02  0.00000000000E+00 0.  1.
         12    1    4    4    0    0  0.21738294658E+02  0.80225986633E+02  0.37536247587E+02  0.91201602336E+02  0.00000000000E+00 0. -1.
         -5    1    5    5    0  502 -0.27353296762E+02  0.11697059241E+02 -0.16361576448E+01  0.30162742755E+02  0.47000000000E+01 0.  1.
         13    1    6    6    0    0  0.16049405688E+00 -0.40864540195E+02  0.24674435367E+03  0.25010540273E+03  0.00000000000E+00 0. -1.
        -14    1    6    6    0    0 -0.54074868569E+02 -0.24697581159E+02  0.11590308329E+03  0.13025968925E+03  0.00000000000E+00 0.  1.
</event>
<event>
12    1  0.8133506E-002  0.1754518E+03  0.7818608E-02  0.1172291E+00
         21   -1    0    0  503  502  0.00000000000E+00  0.00000000000E+00  0.43190526554E+03  0.43190526554E+03  0.00000000000E+00 0.  1.
         21   -1    0    0  501  503 -0.00000000000E+00 -0.00000000000E+00 -0.11008277406E+03  0.11008277406E+03  0.00000000000E+00 0.  1.
          6    2    1    2  501    0 -0.35249159969E+01 -0.30185764661E+02  0.32184189942E+03  0.36653619709E+03  0.17275117982E+03 0.  0.
         24    2    3    3    0    0 -0.54246211738E+02 -0.62530736136E+02  0.19590129996E+03  0.22688673732E+03  0.79041304353E+02 0.  0.
         -6    2    1    2    0  502  0.35249159969E+01  0.30185764661E+02 -0.19407945835E-01  0.17545184251E+03  0.17279972003E+03 0.  0.
        -24    2    5    5    0    0  0.49405637780E+02  0.33248096912E+02  0.46186026237E+02  0.11009550649E+03  0.80259071366E+02 0.  0.
          5    1    3    3  501    0  0.50721295741E+02  0.32344971474E+02  0.12594059946E+03  0.13964945977E+03  0.47000000000E+01 0. -1.
        -11    1    4    4    0    0  0.30921751932E+01 -0.32560433314E+01  0.10124258361E+03  0.10134211416E+03  0.00000000000E+00 0.  1.
         12    1    4    4    0    0 -0.57338386932E+02 -0.59274692805E+02  0.94658716349E+02  0.12554462316E+03  0.00000000000E+00 0. -1.
         -5    1    5    5    0  502 -0.45880721783E+02 -0.30623322505E+01 -0.46205434183E+02  0.65356336022E+02  0.47000000000E+01 0.  1.
         13    1    6    6    0    0  0.33115339167E+02 -0.16436514215E+02  0.44401761584E+02  0.57778033191E+02  0.00000000000E+00 0. -1.
        -14    1    6    6    0    0  0.16290298613E+02  0.49684611127E+02  0.17842646534E+01  0.52317473297E+02  0.00000000000E+00 0.  1.
</event>
<event>
12    1  0.8133506E-002  0.1994454E+03  0.7818608E-02  0.1150352E+00
         21   -1    0    0  501  502  0.00000000000E+00  0.00000000000E+00  0.85304609639E+02  0.85304609639E+02  0.00000000000E+00 0. -1.
         21   -1    0    0  502  503 -0.00000000000E+00 -0.00000000000E+00 -0.50359996326E+03  0.50359996326E+03  0.00000000000E+00 0. -1.
         -6    2    1    2    0  503  0.70615207461E+02  0.72737184986E+02 -0.12700947195E+03  0.23588056739E+03  0.17097084694E+03 0.  0.
        -24    2    3    3    0    0  0.52256779500E+01  0.29188353405E+02 -0.40882019534E+01  0.89921600828E+02  0.84793355965E+02 0.  0.
          6    2    1    2  501    0 -0.70615207461E+02 -0.72737184986E+02 -0.29128588167E+03  0.35302400551E+03  0.17175936074E+03 0.  0.
         24    2    5    5    0    0 -0.21970503505E+02 -0.64666943209E+02 -0.72379279466E+02  0.12858330841E+03  0.81427210058E+02 0.  0.
          5    1    5    5  501    0 -0.48644703956E+02 -0.80702417769E+01 -0.21890660220E+03  0.22444069710E+03  0.47000000000E+01 0. -1.
        -13    1    6    6    0    0 -0.41543455304E+01 -0.76186503828E+02 -0.75261545822E+02  0.10717248822E+03  0.00000000000E+00 0.  1.
         14    1    6    6    0    0 -0.17816157975E+02  0.11519560619E+02  0.28822663559E+01  0.21410820189E+02  0.00000000000E+00 0. -1.
         -5    1    3    3    0  503  0.65389529511E+02  0.43548831581E+02 -0.12292127000E+03  0.14595896656E+03  0.47000000000E+01 0.  1.
         11    1    4    4    0    0 -0.19618308070E+02  0.52279557307E+02 -0.42799599456E+01  0.56003108672E+02  0.00000000000E+00 0. -1.
        -12    1    4    4    0    0  0.24843986020E+02 -0.23091203902E+02  0.19175799227E+00  0.33918492156E+02  0.00000000000E+00 0.  1.
</event>
<event>
12    1  0.8133506E-002  0.1896309E+03  0.7818608E-02  0.1159416E+00
         21   -1    0    0  501  502  0.00000000000E+00  0.00000000000E+00  0.15988716334E+03  0.15988716334E+03  0.00000000000E+00 0.  1.
         21   -1    0    0  502  503 -0.00000000000E+00 -0.00000000000E+00 -0.34290361916E+03  0.34290361916E+03  0.00000000000E+00 0.  1.
         -6    2    1    2    0  503 -0.30352507875E+02  0.71792504727E+02 -0.24140591863E+03  0.30697997079E+03  0.17287118455E+03 0.  0.
        -24    2    3    3    0    0 -0.45972979282E+02 -0.20795409465E+02 -0.11124863300E+03  0.14641991977E+03  0.80725279075E+02 0.  0.
          6    2    1    2  501    0  0.30352507875E+02 -0.71792504727E+02  0.58389462808E+02  0.19581081172E+03  0.16987379477E+03 0.  0.
         24    2    5    5    0    0  0.14338820101E+02 -0.68516511335E+02  0.10335989675E+03  0.14773170755E+03  0.79001740941E+02 0.  0.
          5    1    5    5  501    0  0.16013687775E+02 -0.32759933925E+01 -0.44970433942E+02  0.48079104170E+02  0.47000000000E+01 0. -1.
        -11    1    6    6    0    0 -0.30738906287E+02 -0.19015149764E+02  0.21792661173E+02  0.42206354512E+02  0.00000000000E+00 0.  1.
         12    1    6    6    0    0  0.45077726388E+02 -0.49501361571E+02  0.81567235578E+02  0.10552535304E+03  0.00000000000E+00 0. -1.
         -5    1    3    3    0  503  0.15620471406E+02  0.92587914192E+02 -0.13015728563E+03  0.16056005102E+03  0.47000000000E+01 0.  1.
         11    1    4    4    0    0 -0.39016174630E+02  0.74270881185E+01 -0.98260350214E+01  0.40914233280E+02  0.00000000000E+00 0. -1.
        -12    1    4    4    0    0 -0.69568046522E+01 -0.28222497583E+02 -0.10142259798E+03  0.10550568649E+03  0.00000000000E+00 0.  1.
</event>
<event>
12    1  0.8133506E-002  0.2053154E+03  0.7818608E-02  0.1145365E+00
         21   -1    0    0  501  502  0.00000000000E+00  0.00000000000E+00  0.98591282860E+03  0.98591282860E+03  0.00000000000E+00 0. -1.
         21   -1    0    0  502  503 -0.00000000000E+00 -0.00000000000E+00 -0.74810933714E+02  0.74810933714E+02  0.00000000000E+00 0.  1.
         -6    2    1    2    0  503 -0.31280209955E+02 -0.10714813486E+03  0.10830516535E+03  0.23213017696E+03  0.17232305672E+03 0.  0.
        -24    2    3    3    0    0  0.12104910892E+02 -0.49779427449E+02  0.12600697966E+03  0.15790833698E+03  0.80204511715E+02 0.  0.
          6    2    1    2  501    0  0.31280209955E+02  0.10714813486E+03  0.80279672953E+03  0.82859358535E+03  0.17212079013E+03 0.  0.
         24    2    5    5    0    0  0.13576922115E+01 -0.13181662908E+02  0.38703158958E+03  0.39470724205E+03  0.76320089299E+02 0.  0.
          5    1    5    5  501    0  0.29922517744E+02  0.12032979777E+03  0.41576513996E+03  0.43388634330E+03  0.47000000000E+01 0. -1.
        -11    1    6    6    0    0  0.35767777161E+01  0.10588353263E+02  0.35277828587E+03  0.35295527414E+03  0.00000000000E+00 0.  1.
         12    1    6    6    0    0 -0.22190855047E+01 -0.23770016171E+02  0.34253303705E+02  0.41751967905E+02  0.00000000000E+00 0. -1.
         -5    1    3    3    0  503 -0.43385120848E+02 -0.57368707411E+02 -0.17701814308E+02  0.74221839985E+02  0.47000000000E+01 0.  1.
         11    1    4    4    0    0  0.34552954520E+01  0.17620110081E+02  0.42174542539E+01  0.18444355947E+02  0.00000000000E+00 0. -1.
        -12    1    4    4    0    0  0.86496154401E+01 -0.67399537529E+02  0.12178952541E+03  0.13946398103E+03  0.00000000000E+00 0.  1.
</event>
<event>
12    1  0.8133506E-002  0.1813783E+03  0.7818608E-02  0.1166542E+00
         21   -1    0    0  501  502  0.00000000000E+00  0.00000000000E+00  0.34999574164E+02  0.34999574164E+02  0.00000000000E+00 0.  1.
         21   -1    0    0  502  503 -0.00000000000E+00 -0.00000000000E+00 -0.12467665093E+04  0.12467665093E+04  0.00000000000E+00 0.  1.
         -6    2    1    2    0  503  0.41165955162E+02  0.40892152864E+02 -0.92489288456E+03  0.94250990335E+03  0.17184663506E+03 0.  0.
        -24    2    3    3    0    0  0.83494942206E+02  0.62428633522E+02 -0.72045992877E+03  0.73258018522E+03  0.82112600460E+02 0.  0.
          6    2    1    2  501    0 -0.41165955162E+02 -0.40892152864E+02 -0.28687405056E+03  0.33925618009E+03  0.17155532873E+03 0.  0.
         24    2    5    5    0    0 -0.65562393032E+02  0.20871859784E+02 -0.22564026960E+03  0.24880373198E+03  0.79093007725E+02 0.  0.
          5    1    5    5  501    0  0.24396437870E+02 -0.61764012648E+02 -0.61233780959E+02  0.90452448113E+02  0.47000000000E+01 0. -1.
        -11    1    6    6    0    0  0.79004643277E+01  0.99896450452E+01 -0.16737989789E+01  0.12845697636E+02  0.00000000000E+00 0.  1.
         12    1    6    6    0    0 -0.73462857359E+02  0.10882214738E+02 -0.22396647062E+03  0.23595803434E+03  0.00000000000E+00 0. -1.
         -5    1    3    3    0  503 -0.42328987044E+02 -0.21536480658E+02 -0.20443295579E+03  0.20992971813E+03  0.47000000000E+01 0.  1.
         13    1    4    4    0    0  0.21918634905E+02  0.47328046943E+00 -0.33163020015E+02  0.39754703458E+02  0.00000000000E+00 0. -1.
        -14    1    4    4    0    0  0.61576307300E+02  0.61955353053E+02 -0.68729690876E+03  0.69282548176E+03  0.00000000000E+00 0.  1.
</event>
<event>
12    1  0.8133506E-002  0.1778862E+03  0.7818608E-02  0.1170212E+00
         21   -1    0    0  501  502  0.00000000000E+00  0.00000000000E+00  0.26690402472E+03  0.26690402472E+03  0.00000000000E+00 0.  1.
         21   -1    0    0  502  503 -0.00000000000E+00 -0.00000000000E+00 -0.19693594861E+03  0.19693594861E+03  0.00000000000E+00 0.  1.
         -6    2    1    2    0  503  0.16158596240E+02 -0.33660409447E+02 -0.11211432190E+03  0.21026913907E+03  0.17392344947E+03 0.  0.
        -24    2    3    3    0    0 -0.14828558286E+02  0.44420226200E+02 -0.41065134147E+02  0.10014708638E+03  0.78422261069E+02 0.  0.
          6    2    1    2  501    0 -0.16158596240E+02  0.33660409447E+02  0.18208239801E+03  0.25357083426E+03  0.17248201334E+03 0.  0.
         24    2    5    5    0    0 -0.15164496300E+02  0.44173265794E+02  0.23709683974E+02  0.94776895666E+02  0.78989059236E+02 0.  0.
          5    1    5    5  501    0 -0.99409994006E+00 -0.10512856348E+02  0.15837271404E+03  0.15879393860E+03  0.47000000000E+01 0. -1.
        -11    1    6    6    0    0  0.26734405188E+02  0.30094543300E+02  0.29900726778E+02  0.50144425603E+02  0.00000000000E+00 0.  1.
         12    1    6    6    0    0 -0.41898901487E+02  0.14078722494E+02 -0.61910428041E+01  0.44632470063E+02  0.00000000000E+00 0. -1.
         -5    1    3    3    0  503  0.30987154525E+02 -0.78080635647E+02 -0.71049187756E+02  0.11012205269E+03  0.47000000000E+01 0.  1.
         11    1    4    4    0    0  0.24707220096E+02 -0.74190935272E+01 -0.77679585078E+01  0.26941248171E+02  0.00000000000E+00 0. -1.
        -12    1    4    4    0    0 -0.39535778382E+02  0.51839319728E+02 -0.33297175639E+02  0.73205838207E+02  0.00000000000E+00 0.  1.
</event>
<event>
12    1  0.8133506E-002  0.1802441E+03  0.7818608E-02  0.1167619E+00
         21   -1    0    0  503  502  0.00000000000E+00  0.00000000000E+00  0.21810456116E+03  0.21810456116E+03  0.00000000000E+00 0.  1.
         21   -1    0    0  501  503 -0.00000000000E+00 -0.00000000000E+00 -0.15228705064E+03  0.15228705064E+03  0.00000000000E+00 0.  1.
          6    2    1    2  501    0  0.47475448018E+02 -0.28542994524E+02  0.47769276877E+01  0.18009216238E+03  0.17129432919E+03 0.  0.
         24    2    3    3    0    0  0.26517238429E+02  0.50478097467E+02 -0.36935615454E+01  0.97767082868E+02  0.79331947145E+02 0.  0.
         -6    2    1    2    0  502 -0.47475448018E+02  0.28542994524E+02  0.61040582834E+02  0.19029944942E+03  0.17152057310E+03 0.  0.
        -24    2    5    5    0    0 -0.12951376723E+02  0.82258374335E+02  0.25665118098E+02  0.11715051210E+03  0.78303038830E+02 0.  0.
          5    1    3    3  501    0  0.20958209588E+02 -0.79021091991E+02  0.84704892332E+01  0.82325079511E+02  0.47000000000E+01 0. -1.
        -11    1    4    4    0    0  0.27322489139E+02 -0.13757204928E+02 -0.12264470070E+02  0.32957492718E+02  0.00000000000E+00 0.  1.
         12    1    4    4    0    0 -0.80525070958E+00  0.64235302395E+02  0.85709085241E+01  0.64809590150E+02  0.00000000000E+00 0. -1.
         -5    1    5    5    0  502 -0.34524071295E+02 -0.53715379812E+02  0.35375464736E+02  0.73148937329E+02  0.47000000000E+01 0.  1.
         11    1    6    6    0    0  0.27253154319E+02  0.23288215016E+02 -0.10204950373E+02  0.37272193269E+02  0.00000000000E+00 0. -1.
        -12    1    6    6    0    0 -0.40204531042E+02  0.58970159319E+02  0.35870068471E+02  0.79878318826E+02  0.00000000000E+00 0.  1.
</event>
<event>
12    1  0.8133506E-002  0.3431494E+03  0.7818608E-02  0.1066169E+00
         21   -1    0    0  501  502  0.00000000000E+00  0.00000000000E+00  0.18414369415E+03  0.18414369415E+03  0.00000000000E+00 0.  1.
         21   -1    0    0  502  503 -0.00000000000E+00 -0.00000000000E+00 -0.62810605891E+03  0.62810605891E+03  0.00000000000E+00 0. -1.
         -6    2    1    2    0  503 -0.12930171158E+03 -0.25854012960E+03 -0.20809848943E+03  0.40131847890E+03  0.18490432384E+03 0.  0.
        -24    2    3    3    0    0 -0.76604419809E+02 -0.19535128269E+03 -0.22426696662E+03  0.31733428641E+03  0.79843698752E+02 0.  0.
          6    2    1    2  501    0  0.12930171158E+03  0.25854012960E+03 -0.23586387533E+03  0.41093127415E+03  0.17225217896E+03 0.  0.
         24    2    5    5    0    0  0.90097216860E+02  0.88897733472E+02 -0.38299232003E+02  0.14755053593E+03  0.65452379480E+02 0.  0.
          5    1    5    5  501    0  0.39204494719E+02  0.16964239613E+03 -0.19756464332E+03  0.26338073822E+03  0.47000000000E+01 0. -1.
        -11    1    6    6    0    0  0.56554306615E+02  0.33447161521E+02 -0.48871482876E+02  0.81887264266E+02  0.00000000000E+00 0.  1.
         12    1    6    6    0    0  0.33542910245E+02  0.55450571952E+02  0.10572250873E+02  0.65663271667E+02  0.00000000000E+00 0. -1.
         -5    1    3    3    0  503 -0.52697291769E+02 -0.63188846911E+02  0.16168477193E+02  0.83984192492E+02  0.47000000000E+01 0.  1.
         11    1    4    4    0    0 -0.89057984747E+02 -0.18355005501E+03 -0.21918730105E+03  0.29944118001E+03  0.00000000000E+00 0. -1.
        -12    1    4    4    0    0  0.12453564938E+02 -0.11801227682E+02 -0.50796655687E+01  0.17893106403E+02  0.00000000000E+00 0.  1.
</event>
<event>
12    1  0.8133506E-002  0.2416045E+03  0.7818608E-02  0.1118844E+00
         21   -1    0    0  501  502  0.00000000000E+00  0.00000000000E+00  0.51805063784E+03  0.51805063784E+03  0.00000000000E+00 0. -1.
         21   -1    0    0  502  503 -0.00000000000E+00 -0.00000000000E+00 -0.11267487456E+03  0.11267487456E+03  0.00000000000E+00 0.  1.
         -6    2    1    2    0  503 -0.49932008643E+02  0.16173718436E+03  0.18613046777E+03  0.30498735932E+03  0.17239668218E+03 0.  0.
        -24    2    3    3    0    0 -0.33135085223E+02  0.12552223127E+03  0.46843162791E+02  0.16001597322E+03  0.80975708499E+02 0.  0.
          6    2    1    2  501    0  0.49932008643E+02 -0.16173718436E+03  0.21924529552E+03  0.32573815308E+03  0.17141972603E+03 0.  0.
         24    2    5    5    0    0  0.28525610820E+02 -0.13576705583E+03  0.73589591711E+02  0.17617092573E+03  0.79839608867E+02 0.  0.
          5    1    5    5  501    0  0.21406397823E+02 -0.25970128527E+02  0.14565570381E+03  0.14956722735E+03  0.47000000000E+01 0. -1.
        -13    1    6    6    0    0 -0.21614814475E+02 -0.50953130570E+02  0.50613405926E+02  0.75000923855E+02  0.00000000000E+00 0.  1.
         14    1    6    6    0    0  0.50140425295E+02 -0.84813925259E+02  0.22976185784E+02  0.10117000188E+03  0.00000000000E+00 0. -1.
         -5    1    3    3    0  503 -0.16796923420E+02  0.36214953081E+02  0.13928730498E+03  0.14497138611E+03  0.47000000000E+01 0.  1.
         13    1    4    4    0    0 -0.20626101661E+02  0.23989257694E+02  0.48259796377E+02  0.57705532671E+02  0.00000000000E+00 0. -1.
        -14    1    4    4    0    0 -0.12508983563E+02  0.10153297358E+03 -0.14166335864E+01  0.10231044054E+03  0.00000000000E+00 0.  1.
</event>
<event>
12    1  0.8133506E-002  0.2004852E+03  0.7818608E-02  0.1149519E+00
         21   -1    0    0  503  502  0.00000000000E+00  0.00000000000E+00  0.45007400901E+03  0.45007400901E+03  0.00000000000E+00 0. -1.
         21   -1    0    0  501  503 -0.00000000000E+00 -0.00000000000E+00 -0.92303202473E+02  0.92303202473E+02  0.00000000000E+00 0. -1.
          6    2    1    2  501    0 -0.90811754753E+02  0.47949321204E+02  0.12648206813E+03  0.23629098652E+03  0.17114264386E+03 0.  0.
         24    2    3    3    0    0 -0.25728920456E+02 -0.22372575085E+02  0.14579162007E+02  0.88895956700E+02  0.80792510104E+02 0.  0.
         -6    2    1    2    0  502  0.90811754753E+02 -0.47949321204E+02  0.23128873841E+03  0.30608622497E+03  0.17218706221E+03 0.  0.
        -24    2    5    5    0    0  0.10388762087E+02 -0.79785301604E+02  0.14020898662E+03  0.18039215754E+03  0.80057166111E+02 0.  0.
          5    1    3    3  501    0 -0.65082834297E+02  0.70321896289E+02  0.11190290612E+03  0.14739502982E+03  0.47000000000E+01 0. -1.
        -11    1    4    4    0    0  0.16598353909E+02  0.20414723427E+02 -0.22341820732E+01  0.26405640583E+02  0.00000000000E+00 0.  1.
         12    1    4    4    0    0 -0.42327274365E+02 -0.42787298512E+02  0.16813344080E+02  0.62490316116E+02  0.00000000000E+00 0. -1.
         -5    1    5    5    0  502  0.80422992666E+02  0.31835980401E+02  0.91079751798E+02  0.12569406742E+03  0.47000000000E+01 0.  1.
         11    1    6    6    0    0  0.37311514828E+02 -0.10546058108E+02  0.40720242066E+02  0.56227276248E+02  0.00000000000E+00 0. -1.
        -12    1    6    6    0    0 -0.26922752741E+02 -0.69239243497E+02  0.99488744549E+02  0.12416488130E+03  0.00000000000E+00 0.  1.
</event>
<event>
12    1  0.8133506E-002  0.2480685E+03  0.7818608E-02  0.1114914E+00
         21   -1    0    0  501  502  0.00000000000E+00  0.00000000000E+00  0.11270378580E+03  0.11270378580E+03  0.00000000000E+00 0. -1.
         21   -1    0    0  502  503 -0.00000000000E+00 -0.00000000000E+00 -0.70233138344E+03  0.70233138344E+03  0.00000000000E+00 0.  1.
         -6    2    1    2    0  503  0.23271571607E+02 -0.17733967734E+03 -0.48916370766E+03  0.54739550761E+03  0.16843331514E+03 0.  0.
        -24    2    3    3    0    0 -0.35955027232E+02 -0.14923752504E+03 -0.40695078254E+03  0.44214069284E+03  0.79466030447E+02 0.  0.
          6    2    1    2  501    0 -0.23271571607E+02  0.17733967734E+03 -0.10046388998E+03  0.26763966163E+03  0.17189260624E+03 0.  0.
         24    2    5    5    0    0  0.15304415132E+02  0.61040452966E+02 -0.10364692360E+03  0.14497818419E+03  0.79472178137E+02 0.  0.
          5    1    5    5  501    0 -0.38575986739E+02  0.11629922438E+03  0.31830336270E+01  0.12266147743E+03  0.47000000000E+01 0. -1.
        -13    1    6    6    0    0 -0.12577858782E+02  0.40297703933E+02 -0.10176722078E+03  0.11017565384E+03  0.00000000000E+00 0.  1.
         14    1    6    6    0    0  0.27882273914E+02  0.20742749033E+02 -0.18797028231E+01  0.34802530350E+02  0.00000000000E+00 0. -1.
         -5    1    3    3    0  503  0.59226598839E+02 -0.28102152302E+02 -0.82212925125E+02  0.10525481477E+03  0.47000000000E+01 0.  1.
         13    1    4    4    0    0  0.21388552686E+02 -0.54839146095E+02 -0.10149053410E+03  0.11732489353E+03  0.00000000000E+00 0. -1.
        -14    1    4    4    0    0 -0.57343579917E+02 -0.94398378944E+02 -0.30546024844E+03  0.32481579931E+03  0.00000000000E+00 0.  1.
</event>
<event>
12    1  0.8133506E-002  0.2120230E+03  0.7818608E-02  0.1140206E+00
         21   -1    0    0  503  502  0.00000000000E+00  0.00000000000E+00  0.43012232270E+03  0.43012232270E+03  0.00000000000E+00 0. -1.
         21   -1    0    0  501  503 -0.00000000000E+00 -0.00000000000E+00 -0.13814354506E+03  0.13814354506E+03  0.00000000000E+00 0. -1.
          6    2    1    2  501    0 -0.89334740295E+02  0.85643413062E+02  0.42832457175E+01  0.21088303001E+03  0.17069802614E+03 0.  0.
         24    2    3    3    0    0 -0.10522644210E+03  0.22571850861E+02  0.36046491772E+02  0.13834640516E+03  0.79109327401E+02 0.  0.
         -6    2    1    2    0  502  0.89334740295E+02 -0.85643413062E+02  0.28769553192E+03  0.35738283775E+03  0.17215772887E+03 0.  0.
        -24    2    5    5    0    0 -0.28104660692E+01 -0.52603597206E+02  0.21008986626E+03  0.23237444671E+03  0.84173002923E+02 0.  0.
          5    1    3    3  501    0  0.15891701807E+02  0.63071562201E+02 -0.31763246055E+02  0.72536624851E+02  0.47000000000E+01 0. -1.
        -11    1    4    4    0    0 -0.29507534595E+02  0.45693762905E+02  0.14142080062E+02  0.56201539078E+02  0.00000000000E+00 0.  1.
         12    1    4    4    0    0 -0.75718907507E+02 -0.23121912044E+02  0.21904411710E+02  0.82144866078E+02  0.00000000000E+00 0. -1.
         -5    1    5    5    0  502  0.92145206364E+02 -0.33039815856E+02  0.77605665657E+02  0.12500839104E+03  0.47000000000E+01 0.  1.
         13    1    6    6    0    0  0.31605372156E+02 -0.16068571448E+02  0.33458376389E+02  0.48749989621E+02  0.00000000000E+00 0. -1.
        -14    1    6    6    0    0 -0.34415838225E+02 -0.36535025758E+02  0.17663148987E+03  0.18362445709E+03  0.00000000000E+00 0.  1.
</event>
<event>
12    1  0.8133506E-002  0.1788666E+03  0.7818608E-02  0.1169467E+00
         21   -1    0    0  503  502  0.00000000000E+00  0.00000000000E+00  0.36866662338E+03  0.36866662338E+03  0.00000000000E+00 0. -1.
         21   -1    0    0  501  503 -0.00000000000E+00 -0.00000000000E+00 -0.10720762383E+03  0.10720762383E+03  0.00000000000E+00 0. -1.
          6    2    1    2  501    0 -0.43345463995E+02 -0.22760425448E+02  0.24767415824E+02  0.18057320413E+03  0.17203601642E+03 0.  0.
         24    2    3    3    0    0 -0.44327216403E+02 -0.71184901539E+02  0.49803916913E+02  0.12584834589E+03  0.79531023518E+02 0.  0.
         -6    2    1    2    0  502  0.43345463995E+02  0.22760425448E+02  0.23669158372E+03  0.29530104308E+03  0.16965533893E+03 0.  0.
        -24    2    5    5    0    0  0.48778398189E+02 -0.28671866451E+02  0.21996817399E+03  0.24074318520E+03  0.79811500400E+02 0.  0.
          5    1    3    3  501    0  0.98175240814E+00  0.48424476091E+02 -0.25036501090E+02  0.54724858239E+02  0.47000000000E+01 0. -1.
        -11    1    4    4    0    0  0.11843606070E+02 -0.16005235746E+02  0.42300013707E+02  0.46751788582E+02  0.00000000000E+00 0.  1.
         12    1    4    4    0    0 -0.56170822473E+02 -0.55179665794E+02  0.75039032064E+01  0.79096557307E+02  0.00000000000E+00 0. -1.
         -5    1    5    5    0  502 -0.54329341944E+01  0.51432291899E+02  0.16723409734E+02  0.54557857886E+02  0.47000000000E+01 0.  1.
         11    1    6    6    0    0  0.68656030516E+02 -0.14316587834E+02  0.18652871062E+03  0.19927763321E+03  0.00000000000E+00 0. -1.
        -12    1    6    6    0    0 -0.19877632326E+02 -0.14355278618E+02  0.33439463367E+02  0.41465551984E+02  0.00000000000E+00 0.  1.
</event>
<event>
12    1  0.8133506E-002  0.1806454E+03  0.7818608E-02  0.1167580E+00
         21   -1    0    0  503  502  0.00000000000E+00  0.00000000000E+00  0.57277989432E+03  0.57277989432E+03  0.00000000000E+00 0.  1.
         21   -1    0    0  501  503 -0.00000000000E+00 -0.00000000000E+00 -0.81128092487E+02  0.81128092487E+02  0.00000000000E+00 0.  1.
          6    2    1    2  501    0  0.61809940255E+00 -0.51617835374E+02  0.66296157151E+02  0.19242641176E+03  0.17311256602E+03 0.  0.
         24    2    3    3    0    0 -0.58277281472E+02 -0.47709070151E+02  0.10440425572E+02  0.11102679822E+03  0.80904576671E+02 0.  0.
         -6    2    1    2    0  502 -0.61809940255E+00  0.51617835374E+02  0.42535564468E+03  0.46148157505E+03  0.17138563730E+03 0.  0.
        -24    2    5    5    0    0  0.10830699248E+02 -0.29212774203E+02  0.14306001900E+03  0.16758095798E+03  0.81526181182E+02 0.  0.
          5    1    3    3  501    0  0.58895380874E+02 -0.39087652231E+01  0.55855731579E+02  0.81399613538E+02  0.47000000000E+01 0. -1.
        -11    1    4    4    0    0 -0.12602549421E+02  0.15791816218E+01 -0.30014608435E+02  0.32591329921E+02  0.00000000000E+00 0.  1.
         12    1    4    4    0    0 -0.45674732050E+02 -0.49288251773E+02  0.40455034007E+02  0.78435468298E+02  0.00000000000E+00 0. -1.
         -5    1    5    5    0  502 -0.11448798650E+02  0.80830609577E+02  0.28229562568E+03  0.29390061707E+03  0.47000000000E+01 0.  1.
         13    1    6    6    0    0  0.59199734732E+01  0.22106638025E+02  0.10174242151E+02  0.25045253723E+02  0.00000000000E+00 0. -1.
        -14    1    6    6    0    0  0.49107257747E+01 -0.51319412228E+02  0.13288577685E+03  0.14253570426E+03  0.00000000000E+00 0.  1.
</event>
<event>
12    1  0.8133506E-002  0.2367659E+03  0.7818608E-02  0.1122245E+00
         21   -1    0    0  503  502  0.00000000000E+00  0.00000000000E+00  0.13301157005E+03  0.13301157005E+03  0.00000000000E+00 0. -1.
         21   -1    0    0  501  503 -0.00000000000E+00 -0.00000000000E+00 -0.42760082110E+03  0.42760082110E+03  0.00000000000E+00 0. -1.
          6    2    1    2  501    0  0.79432182920E+02 -0.14076420481E+03 -0.10700313314E+03  0.25982259429E+03  0.17301467268E+03 0.  0.
         24    2    3    3    0    0  0.72680541717E+02 -0.12659679971E+02 -0.39853018501E+02  0.11495167989E+03  0.78631399478E+02 0.  0.
         -6    2    1    2    0  502 -0.79432182920E+02  0.14076420481E+03 -0.18758611790E+03  0.30078979686E+03  0.17076860725E+03 0.  0.
        -24    2    5    5    0    0 -0.47728537631E+01  0.13146681636E+03 -0.15641513326E+03  0.21921665700E+03  0.79271336915E+02 0.  0.
          5    1    3    3  501    0  0.67516412030E+01 -0.12810452484E+03 -0.67150114642E+02  0.14487091441E+03  0.47000000000E+01 0. -1.
        -13    1    4    4    0    0  0.28289528677E+02  0.15413993590E+02 -0.51880012833E+02  0.61069013114E+02  0.00000000000E+00 0.  1.
         14    1    4    4    0    0  0.44391013039E+02 -0.28073673561E+02  0.12026994332E+02  0.53882666773E+02  0.00000000000E+00 0. -1.
         -5    1    5    5    0  502 -0.74659329157E+02  0.92973884522E+01 -0.31170984641E+02  0.81573139854E+02  0.47000000000E+01 0.  1.
         11    1    6    6    0    0 -0.38580766070E+02  0.10084507086E+03 -0.11065394638E+03  0.15460433266E+03  0.00000000000E+00 0. -1.
        -12    1    6    6    0    0  0.33807912307E+02  0.30621745500E+02 -0.45761186885E+02  0.64612324344E+02  0.00000000000E+00 0.  1.
</event>
<event>
12    1  0.8133506E-002  0.2789607E+03  0.7818608E-02  0.1096548E+00
         21   -1    0    0  501  502  0.00000000000E+00  0.00000000000E+00  0.24156816945E+03  0.24156816945E+03  0.00000000000E+00 0. -1.
         21   -1    0    0  502  503 -0.00000000000E+00 -0.00000000000E+00 -0.38857512235E+03  0.38857512235E+03  0.00000000000E+00 0.  1.
         -6    2    1    2    0  503 -0.78403943585E+02  0.20245835759E+03 -0.20636521370E+03  0.34699522076E+03  0.17516425686E+03 0.  0.
        -24    2    3    3    0    0 -0.82627882277E+02  0.22489396457E+03 -0.20248413516E+03  0.32336577114E+03  0.78491621985E+02 0.  0.
          6    2    1    2  501    0  0.78403943585E+02 -0.20245835759E+03  0.59358260801E+02  0.28314807104E+03  0.17179307925E+03 0.  0.
         24    2    5    5    0    0  0.88019697965E+02 -0.63321252357E+02  0.45483603432E+02  0.14291186708E+03  0.81228045280E+02 0.  0.
          5    1    5    5  501    0 -0.96157543794E+01 -0.13913710523E+03  0.13874657368E+02  0.14023620396E+03  0.47000000000E+01 0. -1.
        -11    1    6    6    0    0  0.46965847036E+02 -0.33812508243E+02  0.66503425283E+02  0.88157711380E+02  0.00000000000E+00 0.  1.
         12    1    6    6    0    0  0.41053850929E+02 -0.29508744114E+02 -0.21019821850E+02  0.54754155695E+02  0.00000000000E+00 0. -1.
         -5    1    3    3    0  503  0.42239386912E+01 -0.22435606987E+02 -0.38810785415E+01  0.23629449625E+02  0.47000000000E+01 0.  1.
         13    1    4    4    0    0  0.45836927683E+01  0.70669913736E+02 -0.32811610786E+02  0.78050296279E+02  0.00000000000E+00 0. -1.
        -14    1    4    4    0    0 -0.87211575045E+02  0.15422405084E+03 -0.16967252437E+03  0.24531547486E+03  0.00000000000E+00 0.  1.
</event>
<event>
12    1  0.8133506E-002  0.1935287E+03  0.7818608E-02  0.1155866E+00
         21   -1    0    0  503  502  0.00000000000E+00  0.00000000000E+00  0.35203937354E+02  0.35203937354E+02  0.00000000000E+00 0.  1.
         21   -1    0    0  501  503 -0.00000000000E+00 -0.00000000000E+00 -0.11494150200E+04  0.11494150200E+04  0.00000000000E+00 0.  1.
          6    2    1    2  501    0  0.64377841527E+02 -0.62021508731E+02 -0.73430637529E+03  0.75938081230E+03  0.17164553962E+03 0.  0.
         24    2    3    3    0    0  0.90210354169E+01 -0.97969231164E+02 -0.50932520054E+03  0.52487018626E+03  0.79982518023E+02 0.  0.
         -6    2    1    2    0  502 -0.64377841527E+02  0.62021508731E+02 -0.37990470741E+03  0.42523814511E+03  0.16884525258E+03 0.  0.
        -24    2    5    5    0    0  0.26480931336E+02  0.62668279057E+02 -0.21425697454E+03  0.23624873714E+03  0.72655775671E+02 0.  0.
          5    1    3    3  501    0  0.55356806110E+02  0.35947722433E+02 -0.22498117475E+03  0.23451062603E+03  0.47000000000E+01 0. -1.
        -13    1    4    4    0    0  0.19900533843E+02 -0.81802092478E+02 -0.49084993404E+03  0.49801734039E+03  0.00000000000E+00 0.  1.
         14    1    4    4    0    0 -0.10879498426E+02 -0.16167138686E+02 -0.18475266495E+02  0.26852845870E+02  0.00000000000E+00 0. -1.
         -5    1    5    5    0  502 -0.90858772864E+02 -0.64677032635E+00 -0.16564773287E+03  0.18898940796E+03  0.47000000000E+01 0.  1.
         11    1    6    6    0    0  0.38118676676E+02  0.12237077494E+02 -0.50129518092E+02  0.64154096995E+02  0.00000000000E+00 0. -1.
        -12    1    6    6    0    0 -0.11637745340E+02  0.50431201563E+02 -0.16412745645E+03  0.17209464015E+03  0.00000000000E+00 0.  1.
</event>
<event>
12    1  0.8133506E-002  0.2504605E+03  0.7818608E-02  0.1114017E+00
         21   -1    0    0  501  502  0.00000000000E+00  0.00000000000E+00  0.10030342653E+03  0.10030342653E+03  0.00000000000E+00 0. -1.
         21   -1    0    0  502  503 -0.00000000000E+00 -0.00000000000E+00 -0.62425546873E+03  0.62425546873E+03  0.00000000000E+00 0. -1.
         -6    2    1    2    0  503 -0.17741109389E+03  0.30712682810E+02 -0.21015560916E+03  0.32694926497E+03  0.17410478651E+03 0.  0.
        -24    2    3    3    0    0 -0.12617993566E+03 -0.21935279383E+02 -0.57977851486E+02  0.15790311912E+03  0.71898756050E+02 0.  0.
          6    2    1    2  501    0  0.17741109389E+03 -0.30712682810E+02 -0.31379643305E+03  0.39760963029E+03  0.16494620816E+03 0.  0.
         24    2    5    5    0    0  0.11344528120E+03 -0.73409751756E+02 -0.15404018018E+03  0.22024329972E+03  0.80745962646E+02 0.  0.
          5    1    5    5  501    0  0.63965812695E+02  0.42697068946E+02 -0.15975625287E+03  0.17736633057E+03  0.47000000000E+01 0. -1.
        -13    1    6    6    0    0  0.15542667873E+02 -0.48706745152E+02 -0.80369308865E+02  0.95253070057E+02  0.00000000000E+00 0.  1.
         14    1    6    6    0    0  0.97902613328E+02 -0.24703006604E+02 -0.73670871316E+02  0.12499022967E+03  0.00000000000E+00 0. -1.
         -5    1    3    3    0  503 -0.51231158237E+02  0.52647962194E+02 -0.15217775767E+03  0.16904614585E+03  0.47000000000E+01 0.  1.
         13    1    4    4    0    0 -0.49353118889E+02  0.26418449550E+02 -0.25199607065E+02  0.61389616524E+02  0.00000000000E+00 0. -1.
        -14    1    4    4    0    0 -0.76826816769E+02 -0.48353728933E+02 -0.32778244420E+02  0.96513502599E+02  0.00000000000E+00 0.  1.
</event>
<event>
12    1  0.8133506E-002  0.1906316E+03  0.7818608E-02  0.1157926E+00
         21   -1    0    0  503  502  0.00000000000E+00  0.00000000000E+00  0.12133749917E+03  0.12133749917E+03  0.00000000000E+00 0.  1.
         21   -1    0    0  501  503 -0.00000000000E+00 -0.00000000000E+00 -0.61833066359E+03  0.61833066359E+03  0.00000000000E+00 0.  1.
          6    2    1    2  501    0 -0.65511027464E+02 -0.51776940091E+02 -0.51411590249E+03  0.54826915817E+03  0.17120561431E+03 0.  0.
         24    2    3    3    0    0 -0.11144971740E+02  0.29916958170E+02 -0.19301107516E+03  0.21247165795E+03  0.82895690567E+02 0.  0.
         -6    2    1    2    0  502  0.65511027464E+02  0.51776940091E+02  0.17122738062E+02  0.19139900459E+03  0.17137048916E+03 0.  0.
        -24    2    5    5    0    0  0.21851806423E+02 -0.40501397339E+02  0.23021784772E+02  0.89035398296E+02  0.72659720239E+02 0.  0.
          5    1    3    3  501    0 -0.54366055724E+02 -0.81693898261E+02 -0.32110482732E+03  0.33579750022E+03  0.47000000000E+01 0. -1.
        -11    1    4    4    0    0 -0.11840832291E+02  0.76499261531E+01 -0.18937501167E+03  0.18989897768E+03  0.00000000000E+00 0.  1.
         12    1    4    4    0    0  0.69586055071E+00  0.22267032017E+02 -0.36360634937E+01  0.22572680268E+02  0.00000000000E+00 0. -1.
         -5    1    5    5    0  502  0.43659221041E+02  0.92278337430E+02 -0.58990467091E+01  0.10236360629E+03  0.47000000000E+01 0.  1.
         13    1    6    6    0    0 -0.13196525038E+02  0.15046507513E+02  0.86377887959E+01  0.21798097548E+02  0.00000000000E+00 0. -1.
        -14    1    6    6    0    0  0.35048331460E+02 -0.55547904852E+02  0.14383995976E+02  0.67237300748E+02  0.00000000000E+00 0.  1.
</event>
<event>
12    1  0.8133506E-002  0.1838821E+03  0.7818608E-02  0.1164124E+00
         21   -1    0    0  501  502  0.00000000000E+00  0.00000000000E+00  0.59482434852E+02  0.59482434852E+02  0.00000000000E+00 0. -1.
         21   -1    0    0  502  503 -0.00000000000E+00 -0.00000000000E+00 -0.57361428087E+03  0.57361428087E+03  0.00000000000E+00 0. -1.
         -6    2    1    2    0  503  0.46638887705E+02 -0.43864499745E+02 -0.28800590275E+03  0.34164249068E+03  0.17225826899E+03 0.  0.
        -24    2    3    3    0    0  0.70217610615E+02 -0.12972756364E+02 -0.28233403447E+03  0.30208852662E+03  0.80288016821E+02 0.  0.
          6    2    1    2  501    0 -0.46638887705E+02  0.43864499745E+02 -0.22612594327E+03  0.29145422504E+03  0.17237558670E+03 0.  0.
         24    2    5    5    0    0  0.15597074952E+02 -0.38472519241E+01 -0.46959738625E+02  0.95821034653E+02  0.81965746112E+02 0.  0.
          5    1    5    5  501    0 -0.62235962657E+02  0.47711751669E+02 -0.17916620464E+03  0.19563319039E+03  0.47000000000E+01 0. -1.
        -11    1    6    6    0    0  0.16247311292E+02  0.75460804633E+01 -0.68845856531E+02  0.71138389187E+02  0.00000000000E+00 0.  1.
         12    1    6    6    0    0 -0.65023634003E+00 -0.11393332387E+02  0.21886117906E+02  0.24682645466E+02  0.00000000000E+00 0. -1.
         -5    1    3    3    0  503 -0.23578722910E+02 -0.30891743380E+02 -0.56718682739E+01  0.39553964060E+02  0.47000000000E+01 0.  1.
         11    1    4    4    0    0  0.50810638863E+02  0.28313308466E+02 -0.19591438011E+03  0.20436684856E+03  0.00000000000E+00 0. -1.
        -12    1    4    4    0    0  0.19406971752E+02 -0.41286064831E+02 -0.86419654365E+02  0.97721678057E+02  0.00000000000E+00 0.  1.
</event>
<event>
12    1  0.8133506E-002  0.3572716E+03  0.7818608E-02  0.1060074E+00
         21   -1    0    0  503  502  0.00000000000E+00  0.00000000000E+00  0.18302362884E+03  0.18302362884E+03  0.00000000000E+00 0.  1.
         21   -1    0    0  501  503 -0.00000000000E+00 -0.00000000000E+00 -0.84162746194E+03  0.84162746194E+03  0.00000000000E+00 0. -1.
          6    2    1    2  501    0 -0.29311763767E+03  0.11216743295E+03 -0.54552953845E+03  0.64991282045E+03  0.16212561284E+03 0.  0.
         24    2    3    3    0    0 -0.19260295447E+03  0.13422037520E+03 -0.35137965565E+03  0.43012701383E+03  0.80190887482E+02 0.  0.
         -6    2    1    2    0  502  0.29311763767E+03 -0.11216743295E+03 -0.11307429465E+03  0.37473827033E+03  0.17071465260E+03 0.  0.
        -24    2    5    5    0    0  0.16359354740E+03 -0.54584212337E+02  0.12467744686E+02  0.18533074436E+03  0.66706485123E+02 0.  0.
          5    1    3    3  501    0 -0.10051468320E+03 -0.22052942247E+02 -0.19414988280E+03  0.21978580662E+03  0.47000000000E+01 0. -1.
        -13    1    4    4    0    0 -0.75907473286E+02  0.99879511306E+02 -0.19748685224E+03  0.23396349734E+03  0.00000000000E+00 0.  1.
         14    1    4    4    0    0 -0.11669548119E+03  0.34340863889E+02 -0.15389280341E+03  0.19616351649E+03  0.00000000000E+00 0. -1.
         -5    1    5    5    0  502  0.12952409026E+03 -0.57583220611E+02 -0.12554203934E+03  0.18940752597E+03  0.47000000000E+01 0.  1.
         13    1    6    6    0    0  0.93041917853E+02  0.21073049612E+01  0.17447603644E+02  0.94687159028E+02  0.00000000000E+00 0. -1.
        -14    1    6    6    0    0  0.70551629551E+02 -0.56691517298E+02 -0.49798589574E+01  0.90643585328E+02  0.00000000000E+00 0.  1.
</event>
<event>
12    1  0.8133506E-002  0.2004181E+03  0.7818608E-02  0.1149773E+00
         21   -1    0    0  501  502  0.00000000000E+00  0.00000000000E+00  0.24557847045E+03  0.24557847045E+03  0.00000000000E+00 0. -1.
         21   -1    0    0  502  503 -0.00000000000E+00 -0.00000000000E+00 -0.27528015700E+03  0.27528015700E+03  0.00000000000E+00 0. -1.
         -6    2    1    2    0  503  0.86967846556E+02 -0.44680054128E+02 -0.18189685898E+03  0.27065452003E+03  0.17495053110E+03 0.  0.
        -24    2    3    3    0    0  0.82705232375E+02  0.15017497243E+02 -0.52426178313E+02  0.12794252098E+03  0.80963595627E+02 0.  0.
          6    2    1    2  501    0 -0.86967846556E+02  0.44680054128E+02  0.15219517243E+03  0.25020410742E+03  0.17285546358E+03 0.  0.
         24    2    5    5    0    0 -0.66545911861E+02  0.88356426668E+02  0.65042304991E+02  0.15049255725E+03  0.78627551347E+02 0.  0.
          5    1    5    5  501    0 -0.20421934695E+02 -0.43676372541E+02  0.87152867435E+02  0.99711550169E+02  0.47000000000E+01 0. -1.
        -11    1    6    6    0    0  0.11129097585E+02  0.17046850889E+01 -0.73475559775E+01  0.13444305231E+02  0.00000000000E+00 0.  1.
         12    1    6    6    0    0 -0.77675009446E+02  0.86651741579E+02  0.72389860968E+02  0.13704825202E+03  0.00000000000E+00 0. -1.
         -5    1    3    3    0  503  0.42626141804E+01 -0.59697551371E+02 -0.12947068067E+03  0.14271199905E+03  0.47000000000E+01 0.  1.
         11    1    4    4    0    0  0.91160214268E+02  0.12414605771E+02 -0.64943765297E+02  0.11261438519E+03  0.00000000000E+00 0. -1.
        -12    1    4    4    0    0 -0.84549818923E+01  0.26028914719E+01  0.12517586984E+02  0.15328135787E+02  0.00000000000E+00 0.  1.
</event>
<event>
12    1  0.8133506E-002  0.2321270E+03  0.7818608E-02  0.1125158E+00
         21   -1    0    0  501  502  0.00000000000E+00  0.00000000000E+00  0.15335678627E+04  0.15335678627E+04  0.00000000000E+00 0.  1.
         21   -1    0    0  502  503 -0.00000000000E+00 -0.00000000000E+00 -0.62799974694E+02  0.62799974694E+02  0.00000000000E+00 0.  1.
         -6    2    1    2    0  503  0.12381941595E+03 -0.96526611236E+02  0.20559706645E+03  0.31008560255E+03  0.17098038699E+03 0.  0.
        -24    2    3    3    0    0  0.66510198670E+02 -0.40901890353E+02  0.18233916768E+03  0.22677008291E+03  0.10991145196E+03 0.  0.
          6    2    1    2  501    0 -0.12381941595E+03  0.96526611236E+02  0.12651708215E+04  0.12862822348E+04  0.17092731060E+03 0.  0.
         24    2    5    5    0    0 -0.19113330843E+02  0.52808477673E+02  0.85864469350E+03  0.86419193378E+03  0.80018335396E+02 0.  0.
          5    1    5    5  501    0 -0.10470608510E+03  0.43718133563E+02  0.40652612805E+03  0.42209030105E+03  0.47000000000E+01 0. -1.
        -11    1    6    6    0    0 -0.33619689848E+02  0.30837520501E+02  0.20489676686E+03  0.20991408072E+03  0.00000000000E+00 0.  1.
         12    1    6    6    0    0  0.14506359005E+02  0.21970957172E+02  0.65374792665E+03  0.65427785306E+03  0.00000000000E+00 0. -1.
         -5    1    3    3    0  503  0.57309217277E+02 -0.55624720884E+02  0.23257898769E+02  0.83315519643E+02  0.47000000000E+01 0.  1.
         13    1    4    4    0    0 -0.14489793348E+02  0.12797643573E+02 -0.90145030380E+00  0.19353201413E+02  0.00000000000E+00 0. -1.
        -14    1    4    4    0    0  0.80999992018E+02 -0.53699533926E+02  0.18324061799E+03  0.20741688150E+03  0.00000000000E+00 0.  1.
</event>
<event>
12    1  0.8133506E-002  0.1890899E+03  0.7818608E-02  0.1160183E+00
         21   -1    0    0  503  502  0.00000000000E+00  0.00000000000E+00  0.55657269771E+03  0.55657269771E+03  0.00000000000E+00 0.  1.
         21   -1    0    0  501  503 -0.00000000000E+00 -0.00000000000E+00 -0.78460831392E+02  0.78460831392E+02  0.00000000000E+00 0.  1.
          6    2    1    2  501    0 -0.57349883106E+02 -0.58531758091E+02  0.99746192584E+02  0.21378559966E+03  0.17041127864E+03 0.  0.
         24    2    3    3    0    0 -0.75967841237E+02 -0.35047555601E+02  0.12775182378E+03  0.17249950623E+03  0.80225352067E+02 0.  0.
         -6    2    1    2    0  502  0.57349883106E+02  0.58531758091E+02  0.37836567373E+03  0.42124792944E+03  0.16605498849E+03 0.  0.
        -24    2    5    5    0    0  0.49982279818E+02  0.82639121741E+02  0.16922725603E+03  0.21054336300E+03  0.79769610641E+02 0.  0.
          5    1    3    3  501    0  0.18617958131E+02 -0.23484202490E+02 -0.28005631200E+02  0.41286093427E+02  0.47000000000E+01 0. -1.
        -11    1    4    4    0    0 -0.38163954456E+02  0.83429538698E+01  0.83427559637E+01  0.39946137185E+02  0.00000000000E+00 0.  1.
         12    1    4    4    0    0 -0.37803886781E+02 -0.43390509471E+02  0.11940906782E+03  0.13255336905E+03  0.00000000000E+00 0. -1.
         -5    1    5    5    0  502  0.73676032872E+01 -0.24107363650E+02  0.20913841770E+03  0.21070456644E+03  0.47000000000E+01 0.  1.
         11    1    6    6    0    0 -0.93728473362E+01  0.10562558944E+02 -0.31809639471E+01  0.14475373925E+02  0.00000000000E+00 0. -1.
        -12    1    6    6    0    0  0.59355127155E+02  0.72076562797E+02  0.17240821998E+03  0.19606798907E+03  0.00000000000E+00 0.  1.
</event>
<event>
12    1  0.8133506E-002  0.1757203E+03  0.7818608E-02  0.1172428E+00
         21   -1    0    0  501  502  0.00000000000E+00  0.00000000000E+00  0.11296466982E+04  0.11296466982E+04  0.00000000000E+00 0. -1.
         21   -1    0    0  502  503 -0.00000000000E+00 -0.00000000000E+00 -0.27075553165E+02  0.27075553165E+02  0.00000000000E+00 0. -1.
         -6    2    1    2    0  503  0.84321699569E+01 -0.27027040424E+02  0.55403732084E+03  0.58123573976E+03  0.17342453657E+03 0.  0.
        -24    2    3    3    0    0 -0.17563461051E+02 -0.15025994877E+02  0.11873498019E+03  0.14496745567E+03  0.79895631903E+02 0.  0.
          6    2    1    2  501    0 -0.84321699569E+01  0.27027040424E+02  0.54853382421E+03  0.57548651162E+03  0.17173760902E+03 0.  0.
         24    2    5    5    0    0 -0.10876210569E+02 -0.48017046384E+02  0.37180335155E+03  0.38341012508E+03  0.79634559653E+02 0.  0.
          5    1    5    5  501    0  0.24440406122E+01  0.75044086808E+02  0.17673047266E+03  0.19207638654E+03  0.47000000000E+01 0. -1.
        -11    1    6    6    0    0  0.23660960526E+02  0.96491044140E+01  0.12706655070E+03  0.12961039532E+03  0.00000000000E+00 0.  1.
         12    1    6    6    0    0 -0.34537171095E+02 -0.57666150798E+02  0.24473680085E+03  0.25379972976E+03  0.00000000000E+00 0. -1.
         -5    1    3    3    0  503  0.25995631008E+02 -0.12001045548E+02  0.43530234065E+03  0.43626828408E+03  0.47000000000E+01 0.  1.
         11    1    4    4    0    0  0.22157147893E+02 -0.14762763013E+02  0.95076618876E+02  0.98734197882E+02  0.00000000000E+00 0. -1.
        -12    1    4    4    0    0 -0.39720608944E+02 -0.26323186341E+00  0.23658361317E+02  0.46233257792E+02  0.00000000000E+00 0.  1.
</event>
<event>
12    1  0.8133506E-002  0.2279325E+03  0.7818608E-02  0.1128364E+00
         21   -1    0    0  501  502  0.00000000000E+00  0.00000000000E+00  0.55974567889E+02  0.55974567889E+02  0.00000000000E+00 0. -1.
         21   -1    0    0  502  503 -0.00000000000E+00 -0.00000000000E+00 -0.17641300900E+04  0.17641300900E+04  0.00000000000E+00 0. -1.
         -6    2    1    2    0  503  0.11020968839E+03 -0.99066194347E+02 -0.14813259434E+04  0.14985383400E+04  0.17126096976E+03 0.  0.
        -24    2    3    3    0    0  0.10027834091E+03 -0.10739460940E+03 -0.14729241914E+04  0.14823929507E+04  0.79961483492E+02 0.  0.
          6    2    1    2  501    0 -0.11020968839E+03  0.99066194347E+02 -0.22682957870E+03  0.32156631782E+03  0.17318473577E+03 0.  0.
         24    2    5    5    0    0 -0.28885249121E+00  0.69494548851E+02 -0.72668204020E+02  0.12987674631E+03  0.82205386684E+02 0.  0.
          5    1    5    5  501    0 -0.10992083590E+03  0.29571645496E+02 -0.15416137468E+03  0.19168957151E+03  0.47000000000E+01 0. -1.
        -13    1    6    6    0    0  0.34142732831E+02  0.17204341038E+02 -0.64960238435E+01  0.38780328538E+02  0.00000000000E+00 0.  1.
         14    1    6    6    0    0 -0.34431585323E+02  0.52290207812E+02 -0.66172180176E+02  0.91096417768E+02  0.00000000000E+00 0. -1.
         -5    1    3    3    0  503  0.99313474848E+01  0.83284150549E+01 -0.84017519164E+01  0.16145389294E+02  0.47000000000E+01 0.  1.
         13    1    4    4    0    0  0.39212250773E+02 -0.10107385916E+02 -0.67854324355E+03  0.67975046394E+03  0.00000000000E+00 0. -1.
        -14    1    4    4    0    0  0.61066090136E+02 -0.97287223486E+02 -0.79438094790E+03  0.80264248679E+03  0.00000000000E+00 0.  1.
</event>
<event>
12    1  0.8133506E-002  0.1883666E+03  0.7818608E-02  0.1160431E+00
         21   -1    0    0  501  502  0.00000000000E+00  0.00000000000E+00  0.16677638230E+03  0.16677638230E+03  0.00000000000E+00 0.  1.
         21   -1    0    0  502  503 -0.00000000000E+00 -0.00000000000E+00 -0.21038664583E+03  0.21038664583E+03  0.00000000000E+00 0.  1.
         -6    2    1    2    0  503  0.73488586992E+02  0.10082498032E+02 -0.19465575118E+02  0.18725535502E+03  0.17083158427E+03 0.  0.
        -24    2    3    3    0    0 -0.19907210392E+02  0.13454956683E+02 -0.39914699980E+02  0.91472239838E+02  0.78718831937E+02 0.  0.
          6    2    1    2  501    0 -0.73488586992E+02 -0.10082498032E+02 -0.24144688415E+02  0.18990767311E+03  0.17314655394E+03 0.  0.
         24    2    5    5    0    0 -0.94047774084E+02  0.24477880965E+02 -0.56483918981E+02  0.13809053498E+03  0.80214788417E+02 0.  0.
          5    1    5    5  501    0  0.20559187092E+02 -0.34560378997E+02  0.32339230566E+02  0.51817138129E+02  0.47000000000E+01 0. -1.
        -11    1    6    6    0    0 -0.33782160374E+02 -0.25930173702E+01  0.18133090932E+02  0.38428727345E+02  0.00000000000E+00 0.  1.
         12    1    6    6    0    0 -0.60265613710E+02  0.27070898335E+02 -0.74617009913E+02  0.99661807634E+02  0.00000000000E+00 0. -1.
         -5    1    3    3    0  503  0.93395797384E+02 -0.33724586514E+01  0.20449124862E+02  0.95783115182E+02  0.47000000000E+01 0.  1.
         13    1    4    4    0    0 -0.33328952275E+02 -0.23035655165E+02 -0.82906828576E+01  0.41354514758E+02  0.00000000000E+00 0. -1.
        -14    1    4    4    0    0  0.13421741883E+02  0.36490611848E+02 -0.31624017123E+02  0.50117725080E+02  0.00000000000E+00 0.  1.
</event>
<event>
12    1  0.8133506E-002  0.1897408E+03  0.7818608E-02  0.1158934E+00
         21   -1    0    0  501  502  0.00000000000E+00  0.00000000000E+00  0.29436085317E+02  0.29436085317E+02  0.00000000000E+00 0. -1.
         21   -1    0    0  502  503 -0.00000000000E+00 -0.00000000000E+00 -0.13160925106E+04  0.13160925106E+04  0.00000000000E+00 0.  1.
         -6    2    1    2    0  503  0.16640779100E+02 -0.77876415573E+02 -0.83028319790E+03  0.85168760217E+03  0.17222058924E+03 0.  0.
        -24    2    3    3    0    0 -0.32205993852E+02 -0.54940095242E+01 -0.24598809302E+03  0.26088469129E+03  0.80518755943E+02 0.  0.
          6    2    1    2  501    0 -0.16640779100E+02  0.77876415573E+02 -0.45637322739E+03  0.49384099374E+03  0.17105774695E+03 0.  0.
         24    2    5    5    0    0 -0.15233138415E+02  0.12113433197E+01 -0.36867892606E+03  0.37725670989E+03  0.78517251472E+02 0.  0.
          5    1    5    5  501    0 -0.14076406854E+01  0.76665072254E+02 -0.87694301331E+02  0.11658428385E+03  0.47000000000E+01 0. -1.
        -13    1    6    6    0    0 -0.16756225925E+02  0.19951575256E+02 -0.34924716970E+03  0.35021767803E+03  0.00000000000E+00 0.  1.
         14    1    6    6    0    0  0.15230875109E+01 -0.18740231936E+02 -0.19431756353E+02  0.27039031853E+02  0.00000000000E+00 0. -1.
         -5    1    3    3    0  503  0.48846772952E+02 -0.72382406049E+02 -0.58429510487E+03  0.59080291089E+03  0.47000000000E+01 0.  1.
         11    1    4    4    0    0 -0.26539131326E+02 -0.41990912274E+02 -0.15142558984E+03  0.15936521409E+03  0.00000000000E+00 0. -1.
        -12    1    4    4    0    0 -0.56668625259E+01  0.36496902750E+02 -0.94562503181E+02  0.10151947719E+03  0.00000000000E+00 0.  1.
</event>
<event>
12    1  0.8133506E-002  0.1820119E+03  0.7818608E-02  0.1165938E+00
         21   -1    0    0  503  502  0.00000000000E+00  0.00000000000E+00  0.51983220526E+02  0.51983220526E+02  0.00000000000E+00 0.  1.
         21   -1    0    0  501  503 -0.00000000000E+00 -0.00000000000E+00 -0.96848157266E+03  0.96848157266E+03  0.00000000000E+00 0. -1.
          6    2    1    2  501    0  0.26438835490E+02  0.54411338568E+02 -0.75730376218E+03  0.77886925078E+03  0.17166454443E+03 0.  0.
         24    2    3    3    0    0 -0.34398735438E+02  0.30550417598E+02 -0.61666856763E+03  0.62372125198E+03  0.81433880264E+02 0.  0.
         -6    2    1    2    0  502 -0.26438835490E+02 -0.54411338568E+02 -0.15919458996E+03  0.24159554241E+03  0.17136476549E+03 0.  0.
        -24    2    5    5    0    0  0.33455814785E+02 -0.76842781621E+02 -0.93287304558E+02  0.14963686126E+03  0.81636783541E+02 0.  0.
          5    1    3    3  501    0  0.60837570927E+02  0.23860920970E+02 -0.14063519455E+03  0.15514799880E+03  0.47000000000E+01 0. -1.
        -11    1    4    4    0    0 -0.66750793231E+01 -0.27801772880E+02 -0.21442188201E+03  0.21631976041E+03  0.00000000000E+00 0.  1.
         12    1    4    4    0    0 -0.27723656115E+02  0.58352190477E+02 -0.40224668562E+03  0.40740149158E+03  0.00000000000E+00 0. -1.
         -5    1    5    5    0  502 -0.59894650275E+02  0.22431443053E+02 -0.65907285402E+02  0.91958681145E+02  0.47000000000E+01 0.  1.
         11    1    6    6    0    0 -0.26181846694E+02 -0.31160514270E+02 -0.43168818648E+02  0.59329702926E+02  0.00000000000E+00 0. -1.
        -12    1    6    6    0    0  0.59637661479E+02 -0.45682267351E+02 -0.50118485911E+02  0.90307158338E+02  0.00000000000E+00 0.  1.
</event>
<event>
12    1  0.8133506E-002  0.1782840E+03  0.7818608E-02  0.1169978E+00
         21   -1    0    0  503  502  0.00000000000E+00  0.00000000000E+00  0.59384493300E+02  0.59384493300E+02  0.00000000000E+00 0. -1.
         21   -1    0    0  501  503 -0.00000000000E+00 -0.00000000000E+00 -0.68660204408E+03  0.68660204408E+03  0.00000000000E+00 0. -1.
          6    2    1    2  501    0 -0.33199659250E+02  0.22614371809E+02 -0.49363447047E+03  0.52484298621E+03  0.17369957557E+03 0.  0.
         24    2    3    3    0    0 -0.85935528125E+02  0.16643921598E+02 -0.28598442881E+03  0.31046633650E+03  0.83308567725E+02 0.  0.
         -6    2    1    2    0  502  0.33199659250E+02 -0.22614371809E+02 -0.13358308031E+03  0.22114355117E+03  0.17159954455E+03 0.  0.
        -24    2    5    5    0    0  0.34305345013E+02 -0.72664528964E+02 -0.13078845786E+03  0.17078344109E+03  0.74862357535E+02 0.  0.
          5    1    3    3  501    0  0.52735868875E+02  0.59704502117E+01 -0.20765004166E+03  0.21437664971E+03  0.47000000000E+01 0. -1.
        -13    1    4    4    0    0  0.17230757364E+01 -0.76096528327E+01  0.23327505324E+01  0.81435576546E+01  0.00000000000E+00 0.  1.
         14    1    4    4    0    0 -0.87658603861E+02  0.24253574430E+02 -0.28831717934E+03  0.30232277885E+03  0.00000000000E+00 0. -1.
         -5    1    5    5    0  502 -0.11056857632E+01  0.50050157155E+02 -0.27946224510E+01  0.50360110076E+02  0.47000000000E+01 0.  1.
         13    1    6    6    0    0  0.92239777872E+00 -0.70339866530E+02 -0.59900368659E+02  0.92393732507E+02  0.00000000000E+00 0. -1.
        -14    1    6    6    0    0  0.33382947235E+02 -0.23246624346E+01 -0.70888089198E+02  0.78389708583E+02  0.00000000000E+00 0.  1.
</event>
<event>
12    1  0.8133506E-002  0.2212485E+03  0.7818608E-02  0.1133079E+00
         21   -1    0    0  501  502  0.00000000000E+00  0.00000000000E+00  0.60849430913E+03  0.60849430913E+03  0.00000000000E+00 0. -1.
         21   -1    0    0  502  503 -0.00000000000E+00 -0.00000000000E+00 -0.81539586792E+02  0.81539586792E+02  0.00000000000E+00 0. -1.
         -6    2    1    2    0  503 -0.97894641939E+02 -0.97318550157E+02  0.21891975328E+03  0.31077615547E+03  0.17205144378E+03 0.  0.
        -24    2    3    3    0    0 -0.55044724286E+02 -0.72255493630E+02  0.40383415971E+02  0.12540737173E+03  0.76455284759E+02 0.  0.
          6    2    1    2  501    0  0.97894641939E+02  0.97318550157E+02  0.30803496906E+03  0.37925774045E+03  0.17290642095E+03 0.  0.
         24    2    5    5    0    0  0.33092996659E+02  0.97547172091E+02  0.10791763563E+03  0.16885730642E+03  0.79094732081E+02 0.  0.
          5    1    5    5  501    0  0.64801645281E+02 -0.22862193357E+00  0.20011733343E+03  0.21040043403E+03  0.47000000000E+01 0. -1.
        -13    1    6    6    0    0  0.52890152242E+02  0.39625283229E+02  0.39235518898E+02  0.76856731770E+02  0.00000000000E+00 0.  1.
         14    1    6    6    0    0 -0.19797155583E+02  0.57921888862E+02  0.68682116729E+02  0.92000574655E+02  0.00000000000E+00 0. -1.
         -5    1    3    3    0  503 -0.42849917653E+02 -0.25063056527E+02  0.17853633731E+03  0.18536878374E+03  0.47000000000E+01 0.  1.
         13    1    4    4    0    0 -0.56833747856E+02 -0.49811408380E+02 -0.39587573915E+01  0.75676436625E+02  0.00000000000E+00 0. -1.
        -14    1    4    4    0    0  0.17890235695E+01 -0.22444085251E+02  0.44342173363E+02  0.49730935107E+02  0.00000000000E+00 0.  1.
</event>
<event>
12    1  0.8133506E-002  0.1787088E+03  0.7818608E-02  0.1170622E+00
         21   -1    0    0  501  502  0.00000000000E+00  0.00000000000E+00  0.15977738288E+04  0.15977738288E+04  0.00000000000E+00 0.  1.
         21   -1    0    0  502  503 -0.00000000000E+00 -0.00000000000E+00 -0.28254681383E+02  0.28254681383E+02  0.00000000000E+00 0.  1.
         -6    2    1    2    0  503  0.25494553114E+02 -0.42977199097E+02  0.31733356789E+03  0.36115477536E+03  0.16503080494E+03 0.  0.
        -24    2    3    3    0    0  0.18052585795E+02  0.31900990019E+02  0.22688030765E+03  0.24340075900E+03  0.80160379629E+02 0.  0.
          6    2    1    2  501    0 -0.25494553114E+02  0.42977199097E+02  0.12521855795E+04  0.12648737348E+04  0.17158038225E+03 0.  0.
         24    2    5    5    0    0 -0.40852875960E+02  0.89897977487E+02  0.82539297687E+03  0.83520938534E+03  0.80935451258E+02 0.  0.
          5    1    5    5  501    0  0.15358322846E+02 -0.46920778390E+02  0.42679260263E+03  0.42966434944E+03  0.47000000000E+01 0. -1.
        -13    1    6    6    0    0  0.90076094065E+01  0.19043039073E+02  0.42630285127E+03  0.42682302582E+03  0.00000000000E+00 0.  1.
         14    1    6    6    0    0 -0.49860485367E+02  0.70854938414E+02  0.39909012560E+03  0.40838635953E+03  0.00000000000E+00 0. -1.
         -5    1    3    3    0  503  0.74419673188E+01 -0.74878189116E+02  0.90453260236E+02  0.11775401637E+03  0.47000000000E+01 0.  1.
         11    1    4    4    0    0 -0.29834949653E+02  0.14066851715E+01  0.10071359929E+03  0.10504918879E+03  0.00000000000E+00 0. -1.
        -12    1    4    4    0    0  0.47887535448E+02  0.30494304848E+02  0.12616670836E+03  0.13835157021E+03  0.00000000000E+00 0.  1.
</event>
<event>
12    1  0.8133506E-002  0.4145583E+03  0.7818608E-02  0.1038993E+00
         21   -1    0    0  501  502  0.00000000000E+00  0.00000000000E+00  0.36487454752E+03  0.36487454752E+03  0.00000000000E+00 0.  1.
         21   -1    0    0  502  503 -0.00000000000E+00 -0.00000000000E+00 -0.68555460101E+03  0.68555460101E+03  0.00000000000E+00 0. -1.
         -6    2    1    2    0  503  0.10638871559E+03  0.36180555881E+03  0.13501648136E+03  0.43437890869E+03  0.16802905965E+03 0.  0.
        -24    2    3    3    0    0  0.67719389703E+02  0.97729304631E+02  0.41485112773E+02  0.15153302894E+03  0.84287078198E+02 0.  0.
          6    2    1    2  501    0 -0.10638871559E+03 -0.36180555881E+03 -0.45569653485E+03  0.61605023985E+03  0.17215326008E+03 0.  0.
         24    2    5    5    0    0 -0.72105719700E+01 -0.14587801183E+03 -0.12465047303E+03  0.20852773156E+03  0.81324582503E+02 0.  0.
          5    1    5    5  501    0 -0.99178143623E+02 -0.21592754698E+03 -0.33104606182E+03  0.40752250829E+03  0.47000000000E+01 0. -1.
        -13    1    6    6    0    0 -0.26081230250E+01 -0.21944627104E+01 -0.43131269593E+02  0.43265741517E+02  0.00000000000E+00 0.  1.
         14    1    6    6    0    0 -0.46024489450E+01 -0.14368354912E+03 -0.81519203436E+02  0.16526199004E+03  0.00000000000E+00 0. -1.
         -5    1    3    3    0  503  0.38669325890E+02  0.26407625418E+03  0.93531368585E+02  0.28284587975E+03  0.47000000000E+01 0.  1.
         13    1    4    4    0    0 -0.48140254790E+01 -0.11430536168E+01 -0.15531719499E+02  0.16300789045E+02  0.00000000000E+00 0. -1.
        -14    1    4    4    0    0  0.72533415182E+02  0.98872358248E+02  0.57016832272E+02  0.13523223989E+03  0.00000000000E+00 0.  1.
</event>
<event>
12    1  0.8133506E-002  0.2266347E+03  0.7818608E-02  0.1129108E+00
         21   -1    0    0  503  502  0.00000000000E+00  0.00000000000E+00  0.12878421726E+04  0.12878421726E+04  0.00000000000E+00 0. -1.
         21   -1    0    0  501  503 -0.00000000000E+00 -0.00000000000E+00 -0.70676151363E+02  0.70676151363E+02  0.00000000000E+00 0. -1.
          6    2    1    2  501    0 -0.12767364543E+03 -0.73416215996E+02  0.15935778895E+03  0.27670431864E+03  0.17169704291E+03 0.  0.
         24    2    3    3    0    0 -0.81963931171E+01  0.10864527846E+02  0.54495384642E+02  0.96714676045E+02  0.78732222055E+02 0.  0.
         -6    2    1    2    0  502  0.12767364543E+03  0.73416215996E+02  0.10578082323E+04  0.10818140054E+04  0.17225790353E+03 0.  0.
        -24    2    5    5    0    0  0.84895018045E+01  0.44581048993E+02  0.28995326687E+03  0.30421535251E+03  0.80090836967E+02 0.  0.
          5    1    3    3  501    0 -0.11947725231E+03 -0.84280743842E+02  0.10486240431E+03  0.17998964259E+03  0.47000000000E+01 0. -1.
        -13    1    4    4    0    0 -0.39059737771E+02  0.22851516750E+02  0.40639542106E+02  0.60822917680E+02  0.00000000000E+00 0.  1.
         14    1    4    4    0    0  0.30863344653E+02 -0.11986988903E+02  0.13855842535E+02  0.35891758365E+02  0.00000000000E+00 0. -1.
         -5    1    5    5    0  502  0.11918414362E+03  0.28835167004E+02  0.76785496544E+03  0.77759865284E+03  0.47000000000E+01 0.  1.
         13    1    6    6    0    0  0.22682328217E+02  0.63123947401E+02  0.23768360104E+03  0.24696682966E+03  0.00000000000E+00 0. -1.
        -14    1    6    6    0    0 -0.14192826413E+02 -0.18542898408E+02  0.52269665833E+02  0.57248522856E+02  0.00000000000E+00 0.  1.
</event>
<event>
12    1  0.8133506E-002  0.2502932E+03  0.7818608E-02  0.1114325E+00
         21   -1    0    0  503  502  0.00000000000E+00  0.00000000000E+00  0.62931038964E+03  0.62931038964E+03  0.00000000000E+00 0.  1.
         21   -1    0    0  501  503 -0.00000000000E+00 -0.00000000000E+00 -0.17909294788E+03  0.17909294788E+03  0.00000000000E+00 0.  1.
          6    2    1    2  501    0  0.16024132918E+03 -0.76545081097E+02 -0.47382284535E+02  0.25473861648E+03  0.17638097635E+03 0.  0.
         24    2    3    3    0    0  0.10092316205E+03 -0.48724818963E+02 -0.10049463733E+03  0.17026599395E+03  0.79572256119E+02 0.  0.
         -6    2    1    2    0  502 -0.16024132918E+03  0.76545081097E+02  0.49759972630E+03  0.55366472104E+03  0.16553761715E+03 0.  0.
        -24    2    5    5    0    0 -0.10383544267E+03 -0.16322307125E+02  0.30754900981E+03  0.33469590895E+03  0.79917089348E+02 0.  0.
          5    1    3    3  501    0  0.59318167130E+02 -0.27820262134E+02  0.53112352792E+02  0.84472622523E+02  0.47000000000E+01 0. -1.
        -11    1    4    4    0    0  0.98252220722E+02 -0.26211230984E+02 -0.46719863868E+02  0.11190743133E+03  0.00000000000E+00 0.  1.
         12    1    4    4    0    0  0.26709413322E+01 -0.22513587979E+02 -0.53774773460E+02  0.58358562627E+02  0.00000000000E+00 0. -1.
         -5    1    5    5    0  502 -0.56405886513E+02  0.92867388222E+02  0.19005071649E+03  0.21896881208E+03  0.47000000000E+01 0.  1.
         11    1    6    6    0    0 -0.40687216793E+02  0.76012402421E+01  0.35936191794E+02  0.54814581493E+02  0.00000000000E+00 0. -1.
        -12    1    6    6    0    0 -0.63148225879E+02 -0.23923547367E+02  0.27161281802E+03  0.27988132746E+03  0.00000000000E+00 0.  1.
</event>
<event>
12    1  0.8133506E-002  0.2500667E+03  0.7818608E-02  0.1113416E+00
         21   -1    0    0  501  502  0.00000000000E+00  0.00000000000E+00  0.16007524875E+03  0.16007524875E+03  0.00000000000E+00 0.  1.
         21   -1    0    0  502  503 -0.00000000000E+00 -0.00000000000E+00 -0.39242828296E+03  0.39242828296E+03  0.00000000000E+00 0. -1.
         -6    2    1    2    0  503 -0.16734359300E+03  0.67449513439E+02 -0.14123372039E+03  0.28635304480E+03  0.17174919945E+03 0.  0.
        -24    2    3    3    0    0 -0.13664015902E+03 -0.79530184889E+01 -0.13117037783E+03  0.20418490291E+03  0.75842092495E+02 0.  0.
          6    2    1    2  501    0  0.16734359300E+03 -0.67449513439E+02 -0.91119313810E+02  0.26615048691E+03  0.17314744396E+03 0.  0.
         24    2    5    5    0    0  0.14340310696E+03  0.76562463957E+01 -0.91072348944E+02  0.18718141551E+03  0.78228130325E+02 0.  0.
          5    1    5    5  501    0  0.23940486034E+02 -0.75105759835E+02 -0.46964866660E-01  0.78969071399E+02  0.47000000000E+01 0. -1.
        -13    1    6    6    0    0  0.43757080930E+01 -0.74670682512E+01  0.11035452503E+02  0.14024447994E+02  0.00000000000E+00 0.  1.
         14    1    6    6    0    0  0.13902739887E+03  0.15123314647E+02 -0.10210780145E+03  0.17315696751E+03  0.00000000000E+00 0. -1.
         -5    1    3    3    0  503 -0.30703433972E+02  0.75402531928E+02 -0.10063342562E+02  0.82168141894E+02  0.47000000000E+01 0.  1.
         13    1    4    4    0    0 -0.11859099515E+03  0.15067144391E+02 -0.75765293518E+02  0.14153170201E+03  0.00000000000E+00 0. -1.
        -14    1    4    4    0    0 -0.18049163874E+02 -0.23020162880E+02 -0.55405084313E+02  0.62653200902E+02  0.00000000000E+00 0.  1.
</event>
<event>
12    1  0.8133506E-002  0.2063499E+03  0.7818608E-02  0.1144998E+00
         21   -1    0    0  501  502  0.00000000000E+00  0.00000000000E+00  0.11098529203E+03  0.11098529203E+03  0.00000000000E+00 0. -1.
         21   -1    0    0  502  503 -0.00000000000E+00 -0.00000000000E+00 -0.56924537213E+03  0.56924537213E+03  0.00000000000E+00 0.  1.
         -6    2    1    2    0  503  0.32962316847E+02  0.10896548325E+03 -0.42666087050E+03  0.47394070200E+03  0.17210549010E+03 0.  0.
        -24    2    3    3    0    0  0.36140153297E+02  0.10476612290E+03 -0.43899846799E+03  0.45972663910E+03  0.79667286968E+02 0.  0.
          6    2    1    2  501    0 -0.32962316847E+02 -0.10896548325E+03 -0.31599209596E+02  0.20628996216E+03  0.16910661599E+03 0.  0.
         24    2    5    5    0    0 -0.55067158314E+02 -0.80290344057E+01  0.30443594230E+01  0.97207160604E+02  0.79643622658E+02 0.  0.
          5    1    5    5  501    0  0.22104841467E+02 -0.10093644884E+03 -0.34643569019E+02  0.10908280156E+03  0.47000000000E+01 0. -1.
        -13    1    6    6    0    0 -0.85945937760E+01  0.66887231899E+01 -0.34179497481E+02  0.35872609442E+02  0.00000000000E+00 0.  1.
         14    1    6    6    0    0 -0.46472564538E+02 -0.14717757596E+02  0.37223856904E+02  0.61334551162E+02  0.00000000000E+00 0. -1.
         -5    1    3    3    0  503 -0.31778364492E+01  0.41993603555E+01  0.12337597498E+02  0.14214062893E+02  0.47000000000E+01 0.  1.
         11    1    4    4    0    0  0.25213739286E+02 -0.78350694433E+00 -0.14469370256E+03  0.14687618626E+03  0.00000000000E+00 0. -1.
        -12    1    4    4    0    0  0.10926414011E+02  0.10554962984E+03 -0.29430476544E+03  0.31285045284E+03  0.00000000000E+00 0.  1.
</event>
<event>
12    1  0.8133506E-002  0.2047396E+03  0.7818608E-02  0.1149930E+00
         21   -1    0    0  501  502  0.00000000000E+00  0.00000000000E+00  0.17927751855E+03  0.17927751855E+03  0.00000000000E+00 0. -1.
         21   -1    0    0  502  503 -0.00000000000E+00 -0.00000000000E+00 -0.21744592444E+03  0.21744592444E+03  0.00000000000E+00 0. -1.
         -6    2    1    2    0  503 -0.44182767526E+02  0.54166458307E+02 -0.48185533121E+02  0.19173894101E+03  0.17191816002E+03 0.  0.
        -24    2    3    3    0    0 -0.77346469687E+02 -0.13741521285E+02 -0.33272373401E+02  0.11456500003E+03  0.76464257139E+02 0.  0.
          6    2    1    2  501    0  0.44182767526E+02 -0.54166458307E+02  0.10017127233E+02  0.20498450197E+03  0.19243747312E+03 0.  0.
         24    2    5    5    0    0  0.34073844015E+02 -0.11036455732E+03  0.31609719365E+02  0.14375749240E+03  0.79534143005E+02 0.  0.
          5    1    5    5  501    0  0.10108923511E+02  0.56198099011E+02 -0.21592592131E+02  0.61227009579E+02  0.47000000000E+01 0. -1.
        -13    1    6    6    0    0  0.43808263222E+02 -0.80045992727E+02 -0.95164046680E+01  0.91744682876E+02  0.00000000000E+00 0.  1.
         14    1    6    6    0    0 -0.97344192069E+01 -0.30318564591E+02  0.41126124033E+02  0.52012809520E+02  0.00000000000E+00 0. -1.
         -5    1    3    3    0  503  0.33163702161E+02  0.67907979591E+02 -0.14913159721E+02  0.77173940978E+02  0.47000000000E+01 0.  1.
         11    1    4    4    0    0 -0.80958513869E+02 -0.19872491540E+01 -0.48959861552E+02  0.94632437199E+02  0.00000000000E+00 0. -1.
        -12    1    4    4    0    0  0.36120441820E+01 -0.11754272131E+02  0.15687488151E+02  0.19932562831E+02  0.00000000000E+00 0.  1.
</event>
<event>
12    1  0.8133506E-002  0.1957197E+03  0.7818608E-02  0.1153723E+00
         21   -1    0    0  503  502  0.00000000000E+00  0.00000000000E+00  0.14105633375E+04  0.14105633375E+04  0.00000000000E+00 0. -1.
         21   -1    0    0  501  503 -0.00000000000E+00 -0.00000000000E+00 -0.56663317992E+02  0.56663317992E+02  0.00000000000E+00 0. -1.
          6    2    1    2  501    0  0.44357311900E+02 -0.81447808522E+02  0.14694909509E+03  0.24474526299E+03  0.17235106781E+03 0.  0.
         24    2    3    3    0    0  0.38544297900E+02  0.22562758151E+02  0.66916901556E+02  0.11329477378E+03  0.79768998338E+02 0.  0.
         -6    2    1    2    0  502 -0.44357311900E+02  0.81447808522E+02  0.12069509244E+04  0.12224813925E+04  0.17067192047E+03 0.  0.
        -24    2    5    5    0    0 -0.12465466134E+02  0.10299881036E+03  0.59096707885E+03  0.60527824644E+03  0.79721543852E+02 0.  0.
          5    1    3    3  501    0  0.58130139999E+01 -0.10401056667E+03  0.80032193536E+02  0.13145048921E+03  0.47000000000E+01 0. -1.
        -13    1    4    4    0    0 -0.94856803856E+00  0.11213149426E+02 -0.16693676318E+02  0.20132395049E+02  0.00000000000E+00 0.  1.
         14    1    4    4    0    0  0.39492865938E+02  0.11349608724E+02  0.83610577874E+02  0.93162378730E+02  0.00000000000E+00 0. -1.
         -5    1    5    5    0  502 -0.31891845765E+02 -0.21551001836E+02  0.61598384559E+03  0.61720314608E+03  0.47000000000E+01 0.  1.
         13    1    6    6    0    0 -0.18127449944E+02  0.62178316039E+02  0.51316004720E+03  0.51723107164E+03  0.00000000000E+00 0. -1.
        -14    1    6    6    0    0  0.56619838098E+01  0.40820494319E+02  0.77807031651E+02  0.88047174807E+02  0.00000000000E+00 0.  1.
</event>
<event>
12    1  0.8133506E-002  0.1893596E+03  0.7818608E-02  0.1159130E+00
         21   -1    0    0  501  502  0.00000000000E+00  0.00000000000E+00  0.18281729349E+03  0.18281729349E+03  0.00000000000E+00 0.  1.
         21   -1    0    0  502  503 -0.00000000000E+00 -0.00000000000E+00 -0.27218000095E+03  0.27218000095E+03  0.00000000000E+00 0.  1.
         -6    2    1    2    0  503 -0.69558183468E+02  0.38739206784E+02 -0.16528699763E+03  0.25135008366E+03  0.17180804969E+03 0.  0.
        -24    2    3    3    0    0 -0.94498076346E+02  0.13333771372E+02 -0.17362309275E+03  0.21448526456E+03  0.82166139532E+02 0.  0.
          6    2    1    2  501    0  0.69558183468E+02 -0.38739206784E+02  0.75924290174E+02  0.20364721079E+03  0.17137275628E+03 0.  0.
         24    2    5    5    0    0  0.68241819051E+02  0.28123764113E+02  0.79675714547E+02  0.13650145234E+03  0.82683341901E+02 0.  0.
          5    1    5    5  501    0  0.13163644171E+01 -0.66862970897E+02 -0.37514243733E+01  0.67145758446E+02  0.47000000000E+01 0. -1.
        -13    1    6    6    0    0  0.63782947637E+02 -0.12538431926E+02  0.67753280695E+02  0.93893470110E+02  0.00000000000E+00 0.  1.
         14    1    6    6    0    0  0.44588714139E+01  0.40662196039E+02  0.11922433853E+02  0.42607982233E+02  0.00000000000E+00 0. -1.
         -5    1    3    3    0  503  0.24939892879E+02  0.25405435411E+02  0.83360951165E+01  0.36864819097E+02  0.47000000000E+01 0.  1.
         11    1    4    4    0    0 -0.74733751517E+02  0.21610097629E+02 -0.58372809023E+02  0.97260036853E+02  0.00000000000E+00 0. -1.
        -12    1    4    4    0    0 -0.19764324829E+02 -0.82763262562E+01 -0.11525028372E+03  0.11722522771E+03  0.00000000000E+00 0.  1.
</event>
<event>
12    1  0.8133506E-002  0.2058273E+03  0.7818608E-02  0.1145233E+00
         21   -1    0    0  501  502  0.00000000000E+00  0.00000000000E+00  0.59779428512E+02  0.59779428512E+02  0.00000000000E+00 0. -1.
         21   -1    0    0  502  503 -0.00000000000E+00 -0.00000000000E+00 -0.79726549758E+03  0.79726549758E+03  0.00000000000E+00 0.  1.
         -6    2    1    2    0  503 -0.67468953652E+01  0.11178967218E+03 -0.22287978226E+03  0.30338139935E+03  0.17269170428E+03 0.  0.
        -24    2    3    3    0    0 -0.83752147828E+01  0.14911161503E+03 -0.18656739715E+03  0.25107214439E+03  0.76976685111E+02 0.  0.
          6    2    1    2  501    0  0.67468953652E+01 -0.11178967218E+03 -0.51460628680E+03  0.55366352674E+03  0.17082511237E+03 0.  0.
         24    2    5    5    0    0  0.41084650562E+02 -0.32109211717E+02 -0.37948577948E+03  0.39301577944E+03  0.87937455466E+02 0.  0.
          5    1    5    5  501    0 -0.34337755197E+02 -0.79680460463E+02 -0.13512050732E+03  0.16064774729E+03  0.47000000000E+01 0. -1.
        -13    1    6    6    0    0  0.30798498640E+02 -0.53003434386E+02 -0.35056185330E+03  0.35588133495E+03  0.00000000000E+00 0.  1.
         14    1    6    6    0    0  0.10286151922E+02  0.20894222668E+02 -0.28923926184E+02  0.37134444498E+02  0.00000000000E+00 0. -1.
         -5    1    3    3    0  503  0.16283194176E+01 -0.37321942848E+02 -0.36312385117E+02  0.52309254965E+02  0.47000000000E+01 0.  1.
         13    1    4    4    0    0 -0.79063983688E+01  0.10582628390E+03 -0.17756214116E+03  0.20685750523E+03  0.00000000000E+00 0. -1.
        -14    1    4    4    0    0 -0.46881641392E+00  0.43285331132E+02 -0.90052559849E+01  0.44214639153E+02  0.00000000000E+00 0.  1.
</event>
<event>
12    1  0.8133506E-002  0.2026176E+03  0.7818608E-02  0.1147637E+00
         21   -1    0    0  503  502  0.00000000000E+00  0.00000000000E+00  0.62217289246E+03  0.62217289246E+03  0.00000000000E+00 0. -1.
         21   -1    0    0  501  503 -0.00000000000E+00 -0.00000000000E+00 -0.82250723532E+02  0.82250723532E+02  0.00000000000E+00 0. -1.
          6    2    1    2  501    0 -0.10576831508E+03 -0.15704832183E+02  0.11289680740E+03  0.23194732914E+03  0.17210547971E+03 0.  0.
         24    2    3    3    0    0  0.69613360574E+01  0.21136970066E+02  0.34138933101E+02  0.89503707304E+02  0.79688237303E+02 0.  0.
         -6    2    1    2    0  502  0.10576831508E+03  0.15704832183E+02  0.42702536153E+03  0.47247628685E+03  0.17160886930E+03 0.  0.
        -24    2    5    5    0    0  0.72600849252E+02  0.62948694043E+02  0.18224990509E+03  0.22094263632E+03  0.79794731950E+02 0.  0.
          5    1    3    3  501    0 -0.11272965113E+03 -0.36841802250E+02  0.78757874300E+02  0.14244362184E+03  0.47000000000E+01 0. -1.
        -11    1    4    4    0    0 -0.66327623072E+01 -0.28730560400E+02  0.42337785932E+01  0.29788647467E+02  0.00000000000E+00 0.  1.
         12    1    4    4    0    0  0.13594098365E+02  0.49867530467E+02  0.29905154508E+02  0.59715059837E+02  0.00000000000E+00 0. -1.
         -5    1    5    5    0  502  0.33167465825E+02 -0.47243861860E+02  0.24477545644E+03  0.25153365053E+03  0.47000000000E+01 0.  1.
         11    1    6    6    0    0  0.87856308271E+02  0.45052840199E+02  0.12675883173E+03  0.16067448688E+03  0.00000000000E+00 0. -1.
        -12    1    6    6    0    0 -0.15255459019E+02  0.17895853844E+02  0.55491073360E+02  0.60268149444E+02  0.00000000000E+00 0.  1.
</event>
<event>
12    1  0.8133506E-002  0.1992540E+03  0.7818608E-02  0.1150851E+00
         21   -1    0    0  501  502  0.00000000000E+00  0.00000000000E+00  0.13488640883E+03  0.13488640883E+03  0.00000000000E+00 0.  1.
         21   -1    0    0  502  503 -0.00000000000E+00 -0.00000000000E+00 -0.73663727333E+03  0.73663727333E+03  0.00000000000E+00 0. -1.
         -6    2    1    2    0  503  0.73063223677E+02 -0.64728808032E+02 -0.64047709072E+03  0.67075559392E+03  0.17370696530E+03 0.  0.
        -24    2    3    3    0    0  0.56785920929E+02  0.20552378201E+02 -0.46198007327E+03  0.47220810200E+03  0.76862620487E+02 0.  0.
          6    2    1    2  501    0 -0.73063223677E+02  0.64728808032E+02  0.38726226214E+02  0.20076808824E+03  0.17111414732E+03 0.  0.
         24    2    5    5    0    0  0.23530384057E+02  0.36351430293E+02 -0.50203821524E+01  0.90897908634E+02  0.79762899263E+02 0.  0.
          5    1    5    5  501    0 -0.96593607734E+02  0.28377377739E+02  0.43746608367E+02  0.10987017960E+03  0.47000000000E+01 0. -1.
        -13    1    6    6    0    0  0.18217938233E+02 -0.18817786609E+02  0.17037498947E+02  0.31245459457E+02  0.00000000000E+00 0.  1.
         14    1    6    6    0    0  0.53124458245E+01  0.55169216902E+02 -0.22057881099E+02  0.59652449177E+02  0.00000000000E+00 0. -1.
         -5    1    3    3    0  503  0.16277302748E+02 -0.85281186233E+02 -0.17849701744E+03  0.19854749192E+03  0.47000000000E+01 0.  1.
         11    1    4    4    0    0 -0.14437369965E+02 -0.12450258588E+02 -0.79224169133E+02  0.81485677056E+02  0.00000000000E+00 0. -1.
        -12    1    4    4    0    0  0.71223290894E+02  0.33002636788E+02 -0.38275590414E+03  0.39072242494E+03  0.00000000000E+00 0.  1.
</event>
<event>
12    1  0.8133506E-002  0.1768304E+03  0.7818608E-02  0.1171166E+00
         21   -1    0    0  503  502  0.00000000000E+00  0.00000000000E+00  0.19721233921E+04  0.19721233921E+04  0.00000000000E+00 0.  1.
         21   -1    0    0  501  503 -0.00000000000E+00 -0.00000000000E+00 -0.12369114354E+04  0.12369114354E+04  0.00000000000E+00 0.  1.
          6    2    1    2  501    0 -0.34736360475E+02  0.12815875898E+02 -0.12266693180E+04  0.12392005401E+04  0.17184150126E+03 0.  0.
         24    2    3    3    0    0 -0.62397702352E+02  0.42033059308E+01 -0.11740426697E+04  0.11789429239E+04  0.87287379745E+02 0.  0.
         -6    2    1    2    0  502  0.34736360475E+02 -0.12815875898E+02  0.19618812747E+04  0.19698342873E+04  0.17291073401E+03 0.  0.
        -24    2    5    5    0    0 -0.80019445178E+01 -0.62184080599E+02  0.79591689928E+03  0.80203344934E+03  0.76439860755E+02 0.  0.
          5    1    3    3  501    0  0.27661341877E+02  0.86125699677E+01 -0.52626648309E+02  0.60257616183E+02  0.47000000000E+01 0. -1.
        -13    1    4    4    0    0 -0.13315513942E+02  0.39104872306E+02 -0.67803707143E+03  0.67929431337E+03  0.00000000000E+00 0.  1.
         14    1    4    4    0    0 -0.49082188410E+02 -0.34901566375E+02 -0.49600559825E+03  0.49964861057E+03  0.00000000000E+00 0. -1.
         -5    1    5    5    0  502  0.42738304993E+02  0.49368204701E+02  0.11659643754E+04  0.11678008379E+04  0.47000000000E+01 0.  1.
         13    1    6    6    0    0  0.33400351942E+02 -0.19195327748E+02  0.35839347015E+03  0.36045793592E+03  0.00000000000E+00 0. -1.
        -14    1    6    6    0    0 -0.41402296460E+02 -0.42988752852E+02  0.43752342912E+03  0.44157551343E+03  0.00000000000E+00 0.  1.
</event>
<event>
12    1  0.8133506E-002  0.2090359E+03  0.7818608E-02  0.1142434E+00
         21   -1    0    0  501  502  0.00000000000E+00  0.00000000000E+00  0.72373895662E+02  0.72373895662E+02  0.00000000000E+00 0.  1.
         21   -1    0    0  502  503 -0.00000000000E+00 -0.00000000000E+00 -0.74978928304E+03  0.74978928304E+03  0.00000000000E+00 0.  1.
         -6    2    1    2    0  503 -0.38520086064E+02  0.11113760839E+03 -0.52070963182E+03  0.56091099435E+03  0.17218379101E+03 0.  0.
        -24    2    3    3    0    0  0.10211843310E+02  0.11759699955E+03 -0.33567654308E+03  0.36940157264E+03  0.99224212010E+02 0.  0.
          6    2    1    2  501    0  0.38520086064E+02 -0.11113760839E+03 -0.15670575556E+03  0.26125218435E+03  0.17280232919E+03 0.  0.
         24    2    5    5    0    0  0.75429525224E+01 -0.57479170379E+02 -0.64591692001E+01  0.98663939130E+02  0.79574498790E+02 0.  0.
          5    1    5    5  501    0  0.30977133541E+02 -0.53658438007E+02 -0.15024658636E+03  0.16258824522E+03  0.47000000000E+01 0. -1.
        -13    1    6    6    0    0  0.39112439503E+02 -0.32961616758E+02  0.14990366596E+02  0.53300677236E+02  0.00000000000E+00 0.  1.
         14    1    6    6    0    0 -0.31569486981E+02 -0.24517553621E+02 -0.21449535796E+02  0.45363261894E+02  0.00000000000E+00 0. -1.
         -5    1    3    3    0  503 -0.48731929374E+02 -0.64593911649E+01 -0.18503308874E+03  0.19150942171E+03  0.47000000000E+01 0.  1.
         11    1    4    4    0    0 -0.12465724902E+02 -0.14270778907E+02 -0.27134315632E+02  0.33095626792E+02  0.00000000000E+00 0. -1.
        -12    1    4    4    0    0  0.22677568212E+02  0.13186777846E+03 -0.30854222745E+03  0.33630594585E+03  0.00000000000E+00 0.  1.
</event>
<event>
12    1  0.8133506E-002  0.1817331E+03  0.7818608E-02  0.1167377E+00
         21   -1    0    0  503  502  0.00000000000E+00  0.00000000000E+00  0.14389158313E+04  0.14389158313E+04  0.00000000000E+00 0.  1.
         21   -1    0    0  501  503 -0.00000000000E+00 -0.00000000000E+00 -0.22980382246E+02  0.22980382246E+02  0.00000000000E+00 0.  1.
          6    2    1    2  501    0  0.35276295473E+02 -0.39234625297E+01  0.59305962130E+03  0.62027947982E+03  0.17823329678E+03 0.  0.
         24    2    3    3    0    0  0.14441583130E+02  0.23599185010E+01  0.59245892846E+03  0.59800804189E+03  0.79949407183E+02 0.  0.
         -6    2    1    2    0  502 -0.35276295473E+02  0.39234625297E+01  0.82287582771E+03  0.84161673369E+03  0.17301528261E+03 0.  0.
        -24    2    5    5    0    0 -0.82379764005E+02 -0.30270871477E+02  0.57045692734E+03  0.58253107123E+03  0.78858048579E+02 0.  0.
          5    1    3    3  501    0  0.20834712343E+02 -0.62833810306E+01  0.60069284253E+00  0.22271437930E+02  0.47000000000E+01 0. -1.
        -13    1    4    4    0    0 -0.97870333511E+01 -0.35105521394E+02  0.24483852777E+03  0.24753603441E+03  0.00000000000E+00 0.  1.
         14    1    4    4    0    0  0.24228616481E+02  0.37465439895E+02  0.34762040069E+03  0.35047200747E+03  0.00000000000E+00 0. -1.
         -5    1    5    5    0  502  0.47103468531E+02  0.34194334006E+02  0.25241890037E+03  0.25908566246E+03  0.47000000000E+01 0.  1.
         11    1    6    6    0    0 -0.34207575496E+02 -0.52651566132E+02  0.25388549828E+03  0.26153430343E+03  0.00000000000E+00 0. -1.
        -12    1    6    6    0    0 -0.48172188509E+02  0.22380694656E+02  0.31657142906E+03  0.32099676780E+03  0.00000000000E+00 0.  1.
</event>
<event>
12    1  0.8133506E-002  0.2450184E+03  0.7818608E-02  0.1116510E+00
         21   -1    0    0  503  502  0.00000000000E+00  0.00000000000E+00  0.15303964379E+03  0.15303964379E+03  0.00000000000E+00 0. -1.
         21   -1    0    0  501  503 -0.00000000000E+00 -0.00000000000E+00 -0.59100813916E+03  0.59100813916E+03  0.00000000000E+00 0.  1.
          6    2    1    2  501    0  0.17334873497E+03 -0.16433001909E+02 -0.43482953789E+03  0.49910996319E+03  0.17237807536E+03 0.  0.
         24    2    3    3    0    0  0.60239477227E+02 -0.65580049794E+02 -0.19829211040E+03  0.23231194763E+03  0.81972815105E+02 0.  0.
         -6    2    1    2    0  502 -0.17334873497E+03  0.16433001909E+02 -0.31389574817E+01  0.24493781977E+03  0.17223488332E+03 0.  0.
        -24    2    5    5    0    0 -0.62660589360E+02  0.58194219340E+02 -0.35400514410E+02  0.12222366853E+03  0.79828015784E+02 0.  0.
          5    1    3    3  501    0  0.11310925774E+03  0.49147047886E+02 -0.23653742749E+03  0.26679801556E+03  0.47000000000E+01 0. -1.
        -13    1    4    4    0    0  0.40062708375E+01 -0.39686392999E+02 -0.14575944255E+03  0.15111874499E+03  0.00000000000E+00 0.  1.
         14    1    4    4    0    0  0.56233206390E+02 -0.25893656795E+02 -0.52532667853E+02  0.81193202640E+02  0.00000000000E+00 0. -1.
         -5    1    5    5    0  502 -0.11068814561E+03 -0.41761217431E+02  0.32261556928E+02  0.12271415124E+03  0.47000000000E+01 0.  1.
         13    1    6    6    0    0  0.13486876411E+02  0.11223971935E+02  0.11724396969E+02  0.21102958693E+02  0.00000000000E+00 0. -1.
        -14    1    6    6    0    0 -0.76147465772E+02  0.46970247405E+02 -0.47124911378E+02  0.10112070983E+03  0.00000000000E+00 0.  1.
</event>
<event>
12    1  0.8133506E-002  0.1869767E+03  0.7818608E-02  0.1161648E+00
         21   -1    0    0  503  502  0.00000000000E+00  0.00000000000E+00  0.10921259030E+03  0.10921259030E+03  0.00000000000E+00 0.  1.
         21   -1    0    0  501  503 -0.00000000000E+00 -0.00000000000E+00 -0.40548250006E+03  0.40548250006E+03  0.00000000000E+00 0.  1.
          6    2    1    2  501    0  0.28969074860E+02 -0.67830857308E+02 -0.26781857026E+03  0.32556611332E+03  0.16978302350E+03 0.  0.
         24    2    3    3    0    0  0.65032024394E+02 -0.68031174688E+02 -0.26086619961E+03  0.28853907032E+03  0.79663141249E+02 0.  0.
         -6    2    1    2    0  502 -0.28969074860E+02  0.67830857308E+02 -0.28451339494E+02  0.18912897704E+03  0.17181402368E+03 0.  0.
        -24    2    5    5    0    0 -0.72809508873E+02  0.96181106257E+01 -0.40452006741E+02  0.11512348031E+03  0.78888010722E+02 0.  0.
          5    1    3    3  501    0 -0.36062949534E+02  0.20031738012E+00 -0.69523706446E+01  0.37027043006E+02  0.47000000000E+01 0. -1.
        -11    1    4    4    0    0 -0.15075946304E+02 -0.85506616705E+01 -0.81180531608E+02  0.83010099892E+02  0.00000000000E+00 0.  1.
         12    1    4    4    0    0  0.80107970698E+02 -0.59480513018E+02 -0.17968566801E+03  0.20552897043E+03  0.00000000000E+00 0. -1.
         -5    1    5    5    0  502  0.43840434013E+02  0.58212746682E+02  0.12000667247E+02  0.74005496722E+02  0.47000000000E+01 0.  1.
         11    1    6    6    0    0 -0.37710831681E+02  0.35860258684E+02  0.46378399386E+01  0.52245330301E+02  0.00000000000E+00 0. -1.
        -12    1    6    6    0    0 -0.35098677192E+02 -0.26242148058E+02 -0.45089846680E+02  0.62878150012E+02  0.00000000000E+00 0.  1.
</event>
<event>
12    1  0.8133506E-002  0.1734982E+03  0.7818608E-02  0.1174444E+00
         21   -1    0    0  501  502  0.00000000000E+00  0.00000000000E+00  0.36154751398E+03  0.36154751398E+03  0.00000000000E+00 0.  1.
         21   -1    0    0  502  503 -0.00000000000E+00 -0.00000000000E+00 -0.11477807555E+03  0.11477807555E+03  0.00000000000E+00 0.  1.
         -6    2    1    2    0  503  0.19071413285E+02 -0.41286660342E+01 -0.19523276682E+01  0.17350914009E+03  0.17239734749E+03 0.  0.
        -24    2    3    3    0    0  0.64980482208E+02 -0.45237181889E+02 -0.48658375289E+01  0.11163724643E+03  0.78551465433E+02 0.  0.
          6    2    1    2  501    0 -0.19071413285E+02  0.41286660342E+01  0.24872176610E+03  0.30281644945E+03  0.17162319319E+03 0.  0.
         24    2    5    5    0    0  0.33400161351E+02  0.38534912916E+02  0.20576916172E+03  0.22663198783E+03  0.80128644705E+02 0.  0.
          5    1    5    5  501    0 -0.52471574637E+02 -0.34406246882E+02  0.42952604380E+02  0.76184461620E+02  0.47000000000E+01 0. -1.
        -13    1    6    6    0    0  0.43031749220E+01  0.30521614603E+02  0.19018314971E+03  0.19266477806E+03  0.00000000000E+00 0.  1.
         14    1    6    6    0    0  0.29096986429E+02  0.80132983126E+01  0.15586012008E+02  0.33967209768E+02  0.00000000000E+00 0. -1.
         -5    1    3    3    0  503 -0.45909068923E+02  0.41108515855E+02  0.29135098606E+01  0.61871893658E+02  0.47000000000E+01 0.  1.
         13    1    4    4    0    0  0.18529612889E+02 -0.56538100476E+02  0.12461602355E+02  0.60788114730E+02  0.00000000000E+00 0. -1.
        -14    1    4    4    0    0  0.46450869319E+02  0.11300918587E+02 -0.17327439884E+02  0.50849131697E+02  0.00000000000E+00 0.  1.
</event>
<event>
12    1  0.8133506E-002  0.3099600E+03  0.7818608E-02  0.1080654E+00
         21   -1    0    0  503  502  0.00000000000E+00  0.00000000000E+00  0.25315641781E+03  0.25315641781E+03  0.00000000000E+00 0. -1.
         21   -1    0    0  501  503 -0.00000000000E+00 -0.00000000000E+00 -0.49023091054E+03  0.49023091054E+03  0.00000000000E+00 0.  1.
          6    2    1    2  501    0  0.10439338226E+03  0.23580677948E+03 -0.29785778291E+03  0.42987728301E+03  0.17196628769E+03 0.  0.
         24    2    3    3    0    0  0.70057886924E+02  0.18926687198E+03 -0.30173450780E+03  0.37172224690E+03  0.80022867299E+02 0.  0.
         -6    2    1    2    0  502 -0.10439338226E+03 -0.23580677948E+03  0.60783290184E+02  0.31351004533E+03  0.16760407110E+03 0.  0.
        -24    2    5    5    0    0 -0.27219653604E+02 -0.17001638529E+03 -0.10251572700E+02  0.18960604174E+03  0.78732937897E+02 0.  0.
          5    1    3    3  501    0  0.34335495335E+02  0.46539907498E+02  0.38767248878E+01  0.58155036117E+02  0.47000000000E+01 0. -1.
        -13    1    4    4    0    0  0.11581147644E+02  0.11116774307E+03 -0.20955241886E+03  0.23749653962E+03  0.00000000000E+00 0.  1.
         14    1    4    4    0    0  0.58476739280E+02  0.78099128907E+02 -0.92182088941E+02  0.13422570728E+03  0.00000000000E+00 0. -1.
         -5    1    5    5    0  502 -0.77173728655E+02 -0.65790394185E+02  0.71034862884E+02  0.12390400359E+03  0.47000000000E+01 0.  1.
         11    1    6    6    0    0  0.35622584335E+01 -0.14104451743E+03  0.12425871214E+02  0.14163561649E+03  0.00000000000E+00 0. -1.
        -12    1    6    6    0    0 -0.30781912038E+02 -0.28971867862E+02 -0.22677443914E+02  0.47970425249E+02  0.00000000000E+00 0.  1.
</event>
<event>
12    1  0.8133506E-002  0.1753236E+03  0.7818608E-02  0.1172595E+00
         21   -1    0    0  503  502  0.00000000000E+00  0.00000000000E+00  0.13963845828E+04  0.13963845828E+04  0.00000000000E+00 0.  1.
         21   -1    0    0  501  503 -0.00000000000E+00 -0.00000000000E+00 -0.10984201979E+03  0.10984201979E+03  0.00000000000E+00 0.  1.
          6    2    1    2  501    0 -0.39169593624E+01  0.35590029784E+02 -0.30798200561E+02  0.17727022773E+03  0.17086313731E+03 0.  0.
         24    2    3    3    0    0  0.27180478660E+00  0.13522601356E+02 -0.85390802615E+02  0.11805064194E+03  0.80383022248E+02 0.  0.
         -6    2    1    2    0  502  0.39169593624E+01 -0.35590029784E+02  0.13173407636E+04  0.13289563748E+04  0.17162857023E+03 0.  0.
        -24    2    5    5    0    0  0.25094057468E+01  0.15777992832E+01  0.28589052662E+03  0.29682503145E+03  0.79767910342E+02 0.  0.
          5    1    3    3  501    0 -0.41887641490E+01  0.22067428428E+02  0.54592602054E+02  0.59219585794E+02  0.47000000000E+01 0. -1.
        -11    1    4    4    0    0 -0.27767992045E+02  0.33090800350E+02 -0.28754053282E+02  0.51892755083E+02  0.00000000000E+00 0.  1.
         12    1    4    4    0    0  0.28039796831E+02 -0.19568198994E+02 -0.56636749333E+02  0.66157886856E+02  0.00000000000E+00 0. -1.
         -5    1    5    5    0  502  0.14075536156E+01 -0.37167829067E+02  0.10314502369E+04  0.10321313434E+04  0.47000000000E+01 0.  1.
         13    1    6    6    0    0 -0.30376250656E+02  0.19402034691E+02  0.19880558983E+03  0.20204657409E+03  0.00000000000E+00 0. -1.
        -14    1    6    6    0    0  0.32885656403E+02 -0.17824235407E+02  0.87084936785E+02  0.94778457361E+02  0.00000000000E+00 0.  1.
</event>
<event>
12    1  0.8133506E-002  0.2706134E+03  0.7818608E-02  0.1101001E+00
         21   -1    0    0  501  502  0.00000000000E+00  0.00000000000E+00  0.10612708154E+04  0.10612708154E+04  0.00000000000E+00 0. -1.
         21   -1    0    0  502  503 -0.00000000000E+00 -0.00000000000E+00 -0.85538244382E+02  0.85538244382E+02  0.00000000000E+00 0. -1.
         -6    2    1    2    0  503  0.17086800883E+03  0.11943524560E+03  0.23515434508E+03  0.35850963151E+03  0.17254256155E+03 0.  0.
        -24    2    3    3    0    0  0.11742863388E+03  0.42257818775E+02  0.61078103831E+02  0.16067952821E+03  0.80698009362E+02 0.  0.
          6    2    1    2  501    0 -0.17086800883E+03 -0.11943524560E+03  0.74057822594E+03  0.78829942827E+03  0.17175338584E+03 0.  0.
         24    2    5    5    0    0 -0.31054757836E+02 -0.98980987772E+01  0.16146003427E+03  0.18253866559E+03  0.78667982207E+02 0.  0.
          5    1    5    5  501    0 -0.13981325099E+03 -0.10953714682E+03  0.57911819166E+03  0.60576076268E+03  0.47000000000E+01 0. -1.
        -11    1    6    6    0    0 -0.48011367605E+01  0.72002323922E+00 -0.87404442307E+01  0.99982354947E+01  0.00000000000E+00 0.  1.
         12    1    6    6    0    0 -0.26253621076E+02 -0.10618122016E+02  0.17020047850E+03  0.17254043010E+03  0.00000000000E+00 0. -1.
         -5    1    3    3    0  503  0.53439374949E+02  0.77177426825E+02  0.17407624125E+03  0.19783010331E+03  0.47000000000E+01 0.  1.
         13    1    4    4    0    0  0.45075064845E+02 -0.17879190764E+02 -0.33671083237E-01  0.48491525723E+02  0.00000000000E+00 0. -1.
        -14    1    4    4    0    0  0.72353569032E+02  0.60137009539E+02  0.61111774915E+02  0.11218800248E+03  0.00000000000E+00 0.  1.
</event>
<event>
12    1  0.8133506E-002  0.1811692E+03  0.7818608E-02  0.1166738E+00
         21   -1    0    0  501  502  0.00000000000E+00  0.00000000000E+00  0.95045127122E+02  0.95045127122E+02  0.00000000000E+00 0. -1.
         21   -1    0    0  502  503 -0.00000000000E+00 -0.00000000000E+00 -0.34489582495E+03  0.34489582495E+03  0.00000000000E+00 0. -1.
         -6    2    1    2    0  503  0.13235722598E+02  0.55261435284E+02 -0.12758409559E+03  0.22137425976E+03  0.17175520620E+03 0.  0.
        -24    2    3    3    0    0  0.44534868563E+02  0.67278465187E+02 -0.14450509347E+03  0.18352646306E+03  0.79312635877E+02 0.  0.
          6    2    1    2  501    0 -0.13235722598E+02 -0.55261435284E+02 -0.12226660224E+03  0.21856669231E+03  0.17202693505E+03 0.  0.
         24    2    5    5    0    0 -0.14611338182E+02 -0.56502793548E+02 -0.15643749215E+03  0.18402435588E+03  0.77370651584E+02 0.  0.
          5    1    5    5  501    0  0.13756155840E+01  0.12413582640E+01  0.34170889910E+02  0.34542336426E+02  0.47000000000E+01 0. -1.
        -13    1    6    6    0    0  0.24395409448E+02 -0.59188270004E+01 -0.16070674902E+02  0.29806628575E+02  0.00000000000E+00 0.  1.
         14    1    6    6    0    0 -0.39006747630E+02 -0.50583966548E+02 -0.14036681725E+03  0.15421772731E+03  0.00000000000E+00 0. -1.
         -5    1    3    3    0  503 -0.31299145965E+02 -0.12017029903E+02  0.16920997879E+02  0.37847796700E+02  0.47000000000E+01 0.  1.
         11    1    4    4    0    0  0.65605548265E+02  0.56901952764E+02 -0.94880850534E+02  0.12862463213E+03  0.00000000000E+00 0. -1.
        -12    1    4    4    0    0 -0.21070679703E+02  0.10376512424E+02 -0.49624242937E+02  0.54901830938E+02  0.00000000000E+00 0.  1.
</event>
<event>
12    1  0.8133506E-002  0.2139741E+03  0.7818608E-02  0.1138480E+00
         21   -1    0    0  503  502  0.00000000000E+00  0.00000000000E+00  0.13184604761E+03  0.13184604761E+03  0.00000000000E+00 0.  1.
         21   -1    0    0  501  503 -0.00000000000E+00 -0.00000000000E+00 -0.36231031447E+03  0.36231031447E+03  0.00000000000E+00 0. -1.
          6    2    1    2  501    0  0.10927123330E+02 -0.12710494220E+03 -0.64585536266E+02  0.22350882068E+03  0.17178426317E+03 0.  0.
         24    2    3    3    0    0 -0.36117062386E+01 -0.15715886007E+03 -0.68908331906E+02  0.18951776147E+03  0.80353419245E+02 0.  0.
         -6    2    1    2    0  502 -0.10927123330E+02  0.12710494220E+03 -0.16587873059E+03  0.27064754140E+03  0.17163702994E+03 0.  0.
        -24    2    5    5    0    0 -0.24391722518E+02  0.42858263977E+02 -0.15908169929E+03  0.18493238605E+03  0.80381673547E+02 0.  0.
          5    1    3    3  501    0  0.14538829568E+02  0.30053917869E+02  0.43227956394E+01  0.33991059216E+02  0.47000000000E+01 0. -1.
        -13    1    4    4    0    0 -0.20803205142E+01  0.11894966138E+01  0.11618647944E+02  0.11863204275E+02  0.00000000000E+00 0.  1.
         14    1    4    4    0    0 -0.15313857244E+01 -0.15834835668E+03 -0.80526979850E+02  0.17765455719E+03  0.00000000000E+00 0. -1.
         -5    1    5    5    0  502  0.13464599188E+02  0.84246678225E+02 -0.67970313067E+01  0.85715155357E+02  0.47000000000E+01 0.  1.
         11    1    6    6    0    0  0.27690796388E+02  0.39054248800E+01 -0.34633271670E+02  0.44513998412E+02  0.00000000000E+00 0. -1.
        -12    1    6    6    0    0 -0.52082518906E+02  0.38952839097E+02 -0.12444842762E+03  0.14041838763E+03  0.00000000000E+00 0.  1.
</event>
<event>
12    1  0.8133506E-002  0.2053396E+03  0.7818608E-02  0.1145525E+00
         21   -1    0    0  501  502  0.00000000000E+00  0.00000000000E+00  0.12440475993E+03  0.12440475993E+03  0.00000000000E+00 0. -1.
         21   -1    0    0  502  503 -0.00000000000E+00 -0.00000000000E+00 -0.34249168525E+03  0.34249168525E+03  0.00000000000E+00 0. -1.
         -6    2    1    2    0  503  0.10851443272E+03 -0.29287068039E+02 -0.13778877817E+03  0.24641480847E+03  0.17059131274E+03 0.  0.
        -24    2    3    3    0    0  0.10295399392E+03 -0.59720961998E+02 -0.49838464511E+02  0.15306338612E+03  0.82331096562E+02 0.  0.
          6    2    1    2  501    0 -0.10851443272E+03  0.29287068039E+02 -0.80298147144E+02  0.22048163670E+03  0.17184657467E+03 0.  0.
         24    2    5    5    0    0 -0.66849420224E+02 -0.74083216243E+01 -0.11351233228E+03  0.15561410258E+03  0.82504370362E+02 0.  0.
          5    1    5    5  501    0 -0.41665012492E+02  0.36695389663E+02  0.33214185135E+02  0.64867534119E+02  0.47000000000E+01 0. -1.
        -11    1    6    6    0    0 -0.54519256688E+02 -0.41153054537E+02 -0.58633212554E+02  0.90020980121E+02  0.00000000000E+00 0.  1.
         12    1    6    6    0    0 -0.12330163536E+02  0.33744732912E+02 -0.54879119726E+02  0.65593122460E+02  0.00000000000E+00 0. -1.
         -5    1    3    3    0  503  0.55604387969E+01  0.30433893959E+02 -0.87950313664E+02  0.93351422350E+02  0.47000000000E+01 0.  1.
         11    1    4    4    0    0  0.62264496100E+02 -0.45175245059E+02 -0.71236495755E+02  0.10484421094E+03  0.00000000000E+00 0. -1.
        -12    1    4    4    0    0  0.40689497820E+02 -0.14545716939E+02  0.21398031244E+02  0.48219175182E+02  0.00000000000E+00 0.  1.
</event>
<event>
12    1  0.8133506E-002  0.2048091E+03  0.7818608E-02  0.1145763E+00
         21   -1    0    0  503  502  0.00000000000E+00  0.00000000000E+00  0.19450574035E+04  0.19450574035E+04  0.00000000000E+00 0. -1.
         21   -1    0    0  501  503 -0.00000000000E+00 -0.00000000000E+00 -0.28412313693E+02  0.28412313693E+02  0.00000000000E+00 0.  1.
          6    2    1    2  501    0  0.10876358844E+03 -0.25141340894E+02  0.47343873351E+03  0.51580331014E+03  0.17160190900E+03 0.  0.
         24    2    3    3    0    0  0.14001367565E+02 -0.45766007636E+02  0.13003518762E+03  0.15893731189E+03  0.77854693761E+02 0.  0.
         -6    2    1    2    0  502 -0.10876358844E+03  0.25141340894E+02  0.14432063563E+04  0.14576664071E+04  0.17171244044E+03 0.  0.
        -24    2    5    5    0    0 -0.10504402280E+03  0.75236006133E+02  0.96919963589E+03  0.98098226462E+03  0.79268946930E+02 0.  0.
          5    1    3    3  501    0  0.94762220873E+02  0.20624666742E+02  0.34340354589E+03  0.35686599826E+03  0.47000000000E+01 0. -1.
        -11    1    4    4    0    0  0.41492414454E+02 -0.18258338106E+02  0.10001373514E+03  0.10980771642E+03  0.00000000000E+00 0.  1.
         12    1    4    4    0    0 -0.27491046888E+02 -0.27507669530E+02  0.30021452484E+02  0.49129595472E+02  0.00000000000E+00 0. -1.
         -5    1    5    5    0  502 -0.37195656363E+01 -0.50094665239E+02  0.47400672043E+03  0.47668414245E+03  0.47000000000E+01 0.  1.
         13    1    6    6    0    0 -0.69689276482E+02  0.27767135194E+01  0.38823447368E+03  0.39444937818E+03  0.00000000000E+00 0. -1.
        -14    1    6    6    0    0 -0.35354746320E+02  0.72459292614E+02  0.58096516221E+03  0.58653288644E+03  0.00000000000E+00 0.  1.
</event>
<event>
12    1  0.8133506E-002  0.4130033E+03  0.7818608E-02  0.1039608E+00
         21   -1    0    0  503  502  0.00000000000E+00  0.00000000000E+00  0.43799147252E+03  0.43799147252E+03  0.00000000000E+00 0. -1.
         21   -1    0    0  501  503 -0.00000000000E+00 -0.00000000000E+00 -0.11411319926E+04  0.11411319926E+04  0.00000000000E+00 0. -1.
          6    2    1    2  501    0  0.32110550058E+03 -0.18932952981E+03 -0.99396286875E+03  0.10763521472E+04  0.17781267376E+03 0.  0.
         24    2    3    3    0    0  0.98735662640E+02 -0.56268943274E+02 -0.20088698117E+03  0.24199915357E+03  0.72753598317E+02 0.  0.
         -6    2    1    2    0  502 -0.32110550058E+03  0.18932952981E+03  0.29082234870E+03  0.50277131790E+03  0.17101738579E+03 0.  0.
        -24    2    5    5    0    0 -0.24355528305E+03  0.12740236531E+03  0.28332320287E+03  0.40313529465E+03  0.81825973395E+02 0.  0.
          5    1    3    3  501    0  0.22236983794E+03 -0.13306058654E+03 -0.79307588758E+03  0.83435299362E+03  0.47000000000E+01 0. -1.
        -11    1    4    4    0    0  0.32644863095E+02 -0.46388194444E+02 -0.14207397398E+03  0.15297897160E+03  0.00000000000E+00 0.  1.
         12    1    4    4    0    0  0.66090799545E+02 -0.98807488302E+01 -0.58813007196E+02  0.89020181967E+02  0.00000000000E+00 0. -1.
         -5    1    5    5    0  502 -0.77550217529E+02  0.61927164497E+02  0.74991458320E+01  0.99636023253E+02  0.47000000000E+01 0.  1.
         11    1    6    6    0    0 -0.20163217778E+03  0.79351220995E+02  0.17989196954E+03  0.28162612112E+03  0.00000000000E+00 0. -1.
        -12    1    6    6    0    0 -0.41923105267E+02  0.48051144319E+02  0.10343123332E+03  0.12150917353E+03  0.00000000000E+00 0.  1.
</event>
<event>
12    1  0.8133506E-002  0.2234970E+03  0.7818608E-02  0.1131536E+00
         21   -1    0    0  501  502  0.00000000000E+00  0.00000000000E+00  0.16215655153E+03  0.16215655153E+03  0.00000000000E+00 0.  1.
         21   -1    0    0  502  503 -0.00000000000E+00 -0.00000000000E+00 -0.61548620646E+03  0.61548620646E+03  0.00000000000E+00 0.  1.
         -6    2    1    2    0  503 -0.10163971864E+03  0.97209990248E+02 -0.50257723800E+03  0.55003164005E+03  0.17369660414E+03 0.  0.
        -24    2    3    3    0    0 -0.13088116630E+03  0.54472090064E+02 -0.30688786659E+03  0.34755198562E+03  0.80716366144E+02 0.  0.
          6    2    1    2  501    0  0.10163971864E+03 -0.97209990248E+02  0.49247583069E+02  0.22761111795E+03  0.17204964971E+03 0.  0.
         24    2    5    5    0    0  0.11368146821E+03 -0.12472357362E+03  0.44860142111E+02  0.19689726699E+03  0.90976125259E+02 0.  0.
          5    1    5    5  501    0 -0.12041749569E+02  0.27513583369E+02  0.43874409574E+01  0.30713850958E+02  0.47000000000E+01 0. -1.
        -11    1    6    6    0    0 -0.79624157614E+01 -0.35667749819E+02  0.26246045608E+02  0.44993814597E+02  0.00000000000E+00 0.  1.
         12    1    6    6    0    0  0.12164388397E+03 -0.89055823798E+02  0.18614096503E+02  0.15190345239E+03  0.00000000000E+00 0. -1.
         -5    1    3    3    0  503  0.29241447656E+02  0.42737900184E+02 -0.19568937141E+03  0.20247965442E+03  0.47000000000E+01 0.  1.
         11    1    4    4    0    0  0.46104296470E+01 -0.61482016984E+01 -0.12624561672E+01  0.77878264765E+01  0.00000000000E+00 0. -1.
        -12    1    4    4    0    0 -0.13549159594E+03  0.60620291763E+02 -0.30562541042E+03  0.33976415914E+03  0.00000000000E+00 0.  1.
</event>
<event>
12    1  0.8133506E-002  0.2979583E+03  0.7818608E-02  0.1086288E+00
         21   -1    0    0  501  502  0.00000000000E+00  0.00000000000E+00  0.15693717273E+04  0.15693717273E+04  0.00000000000E+00 0.  1.
         21   -1    0    0  502  503 -0.00000000000E+00 -0.00000000000E+00 -0.89566960132E+02  0.89566960132E+02  0.00000000000E+00 0. -1.
         -6    2    1    2    0  503  0.21280940259E+02 -0.24220769120E+03  0.12434766856E+04  0.12786360604E+04  0.17192574872E+03 0.  0.
        -24    2    3    3    0    0 -0.15762638602E+02 -0.54600594509E+02  0.57993755887E+03  0.58807475809E+03  0.79212771807E+02 0.  0.
          6    2    1    2  501    0 -0.21280940259E+02  0.24220769120E+03  0.23632808156E+03  0.38030262709E+03  0.17222567155E+03 0.  0.
         24    2    5    5    0    0 -0.16677785847E+02  0.15457124535E+03  0.23293361648E+03  0.29235407358E+03  0.83919105242E+02 0.  0.
          5    1    5    5  501    0 -0.46031544119E+01  0.87636445844E+02  0.33944650883E+01  0.87948553506E+02  0.47000000000E+01 0. -1.
        -11    1    6    6    0    0  0.16445938791E+02  0.15659292955E+01  0.43942496244E+02  0.46945330049E+02  0.00000000000E+00 0.  1.
         12    1    6    6    0    0 -0.33123724638E+02  0.15300531606E+03  0.18899112023E+03  0.24540874353E+03  0.00000000000E+00 0. -1.
         -5    1    3    3    0  503  0.37043578861E+02 -0.18760709669E+03  0.66353912675E+03  0.69056130227E+03  0.47000000000E+01 0.  1.
         13    1    4    4    0    0  0.81619249264E+01  0.69795470649E+01  0.11213823065E+02  0.15526780847E+02  0.00000000000E+00 0. -1.
        -14    1    4    4    0    0 -0.23924563528E+02 -0.61580141574E+02  0.56872373580E+03  0.57254797724E+03  0.00000000000E+00 0.  1.
</event>
<event>
12    1  0.8133506E-002  0.2872955E+03  0.7818608E-02  0.1091900E+00
         21   -1    0    0  501  502  0.00000000000E+00  0.00000000000E+00  0.13505747492E+03  0.13505747492E+03  0.00000000000E+00 0. -1.
         21   -1    0    0  502  503 -0.00000000000E+00 -0.00000000000E+00 -0.61732531994E+03  0.61732531994E+03  0.00000000000E+00 0.  1.
         -6    2    1    2    0  503  0.18793854864E+03 -0.13004372909E+03 -0.28431201879E+03  0.40349136656E+03  0.17245199136E+03 0.  0.
        -24    2    3    3    0    0  0.31043220781E+02 -0.78334669528E+02 -0.10494129839E+03  0.15959401914E+03  0.85776295276E+02 0.  0.
          6    2    1    2  501    0 -0.18793854864E+03  0.13004372909E+03 -0.19795582623E+03  0.34889142830E+03  0.17408747818E+03 0.  0.
         24    2    5    5    0    0 -0.80022203094E+02  0.36814044409E+02 -0.16325051894E+03  0.20204368369E+03  0.80075535164E+02 0.  0.
          5    1    5    5  501    0 -0.10791634554E+03  0.93229684678E+02 -0.34705307289E+02  0.14684774460E+03  0.47000000000E+01 0. -1.
        -11    1    6    6    0    0 -0.70236483595E+02  0.31462754721E+02 -0.17162855257E+03  0.18809420145E+03  0.00000000000E+00 0.  1.
         12    1    6    6    0    0 -0.97857194985E+01  0.53512896883E+01  0.83780336256E+01  0.13949482244E+02  0.00000000000E+00 0. -1.
         -5    1    3    3    0  503  0.15689532786E+03 -0.51709059559E+02 -0.17937072040E+03  0.24389734742E+03  0.47000000000E+01 0.  1.
         13    1    4    4    0    0  0.51621747138E+02 -0.83126426154E+02 -0.94470449760E+02  0.13601276918E+03  0.00000000000E+00 0. -1.
        -14    1    4    4    0    0 -0.20578526357E+02  0.47917566261E+01 -0.10470848628E+02  0.23581249958E+02  0.00000000000E+00 0.  1.
</event>
<event>
12    1  0.8133506E-002  0.1938525E+03  0.7818608E-02  0.1155669E+00
         21   -1    0    0  501  502  0.00000000000E+00  0.00000000000E+00  0.14949635953E+03  0.14949635953E+03  0.00000000000E+00 0.  1.
         21   -1    0    0  502  503 -0.00000000000E+00 -0.00000000000E+00 -0.28934191902E+03  0.28934191902E+03  0.00000000000E+00 0.  1.
         -6    2    1    2    0  503  0.18898090628E+02  0.80389927770E+02  0.13811190096E+02  0.19147381929E+03  0.17219696915E+03 0.  0.
        -24    2    3    3    0    0  0.42003631345E+02 -0.13973829859E+02  0.10163322859E+02  0.94140465799E+02  0.82459451867E+02 0.  0.
          6    2    1    2  501    0 -0.18898090628E+02 -0.80389927770E+02 -0.15365674959E+03  0.24736445926E+03  0.17538272633E+03 0.  0.
         24    2    5    5    0    0  0.54567630282E+02 -0.53765123664E+02 -0.67243300685E+02  0.13076486023E+03  0.81911369100E+02 0.  0.
          5    1    5    5  501    0 -0.73465720910E+02 -0.26624804107E+02 -0.86413448904E+02  0.11659959903E+03  0.47000000000E+01 0. -1.
        -13    1    6    6    0    0 -0.13547065522E+02 -0.38725785523E+02 -0.15271004017E+02  0.43776854756E+02  0.00000000000E+00 0.  1.
         14    1    6    6    0    0  0.68114695803E+02 -0.15039338141E+02 -0.51972296669E+02  0.86988005478E+02  0.00000000000E+00 0. -1.
         -5    1    3    3    0  503 -0.23105540717E+02  0.94363757629E+02  0.36478672373E+01  0.97333353487E+02  0.47000000000E+01 0.  1.
         11    1    4    4    0    0  0.50526826640E+01 -0.44894232995E+02  0.16140654144E+01  0.45206492515E+02  0.00000000000E+00 0. -1.
        -12    1    4    4    0    0  0.36950948681E+02  0.30920403136E+02  0.85492574448E+01  0.48933973285E+02  0.00000000000E+00 0.  1.
</event>
<event>
12    1  0.8133506E-002  0.2678998E+03  0.7818608E-02  0.1102639E+00
         21   -1    0    0  501  502  0.00000000000E+00  0.00000000000E+00  0.10316619702E+04  0.10316619702E+04  0.00000000000E+00 0.  1.
         21   -1    0    0  502  503 -0.00000000000E+00 -0.00000000000E+00 -0.11482655073E+03  0.11482655073E+03  0.00000000000E+00 0. -1.
         -6    2    1    2    0  503 -0.20207246147E+03  0.35452662410E+02  0.97990396623E+02  0.28525847934E+03  0.17227916661E+03 0.  0.
        -24    2    3    3    0    0 -0.15359346455E+03  0.87495886473E+02  0.56471287262E+02  0.20276825716E+03  0.81728069371E+02 0.  0.
          6    2    1    2  501    0  0.20207246147E+03 -0.35452662410E+02  0.81884502288E+03  0.86123004163E+03  0.17064536958E+03 0.  0.
         24    2    5    5    0    0  0.21110366585E+03 -0.41062806520E+02  0.81806459416E+03  0.84957948634E+03  0.79402213956E+02 0.  0.
          5    1    5    5  501    0 -0.90312043816E+01  0.56101441098E+01  0.78042871766E+00  0.11650555287E+02  0.47000000000E+01 0. -1.
        -11    1    6    6    0    0  0.27279012064E+01 -0.14166454572E+02  0.11176086005E+03  0.11268815253E+03  0.00000000000E+00 0.  1.
         12    1    6    6    0    0  0.20837576465E+03 -0.26896351948E+02  0.70630373411E+03  0.73689133382E+03  0.00000000000E+00 0. -1.
         -5    1    3    3    0  503 -0.48478996921E+02 -0.52043224062E+02  0.41519109361E+02  0.82490222181E+02  0.47000000000E+01 0.  1.
         13    1    4    4    0    0 -0.31570428588E+02  0.31484438285E+02 -0.19316217430E+02  0.48590925811E+02  0.00000000000E+00 0. -1.
        -14    1    4    4    0    0 -0.12202303596E+03  0.56011448188E+02  0.75787504692E+02  0.15417733135E+03  0.00000000000E+00 0.  1.
</event>
<event>
12    1  0.8133506E-002  0.2051961E+03  0.7818608E-02  0.1145431E+00
         21   -1    0    0  503  502  0.00000000000E+00  0.00000000000E+00  0.53098762067E+03  0.53098762067E+03  0.00000000000E+00 0.  1.
         21   -1    0    0  501  503 -0.00000000000E+00 -0.00000000000E+00 -0.95810179923E+02  0.95810179923E+02  0.00000000000E+00 0.  1.
          6    2    1    2  501    0  0.41678645584E+01 -0.11242409309E+03  0.87443352910E+02  0.22303493020E+03  0.17158581620E+03 0.  0.
         24    2    3    3    0    0 -0.75731967187E+01 -0.13112036821E+03  0.33090065343E+02  0.16418110201E+03  0.92793197838E+02 0.  0.
         -6    2    1    2    0  502 -0.41678645584E+01  0.11242409309E+03  0.34773408784E+03  0.40376287039E+03  0.17160685261E+03 0.  0.
        -24    2    5    5    0    0  0.10057366058E+02  0.12075918537E+03  0.35643028128E+03  0.38453932416E+03  0.78383767135E+02 0.  0.
          5    1    3    3  501    0  0.11741061277E+02  0.18696275122E+02  0.54353287567E+02  0.58853828191E+02  0.47000000000E+01 0. -1.
        -13    1    4    4    0    0 -0.42413323181E+02 -0.44123857102E+02 -0.82460693821E+01  0.61755990876E+02  0.00000000000E+00 0.  1.
         14    1    4    4    0    0  0.34840126463E+02 -0.86996511106E+02  0.41336134725E+02  0.10242511113E+03  0.00000000000E+00 0. -1.
         -5    1    5    5    0  502 -0.14225230616E+02 -0.83350922857E+01 -0.86961934397E+01  0.19223546235E+02  0.47000000000E+01 0.  1.
         11    1    6    6    0    0  0.10274892378E+02  0.40544736775E+02  0.39199265765E+02  0.57323917608E+02  0.00000000000E+00 0. -1.
        -12    1    6    6    0    0 -0.21752631952E+00  0.80214448596E+02  0.31723101551E+03  0.32721540655E+03  0.00000000000E+00 0.  1.
</event>
<event>
12    1  0.8133506E-002  0.1755710E+03  0.7818608E-02  0.1172464E+00
         21   -1    0    0  501  502  0.00000000000E+00  0.00000000000E+00  0.30093663931E+03  0.30093663931E+03  0.00000000000E+00 0.  1.
         21   -1    0    0  502  503 -0.00000000000E+00 -0.00000000000E+00 -0.12694748395E+03  0.12694748395E+03  0.00000000000E+00 0.  1.
         -6    2    1    2    0  503 -0.25063611962E+02 -0.86563255411E+01 -0.81272163587E+01  0.17575904420E+03  0.17355711842E+03 0.  0.
        -24    2    3    3    0    0  0.52719729308E+02 -0.25350473572E+01  0.10359029436E+02  0.95437505932E+02  0.78836614109E+02 0.  0.
          6    2    1    2  501    0  0.25063611962E+02  0.86563255411E+01  0.18211637172E+03  0.25212507906E+03  0.17232981758E+03 0.  0.
         24    2    5    5    0    0  0.20136519658E+02  0.72197206489E+02  0.98120972452E+02  0.14658344326E+03  0.79000408567E+02 0.  0.
          5    1    5    5  501    0  0.49270923034E+01 -0.63540880948E+02  0.83995399265E+02  0.10554163580E+03  0.47000000000E+01 0. -1.
        -11    1    6    6    0    0 -0.18338748036E+02  0.65762505623E+02  0.74170613104E+02  0.10080821729E+03  0.00000000000E+00 0.  1.
         12    1    6    6    0    0  0.38475267694E+02  0.64347008659E+01  0.23950359348E+02  0.45775225966E+02  0.00000000000E+00 0. -1.
         -5    1    3    3    0  503 -0.77783341270E+02 -0.61212781839E+01 -0.18486245795E+02  0.80321538265E+02  0.47000000000E+01 0.  1.
         11    1    4    4    0    0  0.17638288995E+02 -0.28645383763E+02  0.32189379374E+02  0.46559890400E+02  0.00000000000E+00 0. -1.
        -12    1    4    4    0    0  0.35081440313E+02  0.26110336405E+02 -0.21830349938E+02  0.48877615532E+02  0.00000000000E+00 0.  1.
</event>
<event>
12    1  0.8133506E-002  0.1742692E+03  0.7818608E-02  0.1173497E+00
         21   -1    0    0  501  502  0.00000000000E+00  0.00000000000E+00  0.26031063038E+03  0.26031063038E+03  0.00000000000E+00 0.  1.
         21   -1    0    0  502  503 -0.00000000000E+00 -0.00000000000E+00 -0.15295964910E+03  0.15295964910E+03  0.00000000000E+00 0. -1.
         -6    2    1    2    0  503  0.12519090261E+02  0.27851254442E+02 -0.47070941051E+02  0.18051431561E+03  0.17157308837E+03 0.  0.
        -24    2    3    3    0    0 -0.40180122772E+02  0.32440092714E+02 -0.70835837183E+02  0.12233249045E+03  0.85327138167E+02 0.  0.
          6    2    1    2  501    0 -0.12519090261E+02 -0.27851254442E+02  0.15442192233E+03  0.23275596387E+03  0.17145491718E+03 0.  0.
         24    2    5    5    0    0 -0.31563146267E+02 -0.35931565822E+02  0.17811450020E+03  0.20095351511E+03  0.79813723289E+02 0.  0.
          5    1    5    5  501    0  0.19044056006E+02  0.80803113799E+01 -0.23692577872E+02  0.31802448764E+02  0.47000000000E+01 0. -1.
        -11    1    6    6    0    0 -0.37377611587E+02  0.96146171619E+01  0.40783554096E+02  0.56150022224E+02  0.00000000000E+00 0.  1.
         12    1    6    6    0    0  0.58144653194E+01 -0.45546182984E+02  0.13733094611E+03  0.14480349288E+03  0.00000000000E+00 0. -1.
         -5    1    3    3    0  503  0.52699213034E+02 -0.45888382727E+01  0.23764896133E+02  0.58181825162E+02  0.47000000000E+01 0.  1.
         11    1    4    4    0    0  0.22804261374E+02  0.23559527151E+02 -0.39771897132E+02  0.51545023599E+02  0.00000000000E+00 0. -1.
        -12    1    4    4    0    0 -0.62984384146E+02  0.88805655631E+01 -0.31063940052E+02  0.70787466846E+02  0.00000000000E+00 0.  1.
</event>
<event>
12    1  0.8133506E-002  0.2166745E+03  0.7818608E-02  0.1136693E+00
         21   -1    0    0  501  502  0.00000000000E+00  0.00000000000E+00  0.39015166745E+03  0.39015166745E+03  0.00000000000E+00 0. -1.
         21   -1    0    0  502  503 -0.00000000000E+00 -0.00000000000E+00 -0.12175504663E+03  0.12175504663E+03  0.00000000000E+00 0. -1.
         -6    2    1    2    0  503 -0.37572681533E+02  0.12375573213E+03  0.98434568886E+02  0.23652525872E+03  0.17183610222E+03 0.  0.
        -24    2    3    3    0    0 -0.47205067516E+02  0.14455624838E+03  0.11662873782E+03  0.20688471015E+03  0.77937112250E+02 0.  0.
          6    2    1    2  501    0  0.37572681533E+02 -0.12375573213E+03  0.16996205193E+03  0.27538145536E+03  0.17384090205E+03 0.  0.
         24    2    5    5    0    0 -0.33560458003E+02 -0.98862732826E+02  0.69954927995E+02  0.15006944558E+03  0.82018304445E+02 0.  0.
          5    1    5    5  501    0  0.71133139536E+02 -0.24892999303E+02  0.10000712394E+03  0.12531200977E+03  0.47000000000E+01 0. -1.
        -13    1    6    6    0    0 -0.31183217136E+02 -0.13394330066E+01  0.21871995912E+01  0.31288511530E+02  0.00000000000E+00 0.  1.
         14    1    6    6    0    0 -0.23772408666E+01 -0.97523299819E+02  0.67767728404E+02  0.11878093405E+03  0.00000000000E+00 0. -1.
         -5    1    3    3    0  503  0.96323859826E+01 -0.20800516253E+02 -0.18194168931E+02  0.29640548564E+02  0.47000000000E+01 0.  1.
         11    1    4    4    0    0 -0.66266847815E+02  0.11462802360E+03  0.74944302364E+02  0.15214311477E+03  0.00000000000E+00 0. -1.
        -12    1    4    4    0    0  0.19061780299E+02  0.29928224782E+02  0.41684435452E+02  0.54741595389E+02  0.00000000000E+00 0.  1.
</event>
<event>
12    1  0.8133506E-002  0.1794908E+03  0.7818608E-02  0.1168383E+00
         21   -1    0    0  501  502  0.00000000000E+00  0.00000000000E+00  0.55733754363E+03  0.55733754363E+03  0.00000000000E+00 0. -1.
         21   -1    0    0  502  503 -0.00000000000E+00 -0.00000000000E+00 -0.24286402250E+03  0.24286402250E+03  0.00000000000E+00 0.  1.
         -6    2    1    2    0  503  0.58875834581E+01  0.51635672925E+02 -0.19208935487E+03  0.26289785778E+03  0.17180237779E+03 0.  0.
        -24    2    3    3    0    0  0.68296360284E+02  0.70147439136E+02 -0.10898816447E+03  0.15723121802E+03  0.57080468466E+02 0.  0.
          6    2    1    2  501    0 -0.58875834581E+01 -0.51635672925E+02  0.50656287600E+03  0.53730370834E+03  0.17143051450E+03 0.  0.
         24    2    5    5    0    0 -0.36564843527E+02 -0.23608794306E+02  0.13054438560E+03  0.15896709191E+03  0.79588546591E+02 0.  0.
          5    1    5    5  501    0  0.30677260068E+02 -0.28026878619E+02  0.37601849040E+03  0.37833661643E+03  0.47000000000E+01 0. -1.
        -11    1    6    6    0    0 -0.51927127836E+02 -0.32449693326E+01  0.12103481632E+03  0.13174362676E+03  0.00000000000E+00 0.  1.
         12    1    6    6    0    0  0.15362284310E+02 -0.20363824973E+02  0.95095692810E+01  0.27223465148E+02  0.00000000000E+00 0. -1.
         -5    1    3    3    0  503 -0.62408776826E+02 -0.18511766211E+02 -0.83101190395E+02  0.10566663976E+03  0.47000000000E+01 0.  1.
         11    1    4    4    0    0 -0.46247230711E+01  0.50325357421E+01  0.39209452774E+01  0.78796123857E+01  0.00000000000E+00 0. -1.
        -12    1    4    4    0    0  0.72921083355E+02  0.65114903393E+02 -0.11290910975E+03  0.14935160564E+03  0.00000000000E+00 0.  1.
</event>
<event>
12    1  0.8133506E-002  0.1933134E+03  0.7818608E-02  0.1155864E+00
         21   -1    0    0  501  502  0.00000000000E+00  0.00000000000E+00  0.50562141323E+03  0.50562141323E+03  0.00000000000E+00 0. -1.
         21   -1    0    0  502  503 -0.00000000000E+00 -0.00000000000E+00 -0.11605228015E+03  0.11605228015E+03  0.00000000000E+00 0. -1.
         -6    2    1    2    0  503 -0.22283259876E+02  0.85433490588E+02  0.66238390292E+01  0.19342680264E+03  0.17197275293E+03 0.  0.
        -24    2    3    3    0    0 -0.64505874399E+02  0.10445493670E+03  0.13683447727E+02  0.14634716092E+03  0.78475557572E+02 0.  0.
          6    2    1    2  501    0  0.22283259876E+02 -0.85433490588E+02  0.38294529405E+03  0.42824689074E+03  0.17015544720E+03 0.  0.
         24    2    5    5    0    0 -0.24815041025E+02 -0.59627202063E+02  0.35033385947E+03  0.36524046139E+03  0.80595235930E+02 0.  0.
          5    1    5    5  501    0  0.47098300901E+02 -0.25806288524E+02  0.32611434576E+02  0.63006429357E+02  0.47000000000E+01 0. -1.
        -13    1    6    6    0    0 -0.33160887239E+01  0.63249106380E+01 -0.92182238083E+00  0.72007427052E+01  0.00000000000E+00 0.  1.
         14    1    6    6    0    0 -0.21498952301E+02 -0.65952112701E+02  0.35125568185E+03  0.35803971868E+03  0.00000000000E+00 0. -1.
         -5    1    3    3    0  503  0.42222614524E+02 -0.19021446108E+02 -0.70596086982E+01  0.47079641717E+02  0.47000000000E+01 0.  1.
         13    1    4    4    0    0  0.45498616621E+01  0.41489433194E+02 -0.20928226743E+02  0.46691166001E+02  0.00000000000E+00 0. -1.
        -14    1    4    4    0    0 -0.69055736061E+02  0.62965503502E+02  0.34611674470E+02  0.99655994922E+02  0.00000000000E+00 0.  1.
</event>
<event>
12    1  0.8133506E-002  0.2618424E+03  0.7818608E-02  0.1107566E+00
         21   -1    0    0  503  502  0.00000000000E+00  0.00000000000E+00  0.21029303893E+03  0.21029303893E+03  0.00000000000E+00 0.  1.
         21   -1    0    0  501  503 -0.00000000000E+00 -0.00000000000E+00 -0.71560492729E+03  0.71560492729E+03  0.00000000000E+00 0. -1.
          6    2    1    2  501    0  0.16489743829E+03  0.10552886638E+03 -0.59742578081E+03  0.64832561705E+03  0.15836993195E+03 0.  0.
         24    2    3    3    0    0  0.39485011959E+02  0.83744774904E+02 -0.33904929700E+03  0.36025736002E+03  0.79111858524E+02 0.  0.
         -6    2    1    2    0  502 -0.16489743829E+03 -0.10552886638E+03  0.92113892450E+02  0.27757234918E+03  0.17387907594E+03 0.  0.
        -24    2    5    5    0    0 -0.79205149273E+02 -0.28074145247E+01  0.87354037968E+02  0.14363351507E+03  0.81966587422E+02 0.  0.
          5    1    3    3  501    0  0.12541242633E+03  0.21784091472E+02 -0.25837648381E+03  0.28806825702E+03  0.47000000000E+01 0. -1.
        -13    1    4    4    0    0  0.47921223914E+02  0.30319571737E+02 -0.98088334483E+02  0.11330066855E+03  0.00000000000E+00 0.  1.
         14    1    4    4    0    0 -0.84362119551E+01  0.53425203167E+02 -0.24096096252E+03  0.24695669147E+03  0.00000000000E+00 0. -1.
         -5    1    5    5    0  502 -0.85692289017E+02 -0.10272145185E+03  0.47598544823E+01  0.13393883411E+03  0.47000000000E+01 0.  1.
         11    1    6    6    0    0  0.14025777512E+02 -0.13683845444E+02  0.99790249567E+01  0.21989793087E+02  0.00000000000E+00 0. -1.
        -12    1    6    6    0    0 -0.93230926784E+02  0.10876430919E+02  0.77375013011E+02  0.12164372198E+03  0.00000000000E+00 0.  1.
</event>
<event>
12    1  0.8133506E-002  0.2153048E+03  0.7818608E-02  0.1138280E+00
         21   -1    0    0  503  502  0.00000000000E+00  0.00000000000E+00  0.42616941996E+03  0.42616941996E+03  0.00000000000E+00 0.  1.
         21   -1    0    0  501  503 -0.00000000000E+00 -0.00000000000E+00 -0.23467071806E+03  0.23467071806E+03  0.00000000000E+00 0. -1.
          6    2    1    2  501    0 -0.12033099653E+03 -0.24975713275E+02 -0.14791850749E+03  0.26122029445E+03  0.17678467806E+03 0.  0.
         24    2    3    3    0    0 -0.13270691733E+00  0.15864123263E+02 -0.14693419231E+02  0.77137337027E+02  0.74044474317E+02 0.  0.
         -6    2    1    2    0  502  0.12033099653E+03  0.24975713275E+02  0.33941720939E+03  0.39961984357E+03  0.17143115926E+03 0.  0.
        -24    2    5    5    0    0  0.35866845050E+02  0.19499289390E+01  0.58935324923E+02  0.10575498153E+03  0.80128089937E+02 0.  0.
          5    1    3    3  501    0 -0.12019828961E+03 -0.40839836538E+02 -0.13322508826E+03  0.18408295743E+03  0.47000000000E+01 0. -1.
        -11    1    4    4    0    0 -0.35657348430E+02  0.14411331343E+02 -0.15768977717E+02  0.41566737018E+02  0.00000000000E+00 0.  1.
         12    1    4    4    0    0  0.35524641512E+02  0.14527919194E+01  0.10755584862E+01  0.35570600009E+02  0.00000000000E+00 0. -1.
         -5    1    5    5    0  502  0.84464151479E+02  0.23025784336E+02  0.28048188447E+03  0.29386486204E+03  0.47000000000E+01 0.  1.
         13    1    6    6    0    0  0.58860320351E+02 -0.17234622680E+01  0.57691479396E+02  0.82436729853E+02  0.00000000000E+00 0. -1.
        -14    1    6    6    0    0 -0.22993475300E+02  0.36733912069E+01  0.12438455261E+01  0.23318251672E+02  0.00000000000E+00 0.  1.
</event>
<event>
12    1  0.8133506E-002  0.1855947E+03  0.7818608E-02  0.1163152E+00
         21   -1    0    0  503  502  0.00000000000E+00  0.00000000000E+00  0.61224416446E+02  0.61224416446E+02  0.00000000000E+00 0.  1.
         21   -1    0    0  501  503 -0.00000000000E+00 -0.00000000000E+00 -0.82806171298E+03  0.82806171298E+03  0.00000000000E+00 0.  1.
          6    2    1    2  501    0 -0.17665249923E+02 -0.63997952698E+02 -0.64109667395E+03  0.66742065274E+03  0.17331354058E+03 0.  0.
         24    2    3    3    0    0  0.56287879039E+02 -0.24691431786E+02 -0.31262836875E+03  0.32841093991E+03  0.79619447222E+02 0.  0.
         -6    2    1    2    0  502  0.17665249923E+02  0.63997952698E+02 -0.12574062258E+03  0.22186547669E+03  0.17031085278E+03 0.  0.
        -24    2    5    5    0    0 -0.25533135771E+02  0.17373721166E+02 -0.13273369892E+03  0.15774907778E+03  0.79452813042E+02 0.  0.
          5    1    3    3  501    0 -0.73953128962E+02 -0.39306520911E+02 -0.32846830520E+03  0.33900971283E+03  0.47000000000E+01 0. -1.
        -11    1    4    4    0    0  0.46915585175E+02 -0.35935947453E+02 -0.10678000346E+03  0.12204275313E+03  0.00000000000E+00 0.  1.
         12    1    4    4    0    0  0.93722938640E+01  0.11244515667E+02 -0.20584836528E+03  0.20636818678E+03  0.00000000000E+00 0. -1.
         -5    1    5    5    0  502  0.43198385694E+02  0.46624231532E+02  0.69930763404E+01  0.64116398910E+02  0.47000000000E+01 0.  1.
         13    1    6    6    0    0 -0.45215986456E+02  0.15432934548E+02 -0.38207184082E+02  0.61175565509E+02  0.00000000000E+00 0. -1.
        -14    1    6    6    0    0  0.19682850684E+02  0.19407866180E+01 -0.94526514840E+02  0.96573512267E+02  0.00000000000E+00 0.  1.
</event>
<event>
12    1  0.8133506E-002  0.2337380E+03  0.7818608E-02  0.1124710E+00
         21   -1    0    0  503  502  0.00000000000E+00  0.00000000000E+00  0.18943591328E+03  0.18943591328E+03  0.00000000000E+00 0.  1.
         21   -1    0    0  501  503 -0.00000000000E+00 -0.00000000000E+00 -0.51677131172E+03  0.51677131172E+03  0.00000000000E+00 0.  1.
          6    2    1    2  501    0  0.11586845659E+03 -0.11110687337E+03 -0.40007902254E+03  0.46141123860E+03  0.16452012122E+03 0.  0.
         24    2    3    3    0    0  0.74140629253E+02 -0.58244362713E+02 -0.36259582928E+03  0.38419248191E+03  0.85081661095E+02 0.  0.
         -6    2    1    2    0  502 -0.11586845659E+03  0.11110687337E+03  0.72743624108E+02  0.24479598640E+03  0.16989174073E+03 0.  0.
        -24    2    5    5    0    0 -0.18900908302E+02  0.10780313847E+03  0.53388953763E+02  0.14574896046E+03  0.80085067848E+02 0.  0.
          5    1    3    3  501    0  0.41727827334E+02 -0.52862510659E+02 -0.37483193264E+02  0.77218756688E+02  0.47000000000E+01 0. -1.
        -13    1    4    4    0    0  0.92900372063E+02 -0.53338721055E+02 -0.29397604285E+03  0.31288562137E+03  0.00000000000E+00 0.  1.
         14    1    4    4    0    0 -0.18759742810E+02 -0.49056416580E+01 -0.68619786430E+02  0.71306860540E+02  0.00000000000E+00 0. -1.
         -5    1    5    5    0  502 -0.96967548284E+02  0.33037349034E+01  0.19354670344E+02  0.99047025946E+02  0.47000000000E+01 0.  1.
         13    1    6    6    0    0 -0.50066005688E+01  0.14424664385E+01 -0.16781154439E+02  0.17571394452E+02  0.00000000000E+00 0. -1.
        -14    1    6    6    0    0 -0.13894307734E+02  0.10636067203E+03  0.70170108202E+02  0.12817756601E+03  0.00000000000E+00 0.  1.
</event>
<event>
12    1  0.8133506E-002  0.2088781E+03  0.7818608E-02  0.1143111E+00
         21   -1    0    0  503  502  0.00000000000E+00  0.00000000000E+00  0.15486430210E+03  0.15486430210E+03  0.00000000000E+00 0. -1.
         21   -1    0    0  501  503 -0.00000000000E+00 -0.00000000000E+00 -0.31647863842E+03  0.31647863842E+03  0.00000000000E+00 0. -1.
          6    2    1    2  501    0 -0.80193304869E+02  0.88405093317E+02 -0.16421198667E+03  0.26569842751E+03  0.17141660113E+03 0.  0.
         24    2    3    3    0    0 -0.11975944157E+03  0.62677436777E+02 -0.14672128146E+03  0.21514740128E+03  0.80563545833E+02 0.  0.
         -6    2    1    2    0  502  0.80193304869E+02 -0.88405093317E+02  0.25976503514E+01  0.20564451302E+03  0.16744100835E+03 0.  0.
        -24    2    5    5    0    0  0.33192639440E+02 -0.99972012290E+02  0.45799843762E+02  0.14059548781E+03  0.81075957893E+02 0.  0.
          5    1    3    3  501    0  0.39566136697E+02  0.25727656540E+02 -0.17490705208E+02  0.50551026229E+02  0.47000000000E+01 0. -1.
        -13    1    4    4    0    0 -0.34836728489E+02  0.40588301390E+01  0.84346152861E+00  0.35082519597E+02  0.00000000000E+00 0.  1.
         14    1    4    4    0    0 -0.84922713077E+02  0.58618606638E+02 -0.14756474299E+03  0.18006488168E+03  0.00000000000E+00 0. -1.
         -5    1    5    5    0  502  0.47000665430E+02  0.11566918974E+02 -0.43202193410E+02  0.65049025211E+02  0.47000000000E+01 0.  1.
         11    1    6    6    0    0 -0.88414044049E+01 -0.88240389326E+02  0.24327260066E+02  0.91958427143E+02  0.00000000000E+00 0. -1.
        -12    1    6    6    0    0  0.42034043845E+02 -0.11731622964E+02  0.21472583695E+02  0.48637060662E+02  0.00000000000E+00 0.  1.
</event>
<event>
12    1  0.8133506E-002  0.2047107E+03  0.7818608E-02  0.1146017E+00
         21   -1    0    0  503  502  0.00000000000E+00  0.00000000000E+00  0.15475913851E+03  0.15475913851E+03  0.00000000000E+00 0. -1.
         21   -1    0    0  501  503 -0.00000000000E+00 -0.00000000000E+00 -0.29287044528E+03  0.29287044528E+03  0.00000000000E+00 0.  1.
          6    2    1    2  501    0 -0.21076332427E+02  0.10884421191E+03 -0.13236648047E+03  0.24377725257E+03  0.17209064316E+03 0.  0.
         24    2    3    3    0    0  0.42114253421E+02  0.25002388929E+02 -0.92078493997E+02  0.13122631621E+03  0.79644003013E+02 0.  0.
         -6    2    1    2    0  502  0.21076332427E+02 -0.10884421191E+03 -0.57448262954E+01  0.20385233123E+03  0.17097220728E+03 0.  0.
        -24    2    5    5    0    0 -0.91146671087E+01 -0.12269576376E+03  0.35419685872E+02  0.15074895089E+03  0.79582438049E+02 0.  0.
          5    1    3    3  501    0 -0.63190585849E+02  0.83841822981E+02 -0.40287986468E+02  0.11255093635E+03  0.47000000000E+01 0. -1.
        -13    1    4    4    0    0 -0.14056439821E+02 -0.12622464043E+02 -0.25876634263E+01  0.19068458275E+02  0.00000000000E+00 0.  1.
         14    1    4    4    0    0  0.56170693243E+02  0.37624852972E+02 -0.89490830571E+02  0.11215785794E+03  0.00000000000E+00 0. -1.
         -5    1    5    5    0  502  0.30190999536E+02  0.13851551846E+02 -0.41164512167E+02  0.53103380339E+02  0.47000000000E+01 0.  1.
         11    1    6    6    0    0 -0.16248040141E+02 -0.76157162257E+02 -0.17606808840E+02  0.79836782807E+02  0.00000000000E+00 0. -1.
        -12    1    6    6    0    0  0.71333730322E+01 -0.46538601499E+02  0.53026494712E+02  0.70912168079E+02  0.00000000000E+00 0.  1.
</event>
<event>
12    1  0.8133506E-002  0.2363505E+03  0.7818608E-02  0.1122286E+00
         21   -1    0    0  503  502  0.00000000000E+00  0.00000000000E+00  0.46689661435E+03  0.46689661435E+03  0.00000000000E+00 0.  1.
         21   -1    0    0  501  503 -0.00000000000E+00 -0.00000000000E+00 -0.12004803378E+03  0.12004803378E+03  0.00000000000E+00 0.  1.
          6    2    1    2  501    0 -0.15591156288E+03  0.44213859753E+02  0.19258838257E+03  0.30470760195E+03  0.17173571774E+03 0.  0.
         24    2    3    3    0    0 -0.58181249402E+02 -0.31964196864E+02  0.45135130387E+02  0.11204504185E+03  0.78167408461E+02 0.  0.
         -6    2    1    2    0  502  0.15591156288E+03 -0.44213859753E+02  0.15426019800E+03  0.28223704618E+03  0.17204145057E+03 0.  0.
        -24    2    5    5    0    0  0.10514978663E+03 -0.47812799657E+02  0.24000996811E+02  0.14231113796E+03  0.79585618672E+02 0.  0.
          5    1    3    3  501    0 -0.97730313481E+02  0.76178056618E+02  0.14745325219E+03  0.19266256010E+03  0.47000000000E+01 0. -1.
        -13    1    4    4    0    0 -0.66506417952E+02 -0.23395864624E+02  0.55764509218E+01  0.70721757014E+02  0.00000000000E+00 0.  1.
         14    1    4    4    0    0  0.83251685501E+01 -0.85683322404E+01  0.39558679465E+02  0.41323284838E+02  0.00000000000E+00 0. -1.
         -5    1    5    5    0  502  0.50761776248E+02  0.35989399036E+01  0.13025920119E+03  0.13992590822E+03  0.47000000000E+01 0.  1.
         13    1    6    6    0    0  0.11816944027E+02 -0.36426003964E+01 -0.25095116308E+02  0.27976303657E+02  0.00000000000E+00 0. -1.
        -14    1    6    6    0    0  0.93332842607E+02 -0.44170199260E+02  0.49096113118E+02  0.11433483430E+03  0.00000000000E+00 0.  1.
</event>
<event>
12    1  0.8133506E-002  0.1851398E+03  0.7818608E-02  0.1163749E+00
         21   -1    0    0  501  502  0.00000000000E+00  0.00000000000E+00  0.66508154839E+03  0.66508154839E+03  0.00000000000E+00 0. -1.
         21   -1    0    0  502  503 -0.00000000000E+00 -0.00000000000E+00 -0.71624257782E+02  0.71624257782E+02  0.00000000000E+00 0. -1.
         -6    2    1    2    0  503  0.39038710722E+02 -0.43476190628E+02  0.49847806491E+03  0.53174911482E+03  0.17567737426E+03 0.  0.
        -24    2    3    3    0    0  0.62471986401E+02  0.12663534472E+02  0.17289969873E+03  0.20050275685E+03  0.79018576886E+02 0.  0.
          6    2    1    2  501    0 -0.39038710722E+02  0.43476190628E+02  0.94979225699E+02  0.20495669135E+03  0.17196508928E+03 0.  0.
         24    2    5    5    0    0 -0.92538451984E+02  0.31847251720E+02  0.73347866137E+02  0.14590196883E+03  0.79560433039E+02 0.  0.
          5    1    5    5  501    0  0.53499741263E+02  0.11628938908E+02  0.21631359563E+02  0.59054722519E+02  0.47000000000E+01 0. -1.
        -11    1    6    6    0    0 -0.87406330578E+02  0.31237319900E+01  0.27734051723E+02  0.91754029620E+02  0.00000000000E+00 0.  1.
         12    1    6    6    0    0 -0.51321214065E+01  0.28723519730E+02  0.45613814414E+02  0.54147939214E+02  0.00000000000E+00 0. -1.
         -5    1    3    3    0  503 -0.23433275680E+02 -0.56139725100E+02  0.32557836619E+03  0.33124635798E+03  0.47000000000E+01 0.  1.
         13    1    4    4    0    0  0.86074287482E+01  0.18647484169E+00  0.13060944211E+03  0.13089289122E+03  0.00000000000E+00 0. -1.
        -14    1    4    4    0    0  0.53864557653E+02  0.12477059631E+02  0.42290256612E+02  0.69609865626E+02  0.00000000000E+00 0.  1.
</event>
<event>
12    1  0.8133506E-002  0.2026354E+03  0.7818608E-02  0.1147708E+00
         21   -1    0    0  503  502  0.00000000000E+00  0.00000000000E+00  0.11868519759E+03  0.11868519759E+03  0.00000000000E+00 0.  1.
         21   -1    0    0  501  503 -0.00000000000E+00 -0.00000000000E+00 -0.37996905056E+03  0.37996905056E+03  0.00000000000E+00 0. -1.
          6    2    1    2  501    0  0.78184063326E+02 -0.75493682420E+02 -0.54752438961E+02  0.20990219934E+03  0.17102356525E+03 0.  0.
         24    2    3    3    0    0  0.56020498544E+02  0.19555877605E+02 -0.50068260229E+02  0.11207748878E+03  0.80831950385E+02 0.  0.
         -6    2    1    2    0  502 -0.78184063326E+02  0.75493682420E+02 -0.20653141401E+03  0.28875204881E+03  0.17003081156E+03 0.  0.
        -24    2    5    5    0    0  0.23473314862E+02  0.35050579790E+02 -0.88965707941E+02  0.12808577254E+03  0.81923917648E+02 0.  0.
          5    1    3    3  501    0  0.22163564782E+02 -0.95049560025E+02 -0.46841787324E+01  0.97824710555E+02  0.47000000000E+01 0. -1.
        -13    1    4    4    0    0  0.72910725463E+02  0.32355159385E+01 -0.50217209976E+02  0.88590127152E+02  0.00000000000E+00 0.  1.
         14    1    4    4    0    0 -0.16890226919E+02  0.16320361666E+02  0.14894974696E+00  0.23487361630E+02  0.00000000000E+00 0. -1.
         -5    1    5    5    0  502 -0.10165737819E+03  0.40443102630E+02 -0.11756570606E+03  0.16066627628E+03  0.47000000000E+01 0.  1.
         11    1    6    6    0    0  0.14620028022E+02  0.56694200161E+02 -0.32488399028E+02  0.66958745677E+02  0.00000000000E+00 0. -1.
        -12    1    6    6    0    0  0.88532868396E+01 -0.21643620371E+02 -0.56477308913E+02  0.61127026860E+02  0.00000000000E+00 0.  1.
</event>
<event>
12    1  0.8133506E-002  0.1887265E+03  0.7818608E-02  0.1159618E+00
         21   -1    0    0  501  502  0.00000000000E+00  0.00000000000E+00  0.29360076036E+02  0.29360076036E+02  0.00000000000E+00 0.  1.
         21   -1    0    0  502  503 -0.00000000000E+00 -0.00000000000E+00 -0.25783297752E+04  0.25783297752E+04  0.00000000000E+00 0.  1.
         -6    2    1    2    0  503  0.14194707090E+02 -0.77820270957E+02 -0.22232941759E+04  0.22312899141E+04  0.17134819566E+03 0.  0.
        -24    2    3    3    0    0 -0.58322088170E+02 -0.65271820986E+00 -0.10947585297E+04  0.10977872403E+04  0.56909530930E+02 0.  0.
          6    2    1    2  501    0 -0.14194707090E+02  0.77820270957E+02 -0.32567552331E+03  0.37639993712E+03  0.17133266443E+03 0.  0.
         24    2    5    5    0    0 -0.31172015139E+02  0.38025505913E+01 -0.64374287896E+02  0.10424689645E+03  0.75744389622E+02 0.  0.
          5    1    5    5  501    0  0.16977308048E+02  0.74017720366E+02 -0.26130123541E+03  0.27215304067E+03  0.47000000000E+01 0. -1.
        -11    1    6    6    0    0  0.54564112988E+00  0.23907398711E+02  0.58442387385E+01  0.24617403677E+02  0.00000000000E+00 0.  1.
         12    1    6    6    0    0 -0.31717656269E+02 -0.20104848120E+02 -0.70218526635E+02  0.79629492777E+02  0.00000000000E+00 0. -1.
         -5    1    3    3    0  503  0.72516795260E+02 -0.77167552747E+02 -0.11285356462E+04  0.11335026738E+04  0.47000000000E+01 0.  1.
         11    1    4    4    0    0  0.48639480951E+01  0.15301354445E+02 -0.25383888125E+03  0.25434615600E+03  0.00000000000E+00 0. -1.
        -12    1    4    4    0    0 -0.63186036265E+02 -0.15954072654E+02 -0.84091964842E+03  0.84344108431E+03  0.00000000000E+00 0.  1.
</event>
<event>
12    1  0.8133506E-002  0.1963160E+03  0.7818608E-02  0.1153038E+00
         21   -1    0    0  501  502  0.00000000000E+00  0.00000000000E+00  0.31124082166E+03  0.31124082166E+03  0.00000000000E+00 0.  1.
         21   -1    0    0  502  503 -0.00000000000E+00 -0.00000000000E+00 -0.44402606817E+03  0.44402606817E+03  0.00000000000E+00 0. -1.
         -6    2    1    2    0  503  0.93900660129E+02  0.72475643705E+01 -0.38726567828E+03  0.43386328712E+03  0.17144324187E+03 0.  0.
        -24    2    3    3    0    0  0.48952515396E+02 -0.54425743927E+02 -0.14499845924E+03  0.17981717302E+03  0.77143711124E+02 0.  0.
          6    2    1    2  501    0 -0.93900660129E+02 -0.72475643705E+01  0.25448043177E+03  0.32140360271E+03  0.17225018003E+03 0.  0.
         24    2    5    5    0    0 -0.11942025684E+03  0.28696216013E+02  0.22448395846E+03  0.26787712724E+03  0.79249209072E+02 0.  0.
          5    1    5    5  501    0  0.25519596710E+02 -0.35943780384E+02  0.29996473312E+02  0.53526475465E+02  0.47000000000E+01 0. -1.
        -13    1    6    6    0    0 -0.49062741055E+02  0.50824206310E+02  0.89097209853E+02  0.11370384915E+03  0.00000000000E+00 0.  1.
         14    1    6    6    0    0 -0.70357515784E+02 -0.22127990297E+02  0.13538674860E+03  0.15417327810E+03  0.00000000000E+00 0. -1.
         -5    1    3    3    0  503  0.44948144733E+02  0.61673308297E+02 -0.24226721903E+03  0.25404611410E+03  0.47000000000E+01 0.  1.
         11    1    4    4    0    0  0.13509351947E+02 -0.38802674839E+02 -0.13309966712E+03  0.13929706225E+03  0.00000000000E+00 0. -1.
        -12    1    4    4    0    0  0.35443163449E+02 -0.15623069088E+02 -0.11898792124E+02  0.40520110773E+02  0.00000000000E+00 0.  1.
</event>
<event>
12    1  0.8133506E-002  0.1771646E+03  0.7818608E-02  0.1170689E+00
         21   -1    0    0  503  502  0.00000000000E+00  0.00000000000E+00  0.72466612329E+02  0.72466612329E+02  0.00000000000E+00 0. -1.
         21   -1    0    0  501  503 -0.00000000000E+00 -0.00000000000E+00 -0.56129831775E+03  0.56129831775E+03  0.00000000000E+00 0. -1.
          6    2    1    2  501    0  0.39740535669E+02 -0.40038483033E+01 -0.92575273746E+02  0.19989363124E+03  0.17260342270E+03 0.  0.
         24    2    3    3    0    0  0.91503253720E+02 -0.49973977477E+01 -0.84031741836E+02  0.14721110987E+03  0.78815974320E+02 0.  0.
         -6    2    1    2    0  502 -0.39740535669E+02  0.40038483033E+01 -0.39625643168E+03  0.43387129884E+03  0.17213309772E+03 0.  0.
        -24    2    5    5    0    0  0.16623101970E+02  0.29003908904E+02 -0.33689600818E+03  0.34815308283E+03  0.81204030099E+02 0.  0.
          5    1    3    3  501    0 -0.51762718052E+02  0.99354944439E+00 -0.85435319096E+01  0.52682521372E+02  0.47000000000E+01 0. -1.
        -11    1    4    4    0    0  0.44284392747E+02 -0.19072506526E+02  0.17910101023E+01  0.48250136407E+02  0.00000000000E+00 0.  1.
         12    1    4    4    0    0  0.47218860974E+02  0.14075108778E+02 -0.85822751939E+02  0.98960973465E+02  0.00000000000E+00 0. -1.
         -5    1    5    5    0  502 -0.56363637639E+02 -0.25000060601E+02 -0.59360423498E+02  0.85718216009E+02  0.47000000000E+01 0.  1.
         13    1    6    6    0    0 -0.32753656306E+01  0.18721374840E+02 -0.11980874241E+02  0.22466847654E+02  0.00000000000E+00 0. -1.
        -14    1    6    6    0    0  0.19898467600E+02  0.10282534064E+02 -0.32491513394E+03  0.32568623517E+03  0.00000000000E+00 0.  1.
</event>
<event>
12    1  0.8133506E-002  0.2976398E+03  0.7818608E-02  0.1086599E+00
         21   -1    0    0  501  502  0.00000000000E+00  0.00000000000E+00  0.14681206393E+03  0.14681206393E+03  0.00000000000E+00 0. -1.
         21   -1    0    0  502  503 -0.00000000000E+00 -0.00000000000E+00 -0.71238812999E+03  0.71238812999E+03  0.00000000000E+00 0. -1.
         -6    2    1    2    0  503  0.89272119870E+02 -0.22378333354E+03 -0.45347167863E+03  0.54242602786E+03  0.17475966533E+03 0.  0.
        -24    2    3    3    0    0  0.26530145567E+02 -0.33647249555E+02 -0.87742676630E+02  0.12545111413E+03  0.78760514911E+02 0.  0.
          6    2    1    2  501    0 -0.89272119870E+02  0.22378333354E+03 -0.11210438743E+03  0.31677416605E+03  0.17242385810E+03 0.  0.
         24    2    5    5    0    0 -0.98195138606E+02  0.24186990958E+03 -0.91856183545E+02  0.28781170316E+03  0.79086532444E+02 0.  0.
          5    1    5    5  501    0  0.89230187355E+01 -0.18086576041E+02 -0.20248203881E+02  0.28962462890E+02  0.47000000000E+01 0. -1.
        -13    1    6    6    0    0 -0.36902422688E+01  0.10340065150E+03 -0.50540048130E+02  0.11515037596E+03  0.00000000000E+00 0.  1.
         14    1    6    6    0    0 -0.94504896337E+02  0.13846925809E+03 -0.41316135414E+02  0.17266132721E+03  0.00000000000E+00 0. -1.
         -5    1    3    3    0  503  0.62741974304E+02 -0.19013608399E+03 -0.36572900200E+03  0.41697491373E+03  0.47000000000E+01 0.  1.
         11    1    4    4    0    0  0.37162224955E+02 -0.16467308324E+02 -0.95514765874E+02  0.10380401585E+03  0.00000000000E+00 0. -1.
        -12    1    4    4    0    0 -0.10632079389E+02 -0.17179941231E+02  0.77720892444E+01  0.21647098282E+02  0.00000000000E+00 0.  1.
</event>
<event>
12    1  0.8133506E-002  0.1815248E+03  0.7818608E-02  0.1167852E+00
         21   -1    0    0  501  502  0.00000000000E+00  0.00000000000E+00  0.64661626408E+03  0.64661626408E+03  0.00000000000E+00 0.  1.
         21   -1    0    0  502  503 -0.00000000000E+00 -0.00000000000E+00 -0.59226224607E+02  0.59226224607E+02  0.00000000000E+00 0.  1.
         -6    2    1    2    0  503  0.29098449711E+02 -0.28959697189E+02  0.14445261120E+03  0.22715174852E+03  0.17042880078E+03 0.  0.
        -24    2    3    3    0    0  0.30055049258E+02  0.45036242733E+02  0.56437708527E+02  0.11206470624E+03  0.80260290899E+02 0.  0.
          6    2    1    2  501    0 -0.29098449711E+02  0.28959697189E+02  0.44293742827E+03  0.47869074017E+03  0.17682159236E+03 0.  0.
         24    2    5    5    0    0 -0.34404349693E+02  0.59129926812E+02  0.43283190255E+03  0.44609308718E+03  0.83519932021E+02 0.  0.
          5    1    5    5  501    0  0.53058999819E+01 -0.30170229623E+02  0.10105525720E+02  0.32597652986E+02  0.47000000000E+01 0. -1.
        -13    1    6    6    0    0 -0.50813065474E+02  0.34965847895E+02  0.15641957350E+03  0.16814178873E+03  0.00000000000E+00 0.  1.
         14    1    6    6    0    0  0.16408715781E+02  0.24164078917E+02  0.27641232905E+03  0.27795129846E+03  0.00000000000E+00 0. -1.
         -5    1    3    3    0  503 -0.95659954714E+00 -0.73995939922E+02  0.88014902676E+02  0.11508704228E+03  0.47000000000E+01 0.  1.
         13    1    4    4    0    0 -0.25965568131E+02  0.23711345296E+02  0.10987093638E+02  0.36839582662E+02  0.00000000000E+00 0. -1.
        -14    1    4    4    0    0  0.56020617389E+02  0.21324897437E+02  0.45450614889E+02  0.75225123577E+02  0.00000000000E+00 0.  1.
</event>
<event>
12    1  0.8133506E-002  0.1916336E+03  0.7818608E-02  0.1157005E+00
         21   -1    0    0  503  502  0.00000000000E+00  0.00000000000E+00  0.25839392291E+03  0.25839392291E+03  0.00000000000E+00 0.  1.
         21   -1    0    0  501  503 -0.00000000000E+00 -0.00000000000E+00 -0.19642199742E+03  0.19642199742E+03  0.00000000000E+00 0. -1.
          6    2    1    2  501    0 -0.55571693543E+02 -0.64092123847E+02  0.15058348328E+03  0.24368690217E+03  0.17179030063E+03 0.  0.
         24    2    3    3    0    0  0.31469308192E+02 -0.36465839288E+02  0.45829578337E+02  0.10463720536E+03  0.80799255580E+02 0.  0.
         -6    2    1    2    0  502  0.55571693543E+02  0.64092123847E+02 -0.88611557788E+02  0.21112901815E+03  0.17183550469E+03 0.  0.
        -24    2    5    5    0    0  0.84862275018E+02  0.80520012727E+02 -0.34401732188E+02  0.14718678729E+03  0.82434173769E+02 0.  0.
          5    1    3    3  501    0 -0.87041001735E+02 -0.27626284559E+02  0.10475390495E+03  0.13904969681E+03  0.47000000000E+01 0. -1.
        -13    1    4    4    0    0  0.34606332481E+01 -0.57109345784E+02  0.17684904819E+02  0.59884966535E+02  0.00000000000E+00 0.  1.
         14    1    4    4    0    0  0.28008674944E+02  0.20643506496E+02  0.28144673518E+02  0.44752238827E+02  0.00000000000E+00 0. -1.
         -5    1    5    5    0  502 -0.29290581475E+02 -0.16427888879E+02 -0.54209825601E+02  0.63942230864E+02  0.47000000000E+01 0.  1.
         13    1    6    6    0    0  0.50955286143E+02 -0.47698091387E+01 -0.91019032012E+01  0.51981120679E+02  0.00000000000E+00 0. -1.
        -14    1    6    6    0    0  0.33906988875E+02  0.85289821865E+02 -0.25299828987E+02  0.95205666612E+02  0.00000000000E+00 0.  1.
</event>
<event>
12    1  0.8133506E-002  0.2238869E+03  0.7818608E-02  0.1133131E+00
         21   -1    0    0  501  502  0.00000000000E+00  0.00000000000E+00  0.45083003407E+03  0.45083003407E+03  0.00000000000E+00 0.  1.
         21   -1    0    0  502  503 -0.00000000000E+00 -0.00000000000E+00 -0.11198743594E+03  0.11198743594E+03  0.00000000000E+00 0.  1.
         -6    2    1    2    0  503  0.12209769943E+03  0.26470827853E+02  0.10664430447E+03  0.24798863631E+03  0.18578698320E+03 0.  0.
        -24    2    3    3    0    0  0.22688630907E+02  0.43825555073E+02  0.11084823801E+03  0.14687922765E+03  0.82769090819E+02 0.  0.
          6    2    1    2  501    0 -0.12209769943E+03 -0.26470827853E+02  0.23219829366E+03  0.31482883370E+03  0.17202498078E+03 0.  0.
         24    2    5    5    0    0 -0.94854578642E+02  0.60997431167E+00  0.58315955484E+02  0.13669204635E+03  0.79285570647E+02 0.  0.
          5    1    5    5  501    0 -0.27243120788E+02 -0.27080802164E+02  0.17388233818E+03  0.17813678735E+03  0.47000000000E+01 0. -1.
        -13    1    6    6    0    0 -0.21848061804E+02  0.33349930088E+02  0.41819136671E+01  0.40087953844E+02  0.00000000000E+00 0.  1.
         14    1    6    6    0    0 -0.73006516838E+02 -0.32739955777E+02  0.54134041817E+02  0.96604092504E+02  0.00000000000E+00 0. -1.
         -5    1    3    3    0  503  0.99409068523E+02 -0.17354727221E+02 -0.42039335428E+01  0.10110940866E+03  0.47000000000E+01 0.  1.
         13    1    4    4    0    0  0.50760354274E+02  0.44845288410E+02  0.71007348464E+02  0.98131325246E+02  0.00000000000E+00 0. -1.
        -14    1    4    4    0    0 -0.28071723367E+02 -0.10197333368E+01  0.39840889546E+02  0.48747902403E+02  0.00000000000E+00 0.  1.
</event>
<event>
12    1  0.8133506E-002  0.2074413E+03  0.7818608E-02  0.1143848E+00
         21   -1    0    0  501  502  0.00000000000E+00  0.00000000000E+00  0.63200645561E+03  0.63200645561E+03  0.00000000000E+00 0. -1.
         21   -1    0    0  502  503 -0.00000000000E+00 -0.00000000000E+00 -0.83342155301E+02  0.83342155301E+02  0.00000000000E+00 0. -1.
         -6    2    1    2    0  503  0.11456802077E+03 -0.18975256270E+02  0.11873104682E+03  0.23798660864E+03  0.17045431258E+03 0.  0.
        -24    2    3    3    0    0  0.97841815059E+02 -0.70955161337E+02  0.51621637155E+02  0.15134112777E+03  0.75044572344E+02 0.  0.
          6    2    1    2  501    0 -0.11456802077E+03  0.18975256270E+02  0.42993325349E+03  0.47736200227E+03  0.17188946165E+03 0.  0.
         24    2    5    5    0    0  0.82321073661E+01  0.10021832435E+01  0.22546443851E+03  0.23812887513E+03  0.76173329816E+02 0.  0.
          5    1    5    5  501    0 -0.12280012814E+03  0.17973073027E+02  0.20446881498E+03  0.23923312715E+03  0.47000000000E+01 0. -1.
        -11    1    6    6    0    0  0.12783889817E+02  0.20366791222E+02  0.18837080566E+02  0.30546188433E+02  0.00000000000E+00 0.  1.
         12    1    6    6    0    0 -0.45517824513E+01 -0.19364607978E+02  0.20662735794E+03  0.20758268669E+03  0.00000000000E+00 0. -1.
         -5    1    3    3    0  503  0.16726205716E+02  0.51979905067E+02  0.67109409668E+02  0.86645480865E+02  0.47000000000E+01 0.  1.
         11    1    4    4    0    0  0.76017029124E+02 -0.20326426794E+02  0.55159297350E+02  0.96095267455E+02  0.00000000000E+00 0. -1.
        -12    1    4    4    0    0  0.21824785935E+02 -0.50628734543E+02 -0.35376601944E+01  0.55245860317E+02  0.00000000000E+00 0.  1.
</event>
<event>
12    1  0.8133506E-002  0.1925596E+03  0.7818608E-02  0.1156886E+00
         21   -1    0    0  501  502  0.00000000000E+00  0.00000000000E+00  0.77919710850E+02  0.77919710850E+02  0.00000000000E+00 0. -1.
         21   -1    0    0  502  503 -0.00000000000E+00 -0.00000000000E+00 -0.55042770001E+03  0.55042770001E+03  0.00000000000E+00 0. -1.
         -6    2    1    2    0  503 -0.17363936582E+02  0.79352726064E+02 -0.35614343567E+03  0.40335870771E+03  0.17106062927E+03 0.  0.
        -24    2    3    3    0    0 -0.17794266434E+02  0.38428315520E+02 -0.35015207648E+03  0.36172964398E+03  0.80302473919E+02 0.  0.
          6    2    1    2  501    0  0.17363936582E+02 -0.79352726064E+02 -0.11636455349E+03  0.22498870315E+03  0.17458764506E+03 0.  0.
         24    2    5    5    0    0 -0.33765675325E+02 -0.85730064322E+01 -0.10620135727E+03  0.13695810346E+03  0.79152868220E+02 0.  0.
          5    1    5    5  501    0  0.51129611908E+02 -0.70779719632E+02 -0.10163196223E+02  0.88030599694E+02  0.47000000000E+01 0. -1.
        -13    1    6    6    0    0  0.23283320760E+02  0.61763722895E+01 -0.14999828852E+02  0.28377023556E+02  0.00000000000E+00 0.  1.
         14    1    6    6    0    0 -0.57048996086E+02 -0.14749378722E+02 -0.91201528417E+02  0.10858107990E+03  0.00000000000E+00 0. -1.
         -5    1    3    3    0  503  0.43032985186E+00  0.40924410544E+02 -0.59913591874E+01  0.41629063731E+02  0.47000000000E+01 0.  1.
         13    1    4    4    0    0  0.24230874552E+02  0.36805247016E+02 -0.12154679265E+03  0.12928798975E+03  0.00000000000E+00 0. -1.
        -14    1    4    4    0    0 -0.42025140986E+02  0.16230685031E+01 -0.22860528383E+03  0.23244165423E+03  0.00000000000E+00 0.  1.
</event>
<event>
12    1  0.8133506E-002  0.1925161E+03  0.7818608E-02  0.1156406E+00
         21   -1    0    0  501  502  0.00000000000E+00  0.00000000000E+00  0.47494298775E+03  0.47494298775E+03  0.00000000000E+00 0. -1.
         21   -1    0    0  502  503 -0.00000000000E+00 -0.00000000000E+00 -0.78361009998E+02  0.78361009998E+02  0.00000000000E+00 0. -1.
         -6    2    1    2    0  503 -0.67536153797E+02 -0.52847073929E+02  0.22363185517E+03  0.29451025333E+03  0.17138009621E+03 0.  0.
        -24    2    3    3    0    0  0.24542319472E+02 -0.23311019101E+02  0.14353009105E+03  0.16885514444E+03  0.82252317359E+02 0.  0.
          6    2    1    2  501    0  0.67536153797E+02  0.52847073929E+02  0.17295012259E+03  0.25879374442E+03  0.17236157332E+03 0.  0.
         24    2    5    5    0    0  0.66436108944E+02  0.83450161327E+02  0.71846437116E+02  0.15304969366E+03  0.82973563288E+02 0.  0.
          5    1    5    5  501    0  0.11000448537E+01 -0.30603087398E+02  0.10110368547E+03  0.10574405077E+03  0.47000000000E+01 0. -1.
        -13    1    6    6    0    0  0.57535240133E+02  0.34953196345E+02  0.78368318204E+02  0.10331322805E+03  0.00000000000E+00 0.  1.
         14    1    6    6    0    0  0.89008688105E+01  0.48496964982E+02 -0.65218810880E+01  0.49736465606E+02  0.00000000000E+00 0. -1.
         -5    1    3    3    0  503 -0.92078473269E+02 -0.29536054828E+02  0.80101764115E+02  0.12565510888E+03  0.47000000000E+01 0.  1.
         13    1    4    4    0    0 -0.28365793880E+02  0.30451442849E+01  0.60992987663E+02  0.67335248646E+02  0.00000000000E+00 0. -1.
        -14    1    4    4    0    0  0.52908113351E+02 -0.26356163385E+02  0.82537103388E+02  0.10151989580E+03  0.00000000000E+00 0.  1.
</event>
<event>
12    1  0.8133506E-002  0.1890014E+03  0.7818608E-02  0.1160154E+00
         21   -1    0    0  501  502  0.00000000000E+00  0.00000000000E+00  0.19953486563E+03  0.19953486563E+03  0.00000000000E+00 0.  1.
         21   -1    0    0  502  503 -0.00000000000E+00 -0.00000000000E+00 -0.20883693757E+03  0.20883693757E+03  0.00000000000E+00 0. -1.
         -6    2    1    2    0  503 -0.65061689781E+02  0.13614258324E+02 -0.85850705151E+02  0.20445706531E+03  0.17324542266E+03 0.  0.
        -24    2    3    3    0    0 -0.16869927541E+02  0.15797396180E+01 -0.11867664274E+03  0.14473347058E+03  0.81095881163E+02 0.  0.
          6    2    1    2  501    0  0.65061689781E+02 -0.13614258324E+02  0.76548633209E+02  0.20391473789E+03  0.17692697809E+03 0.  0.
         24    2    5    5    0    0  0.59109506405E+02  0.14584048190E+02  0.11687477725E+03  0.15412657794E+03  0.79929095210E+02 0.  0.
          5    1    5    5  501    0  0.59521833756E+01 -0.28198306514E+02 -0.40326144045E+02  0.49788159945E+02  0.47000000000E+01 0. -1.
        -13    1    6    6    0    0  0.47301599387E+02 -0.14909016315E+02  0.11133001016E+03  0.12187736145E+03  0.00000000000E+00 0.  1.
         14    1    6    6    0    0  0.11807907018E+02  0.29493064505E+02  0.55447670900E+01  0.32249216488E+02  0.00000000000E+00 0. -1.
         -5    1    3    3    0  503 -0.48191762239E+02  0.12034518706E+02  0.32825937593E+02  0.59723594726E+02  0.47000000000E+01 0.  1.
         13    1    4    4    0    0  0.29147688938E+02  0.48971988189E+01 -0.77309855244E+02  0.82767046851E+02  0.00000000000E+00 0. -1.
        -14    1    4    4    0    0 -0.46017616479E+02 -0.33174592009E+01 -0.41366787500E+02  0.61966423731E+02  0.00000000000E+00 0.  1.
</event>
<event>
12    1  0.8133506E-002  0.1800762E+03  0.7818608E-02  0.1168513E+00
         21   -1    0    0  501  502  0.00000000000E+00  0.00000000000E+00  0.80533172171E+02  0.80533172171E+02  0.00000000000E+00 0. -1.
         21   -1    0    0  502  503 -0.00000000000E+00 -0.00000000000E+00 -0.39725777729E+03  0.39725777729E+03  0.00000000000E+00 0. -1.
         -6    2    1    2    0  503 -0.41049500905E+02  0.74868077273E+01 -0.17560277612E+03  0.25152287512E+03  0.17517507789E+03 0.  0.
        -24    2    3    3    0    0 -0.21364766403E+02 -0.53443834817E+02 -0.15611692993E+03  0.18442727039E+03  0.79550144740E+02 0.  0.
          6    2    1    2  501    0  0.41049500905E+02 -0.74868077273E+01 -0.14112182900E+03  0.22626807434E+03  0.17187424772E+03 0.  0.
         24    2    5    5    0    0  0.29049117825E+02 -0.44388322341E+02 -0.19769237367E+02  0.98775829590E+02  0.80942370600E+02 0.  0.
          5    1    5    5  501    0  0.12000383081E+02  0.36901514614E+02 -0.12135259163E+03  0.12749224475E+03  0.47000000000E+01 0. -1.
        -13    1    6    6    0    0  0.10783630240E+02 -0.32158086430E+02 -0.50596831365E+02  0.60913615458E+02  0.00000000000E+00 0.  1.
         14    1    6    6    0    0  0.18265487585E+02 -0.12230235912E+02  0.30827593999E+02  0.37862214131E+02  0.00000000000E+00 0. -1.
         -5    1    3    3    0  503 -0.19684734502E+02  0.60930642544E+02 -0.19485846188E+02  0.67095604736E+02  0.47000000000E+01 0.  1.
         13    1    4    4    0    0 -0.26372701034E+02 -0.67892059486E+02 -0.86167518610E+02  0.11282593835E+03  0.00000000000E+00 0. -1.
        -14    1    4    4    0    0  0.50079346305E+01  0.14448224670E+02 -0.69949411322E+02  0.71601332038E+02  0.00000000000E+00 0.  1.
</event>
<event>
12    1  0.8133506E-002  0.1765851E+03  0.7818608E-02  0.1172970E+00
         21   -1    0    0  503  502  0.00000000000E+00  0.00000000000E+00  0.22246228222E+04  0.22246228222E+04  0.00000000000E+00 0.  1.
         21   -1    0    0  501  503 -0.00000000000E+00 -0.00000000000E+00 -0.37022008473E+02  0.37022008473E+02  0.00000000000E+00 0.  1.
          6    2    1    2  501    0  0.23552381560E+00 -0.50708145788E+02  0.18336359523E+03  0.24964355591E+03  0.16164258545E+03 0.  0.
         24    2    3    3    0    0 -0.20339196146E+02 -0.91019815276E+02  0.11999358252E+03  0.17162946546E+03  0.79749130996E+02 0.  0.
         -6    2    1    2    0  502 -0.23552381560E+00  0.50708145788E+02  0.20042372185E+04  0.20120012747E+04  0.16914765771E+03 0.  0.
        -24    2    5    5    0    0 -0.26570528804E+01  0.60142282050E+02  0.65406901920E+03  0.66178976424E+03  0.80840931248E+02 0.  0.
          5    1    3    3  501    0  0.20574719961E+02  0.40311669489E+02  0.63370012708E+02  0.78014090452E+02  0.47000000000E+01 0. -1.
        -11    1    4    4    0    0 -0.15906311198E+02  0.62010934995E+01 -0.74331319635E-01  0.17072487272E+02  0.00000000000E+00 0.  1.
         12    1    4    4    0    0 -0.44328849477E+01 -0.97220908776E+02  0.12006791384E+03  0.15455697818E+03  0.00000000000E+00 0. -1.
         -5    1    5    5    0  502  0.24215290648E+01 -0.94341362620E+01  0.13501681993E+04  0.13502115105E+04  0.47000000000E+01 0.  1.
         11    1    6    6    0    0  0.99386715339E+01 -0.16535242574E+02  0.71334396320E+02  0.73897141603E+02  0.00000000000E+00 0. -1.
        -12    1    6    6    0    0 -0.12595724414E+02  0.76677524623E+02  0.58273462288E+03  0.58789262264E+03  0.00000000000E+00 0.  1.
</event>
<event>
12    1  0.8133506E-002  0.2372973E+03  0.7818608E-02  0.1123195E+00
         21   -1    0    0  503  502  0.00000000000E+00  0.00000000000E+00  0.91586097399E+02  0.91586097399E+02  0.00000000000E+00 0. -1.
         21   -1    0    0  501  503 -0.00000000000E+00 -0.00000000000E+00 -0.89431555941E+03  0.89431555941E+03  0.00000000000E+00 0.  1.
          6    2    1    2  501    0  0.11727137265E+03  0.95218936797E+02 -0.69354854980E+03  0.73302086767E+03  0.18300486536E+03 0.  0.
         24    2    3    3    0    0  0.96833841046E+02  0.26857716456E+02 -0.21936840527E+03  0.25347957788E+03  0.77661248178E+02 0.  0.
         -6    2    1    2    0  502 -0.11727137265E+03 -0.95218936797E+02 -0.10918091221E+03  0.25288078914E+03  0.17090641052E+03 0.  0.
        -24    2    5    5    0    0 -0.36150314869E+02 -0.68554567650E+02 -0.12388983747E+03  0.16610488764E+03  0.78965611877E+02 0.  0.
          5    1    3    3  501    0  0.20437531601E+02  0.68361220341E+02 -0.47418014454E+03  0.47954128979E+03  0.47000000000E+01 0. -1.
        -13    1    4    4    0    0  0.16482521554E+02  0.49556215734E+01 -0.13071395689E+03  0.13184221717E+03  0.00000000000E+00 0.  1.
         14    1    4    4    0    0  0.80351319492E+02  0.21902094883E+02 -0.88654448379E+02  0.12163736072E+03  0.00000000000E+00 0. -1.
         -5    1    5    5    0  502 -0.81121057778E+02 -0.26664369147E+02  0.14708925265E+02  0.86775901491E+02  0.47000000000E+01 0.  1.
         13    1    6    6    0    0  0.71952740829E+01 -0.55649212471E+02 -0.34350094042E+02  0.65791608723E+02  0.00000000000E+00 0. -1.
        -14    1    6    6    0    0 -0.43345588952E+02 -0.12905355179E+02 -0.89539743432E+02  0.10031327892E+03  0.00000000000E+00 0.  1.
</event>
<event>
12    1  0.8133506E-002  0.2918597E+03  0.7818608E-02  0.1089390E+00
         21   -1    0    0  501  502  0.00000000000E+00  0.00000000000E+00  0.53410935927E+03  0.53410935927E+03  0.00000000000E+00 0.  1.
         21   -1    0    0  502  503 -0.00000000000E+00 -0.00000000000E+00 -0.25492840067E+03  0.25492840067E+03  0.00000000000E+00 0. -1.
         -6    2    1    2    0  503 -0.61132382728E+02  0.22844533004E+03 -0.10185894457E+03  0.30906535664E+03  0.17094359610E+03 0.  0.
        -24    2    3    3    0    0 -0.94312667883E+02  0.20692999385E+03 -0.11565496662E+03  0.26691964228E+03  0.78454588469E+02 0.  0.
          6    2    1    2  501    0  0.61132382728E+02 -0.22844533004E+03  0.38103990317E+03  0.47997240331E+03  0.17104871555E+03 0.  0.
         24    2    5    5    0    0  0.11823617061E+02 -0.63975352937E+02  0.70457006040E+02  0.12505614032E+03  0.80263346729E+02 0.  0.
          5    1    5    5  501    0  0.49308765667E+02 -0.16446997711E+03  0.31058289713E+03  0.35491626298E+03  0.47000000000E+01 0. -1.
        -13    1    6    6    0    0 -0.12942304619E+02 -0.70254440535E+02  0.69227875909E+02  0.99477075080E+02  0.00000000000E+00 0.  1.
         14    1    6    6    0    0  0.24765921680E+02  0.62790875977E+01  0.12291301313E+01  0.25579065241E+02  0.00000000000E+00 0. -1.
         -5    1    3    3    0  503  0.33180285155E+02  0.21515336193E+02  0.13796022048E+02  0.42145714359E+02  0.47000000000E+01 0.  1.
         13    1    4    4    0    0 -0.44242511733E+02  0.17143760895E+03 -0.69837651344E+02  0.19033011100E+03  0.00000000000E+00 0. -1.
        -14    1    4    4    0    0 -0.50070156151E+02  0.35492384901E+02 -0.45817315274E+02  0.76589531281E+02  0.00000000000E+00 0.  1.
</event>
<event>
12    1  0.8133506E-002  0.1777152E+03  0.7818608E-02  0.1170058E+00
         21   -1    0    0  503  502  0.00000000000E+00  0.00000000000E+00  0.24338071246E+03  0.24338071246E+03  0.00000000000E+00 0. -1.
         21   -1    0    0  501  503 -0.00000000000E+00 -0.00000000000E+00 -0.26753975504E+03  0.26753975504E+03  0.00000000000E+00 0. -1.
          6    2    1    2  501    0  0.27473449647E+02  0.37562292150E+02 -0.19545191954E+03  0.26416689738E+03  0.17151379127E+03 0.  0.
         24    2    3    3    0    0  0.25619279437E+02 -0.22167945868E+02 -0.18022206067E+03  0.20231887493E+03  0.85470291303E+02 0.  0.
         -6    2    1    2    0  502 -0.27473449647E+02 -0.37562292150E+02  0.17129287696E+03  0.24675357011E+03  0.17140699647E+03 0.  0.
        -24    2    5    5    0    0 -0.83186552338E+02 -0.26050509255E+02  0.13288729635E+03  0.17795277376E+03  0.80059506836E+02 0.  0.
          5    1    3    3  501    0  0.18541702094E+01  0.59730238018E+02 -0.15229858864E+02  0.61848022457E+02  0.47000000000E+01 0. -1.
        -13    1    4    4    0    0 -0.64111551839E+01 -0.11331603853E+02  0.50662004106E+01  0.13970488297E+02  0.00000000000E+00 0.  1.
         14    1    4    4    0    0  0.32030434621E+02 -0.10836342015E+02 -0.18528826109E+03  0.18834838663E+03  0.00000000000E+00 0. -1.
         -5    1    5    5    0  502  0.55713102691E+02 -0.11511782895E+02  0.38405580612E+02  0.68800796355E+02  0.47000000000E+01 0.  1.
         13    1    6    6    0    0  0.31984736303E+00  0.50785028638E+01  0.66823435026E+02  0.67016900572E+02  0.00000000000E+00 0. -1.
        -14    1    6    6    0    0 -0.83506399701E+02 -0.31129012118E+02  0.66063861322E+02  0.11093587318E+03  0.00000000000E+00 0.  1.
</event>
<event>
12    1  0.8133506E-002  0.3439830E+03  0.7818608E-02  0.1065606E+00
         21   -1    0    0  503  502  0.00000000000E+00  0.00000000000E+00  0.34876395522E+03  0.34876395522E+03  0.00000000000E+00 0.  1.
         21   -1    0    0  501  503 -0.00000000000E+00 -0.00000000000E+00 -0.89027169875E+03  0.89027169875E+03  0.00000000000E+00 0. -1.
          6    2    1    2  501    0  0.23179019527E+03  0.18818567870E+03 -0.76085520302E+03  0.83499995191E+03  0.17083247768E+03 0.  0.
         24    2    3    3    0    0  0.87603367072E+02  0.14156952515E+03 -0.50826019173E+03  0.54039982135E+03  0.77377412981E+02 0.  0.
         -6    2    1    2    0  502 -0.23179019527E+03 -0.18818567870E+03  0.21934745950E+03  0.40403570206E+03  0.16121723315E+03 0.  0.
        -24    2    5    5    0    0 -0.11943798563E+03 -0.30440889330E+02  0.88156177403E+02  0.17007057628E+03  0.77203686114E+02 0.  0.
          5    1    3    3  501    0  0.14418682819E+03  0.46616153544E+02 -0.25259501129E+03  0.29460013056E+03  0.47000000000E+01 0. -1.
        -13    1    4    4    0    0  0.73310606739E+02  0.56158644763E+02 -0.32221189251E+03  0.33518463885E+03  0.00000000000E+00 0.  1.
         14    1    4    4    0    0  0.14292760333E+02  0.85410880390E+02 -0.18604829922E+03  0.20521518250E+03  0.00000000000E+00 0. -1.
         -5    1    5    5    0  502 -0.11235220964E+03 -0.15774478937E+03  0.13119128210E+03  0.23396512578E+03  0.47000000000E+01 0.  1.
         13    1    6    6    0    0 -0.10435822373E+03 -0.38358250492E+02  0.99827079603E+02  0.14942369311E+03  0.00000000000E+00 0. -1.
        -14    1    6    6    0    0 -0.15079761891E+02  0.79173611624E+01 -0.11670902200E+02  0.20646883169E+02  0.00000000000E+00 0.  1.
</event>
<event>
12    1  0.8133506E-002  0.2004126E+03  0.7818608E-02  0.1149566E+00
         21   -1    0    0  501  502  0.00000000000E+00  0.00000000000E+00  0.12631281578E+04  0.12631281578E+04  0.00000000000E+00 0.  1.
         21   -1    0    0  502  503 -0.00000000000E+00 -0.00000000000E+00 -0.32897519015E+02  0.32897519015E+02  0.00000000000E+00 0. -1.
         -6    2    1    2    0  503 -0.91580169914E+02 -0.45510500452E+02  0.74167531436E+03  0.76827565044E+03  0.17235739019E+03 0.  0.
        -24    2    3    3    0    0  0.18554629835E+02 -0.15997798200E+02  0.37927192606E+03  0.38832962853E+03  0.79702588825E+02 0.  0.
          6    2    1    2  501    0  0.91580169914E+02  0.45510500452E+02  0.48855532444E+03  0.52775002640E+03  0.17139326750E+03 0.  0.
         24    2    5    5    0    0  0.15579445401E+02  0.51053801549E+01  0.38199592522E+03  0.39068916606E+03  0.80301641124E+02 0.  0.
          5    1    5    5  501    0  0.76000724512E+02  0.40405120297E+02  0.10655939923E+03  0.13706086034E+03  0.47000000000E+01 0. -1.
        -13    1    6    6    0    0  0.30612520121E+02 -0.75570472942E+01  0.35923465922E+03  0.36061582846E+03  0.00000000000E+00 0.  1.
         14    1    6    6    0    0 -0.15033074720E+02  0.12662427449E+02  0.22761265998E+02  0.30073337597E+02  0.00000000000E+00 0. -1.
         -5    1    3    3    0  503 -0.11013479975E+03 -0.29512702252E+02  0.36240338830E+03  0.37994602191E+03  0.47000000000E+01 0.  1.
         11    1    4    4    0    0 -0.30023379714E+02 -0.16792561782E+02  0.17620110609E+03  0.17952777849E+03  0.00000000000E+00 0. -1.
        -12    1    4    4    0    0  0.48578009548E+02  0.79476358165E+00  0.20307081997E+03  0.20880185005E+03  0.00000000000E+00 0.  1.
</event>
<event>
12    1  0.8133506E-002  0.1834525E+03  0.7818608E-02  0.1164554E+00
         21   -1    0    0  503  502  0.00000000000E+00  0.00000000000E+00  0.70934344423E+03  0.70934344423E+03  0.00000000000E+00 0. -1.
         21   -1    0    0  501  503 -0.00000000000E+00 -0.00000000000E+00 -0.11640184024E+03  0.11640184024E+03  0.00000000000E+00 0. -1.
          6    2    1    2  501    0 -0.13698348716E+02 -0.65577053418E+02 -0.21508510191E+02  0.18449357033E+03  0.17054989531E+03 0.  0.
         24    2    3    3    0    0 -0.49401104965E+02  0.14044050097E+02 -0.14558675725E+02  0.96831736400E+02  0.80788152723E+02 0.  0.
         -6    2    1    2    0  502  0.13698348716E+02  0.65577053418E+02  0.61445011418E+03  0.64125171414E+03  0.17078297157E+03 0.  0.
        -24    2    5    5    0    0  0.36429916135E+02  0.76316170610E+02  0.24470851579E+03  0.27062657687E+03  0.78773026617E+02 0.  0.
          5    1    3    3  501    0  0.35702756249E+02 -0.79621103514E+02 -0.69498344661E+01  0.87661833929E+02  0.47000000000E+01 0. -1.
        -11    1    4    4    0    0  0.97429435445E+01  0.30576560189E+02  0.47849026009E+01  0.32446051760E+02  0.00000000000E+00 0.  1.
         12    1    4    4    0    0 -0.59144048509E+02 -0.16532510093E+02 -0.19343578325E+02  0.64385684639E+02  0.00000000000E+00 0. -1.
         -5    1    5    5    0  502 -0.22731567419E+02 -0.10739117192E+02  0.36974159839E+03  0.37062513727E+03  0.47000000000E+01 0.  1.
         11    1    6    6    0    0  0.27298979492E+02  0.62159091003E+02  0.24453011351E+03  0.25377935946E+03  0.00000000000E+00 0. -1.
        -12    1    6    6    0    0  0.91309366425E+01  0.14157079607E+02  0.17840227770E+00  0.16847217406E+02  0.00000000000E+00 0.  1.
</event>
<event>
12    1  0.8133506E-002  0.2189581E+03  0.7818608E-02  0.1134898E+00
         21   -1    0    0  503  502  0.00000000000E+00  0.00000000000E+00  0.62055763461E+03  0.62055763461E+03  0.00000000000E+00 0. -1.
         21   -1    0    0  501  503 -0.00000000000E+00 -0.00000000000E+00 -0.12115520610E+03  0.12115520610E+03  0.00000000000E+00 0. -1.
          6    2    1    2  501    0 -0.12485325547E+03 -0.46835869508E+02  0.24895848664E+02  0.21912395912E+03  0.17208594395E+03 0.  0.
         24    2    3    3    0    0 -0.41156592094E+02  0.21653827438E+02  0.53996147082E+02  0.10703075051E+03  0.79857650478E+02 0.  0.
         -6    2    1    2    0  502  0.12485325547E+03  0.46835869508E+02  0.47450657984E+03  0.52258888158E+03  0.17366839311E+03 0.  0.
        -24    2    5    5    0    0  0.10531999423E+02 -0.20973740033E+02  0.14356625870E+03  0.16592226009E+03  0.79800407098E+02 0.  0.
          5    1    3    3  501    0 -0.83696663376E+02 -0.68489696946E+02 -0.29100298418E+02  0.11209320861E+03  0.47000000000E+01 0. -1.
        -11    1    4    4    0    0  0.17302946896E+02  0.27628552655E+02  0.27150581433E+02  0.42425027581E+02  0.00000000000E+00 0.  1.
         12    1    4    4    0    0 -0.58459538991E+02 -0.59747252168E+01  0.26845565650E+02  0.64605722931E+02  0.00000000000E+00 0. -1.
         -5    1    5    5    0  502  0.11432125605E+03  0.67809609541E+02  0.33094032115E+03  0.35666662150E+03  0.47000000000E+01 0.  1.
         13    1    6    6    0    0  0.20823473261E+02  0.26985743369E+02  0.61496579663E+02  0.70311284258E+02  0.00000000000E+00 0. -1.
        -14    1    6    6    0    0 -0.10291473838E+02 -0.47959483402E+02  0.82069679034E+02  0.95610975827E+02  0.00000000000E+00 0.  1.
</event>
<event>
12    1  0.8133506E-002  0.1922310E+03  0.7818608E-02  0.1157606E+00
         21   -1    0    0  501  502  0.00000000000E+00  0.00000000000E+00  0.65676100755E+03  0.65676100755E+03  0.00000000000E+00 0.  1.
         21   -1    0    0  502  503 -0.00000000000E+00 -0.00000000000E+00 -0.67535868174E+02  0.67535868174E+02  0.00000000000E+00 0.  1.
         -6    2    1    2    0  503  0.53709319624E+02  0.46264934072E+02  0.45511122271E+03  0.49404349731E+03  0.17868300721E+03 0.  0.
        -24    2    3    3    0    0  0.12478534038E+01  0.63647724270E+02  0.40928664858E+03  0.42209665286E+03  0.81224588072E+02 0.  0.
          6    2    1    2  501    0 -0.53709319624E+02 -0.46264934072E+02  0.13411391667E+03  0.23025337842E+03  0.17321934213E+03 0.  0.
         24    2    5    5    0    0 -0.10322002475E+03 -0.26701582483E+02  0.87575407576E+02  0.15938760758E+03  0.79797302096E+02 0.  0.
          5    1    5    5  501    0  0.49510705123E+02 -0.19563351589E+02  0.46538509098E+02  0.70865770836E+02  0.47000000000E+01 0. -1.
        -13    1    6    6    0    0 -0.14105023188E+02 -0.33425867910E+02  0.51537623268E+02  0.63026716055E+02  0.00000000000E+00 0.  1.
         14    1    6    6    0    0 -0.89115001559E+02  0.67242854272E+01  0.36037784309E+02  0.96360891524E+02  0.00000000000E+00 0. -1.
         -5    1    3    3    0  503  0.52461466220E+02 -0.17382790198E+02  0.45824574129E+02  0.71946844456E+02  0.47000000000E+01 0.  1.
         11    1    4    4    0    0 -0.25016760241E+02  0.13628496218E+02  0.43668317934E+02  0.52139200160E+02  0.00000000000E+00 0. -1.
        -12    1    4    4    0    0  0.26264613644E+02  0.50019228052E+02  0.36561833064E+03  0.36995745270E+03  0.00000000000E+00 0.  1.
</event>
<event>
12    1  0.8133506E-002  0.1814324E+03  0.7818608E-02  0.1166464E+00
         21   -1    0    0  503  502  0.00000000000E+00  0.00000000000E+00  0.27833230923E+02  0.27833230923E+02  0.00000000000E+00 0. -1.
         21   -1    0    0  501  503 -0.00000000000E+00 -0.00000000000E+00 -0.11997354103E+04  0.11997354103E+04  0.00000000000E+00 0. -1.
          6    2    1    2  501    0  0.42445496104E+02  0.39886051934E+02 -0.51071488424E+03  0.54198467843E+03  0.17182893062E+03 0.  0.
         24    2    3    3    0    0  0.42872086817E+02 -0.35247067928E+01 -0.13218989731E+03  0.16094933666E+03  0.81117696184E+02 0.  0.
         -6    2    1    2    0  502 -0.42445496104E+02 -0.39886051934E+02 -0.66118729514E+03  0.68558396279E+03  0.17165143023E+03 0.  0.
        -24    2    5    5    0    0 -0.78574642098E+00  0.39472425684E+02 -0.29237642865E+03  0.30600940101E+03  0.81234768946E+02 0.  0.
          5    1    3    3  501    0 -0.42659071306E+00  0.43410758727E+02 -0.37852498693E+03  0.38103534178E+03  0.47000000000E+01 0. -1.
        -11    1    4    4    0    0 -0.84237517488E+01 -0.47733262035E+01 -0.99804088849E+02  0.10027263030E+03  0.00000000000E+00 0.  1.
         12    1    4    4    0    0  0.51295838566E+02  0.12486194107E+01 -0.32385808456E+02  0.60676706354E+02  0.00000000000E+00 0. -1.
         -5    1    5    5    0  502 -0.41659749683E+02 -0.79358477618E+02 -0.36881086649E+03  0.37957456179E+03  0.47000000000E+01 0.  1.
         13    1    6    6    0    0 -0.30828922403E+02 -0.78272835166E+01 -0.14234742240E+03  0.14585773030E+03  0.00000000000E+00 0. -1.
        -14    1    6    6    0    0  0.30043175982E+02  0.47299709201E+02 -0.15002900626E+03  0.16015167071E+03  0.00000000000E+00 0.  1.
</event>
<event>
12    1  0.8133506E-002  0.1961324E+03  0.7818608E-02  0.1153328E+00
         21   -1    0    0  503  502  0.00000000000E+00  0.00000000000E+00  0.86425940419E+03  0.86425940419E+03  0.00000000000E+00 0.  1.
         21   -1    0    0  501  503 -0.00000000000E+00 -0.00000000000E+00 -0.61656915520E+02  0.61656915520E+02  0.00000000000E+00 0.  1.
          6    2    1    2  501    0  0.90371213998E+02  0.18845295071E+02  0.15408635637E+03  0.24839061399E+03  0.17156103995E+03 0.  0.
         24    2    3    3    0    0  0.86351067752E+02  0.73796514126E+02  0.11999799486E+03  0.18342982241E+03  0.79652674655E+02 0.  0.
         -6    2    1    2    0  502 -0.90371213998E+02 -0.18845295071E+02  0.64851613229E+03  0.67752570572E+03  0.17304856718E+03 0.  0.
        -24    2    5    5    0    0 -0.75873913625E+02  0.53629154591E+02  0.44740878183E+03  0.46321524405E+03  0.75899982016E+02 0.  0.
          5    1    3    3  501    0  0.40201462458E+01 -0.54951219055E+02  0.34088361512E+02  0.64960791575E+02  0.47000000000E+01 0. -1.
        -11    1    4    4    0    0  0.45059837193E+02  0.29785066857E+02  0.58749689778E+01  0.54332811412E+02  0.00000000000E+00 0.  1.
         12    1    4    4    0    0  0.41291230560E+02  0.44011447270E+02  0.11412302588E+03  0.12909701100E+03  0.00000000000E+00 0. -1.
         -5    1    5    5    0  502 -0.14497300373E+02 -0.72474449663E+02  0.20110735046E+03  0.21431046167E+03  0.47000000000E+01 0.  1.
         11    1    6    6    0    0 -0.40457063787E+02 -0.13060294470E+02  0.12318729929E+03  0.13031675260E+03  0.00000000000E+00 0. -1.
        -12    1    6    6    0    0 -0.35416849839E+02  0.66689449062E+02  0.32422148254E+03  0.33289849145E+03  0.00000000000E+00 0.  1.
</event>
<event>
12    1  0.8133506E-002  0.1831454E+03  0.7818608E-02  0.1166778E+00
         21   -1    0    0  501  502  0.00000000000E+00  0.00000000000E+00  0.12898668015E+03  0.12898668015E+03  0.00000000000E+00 0. -1.
         21   -1    0    0  502  503 -0.00000000000E+00 -0.00000000000E+00 -0.34322593763E+03  0.34322593763E+03  0.00000000000E+00 0. -1.
         -6    2    1    2    0  503 -0.27769556685E+02  0.20377843266E+02 -0.23287526719E+03  0.29626530445E+03  0.17987727978E+03 0.  0.
        -24    2    3    3    0    0  0.29913797696E+02  0.34698546777E+02 -0.21520837191E+03  0.23408282211E+03  0.79883038405E+02 0.  0.
          6    2    1    2  501    0  0.27769556685E+02 -0.20377843266E+02  0.18636009708E+02  0.17594731333E+03  0.17153352860E+03 0.  0.
         24    2    5    5    0    0  0.11282916481E+00 -0.71397059024E+02  0.31994476734E+02  0.11621128069E+03  0.85929403877E+02 0.  0.
          5    1    5    5  501    0  0.27656727520E+02  0.51019215759E+02 -0.13358467026E+02  0.59736032636E+02  0.47000000000E+01 0. -1.
        -11    1    6    6    0    0 -0.26407535905E+02  0.36326951606E+00  0.29600670888E+02  0.39669757175E+02  0.00000000000E+00 0.  1.
         12    1    6    6    0    0  0.26520365070E+02 -0.71760328540E+02  0.23938058460E+01  0.76541523516E+02  0.00000000000E+00 0. -1.
         -5    1    3    3    0  503 -0.57683354381E+02 -0.14320703512E+02 -0.17666895278E+02  0.62182482344E+02  0.47000000000E+01 0.  1.
         13    1    4    4    0    0 -0.21856068973E+02 -0.85957649813E+01 -0.72760675223E+02  0.76457117298E+02  0.00000000000E+00 0. -1.
        -14    1    4    4    0    0  0.51769866669E+02  0.43294311759E+02 -0.14244769669E+03  0.15762570481E+03  0.00000000000E+00 0.  1.
</event>
<event>
12    1  0.8133506E-002  0.2715066E+03  0.7818608E-02  0.1100737E+00
         21   -1    0    0  503  502  0.00000000000E+00  0.00000000000E+00  0.13254874450E+04  0.13254874450E+04  0.00000000000E+00 0. -1.
         21   -1    0    0  501  503 -0.00000000000E+00 -0.00000000000E+00 -0.55160658412E+02  0.55160658412E+02  0.00000000000E+00 0.  1.
          6    2    1    2  501    0  0.66032956420E+02 -0.19968408560E+03  0.63774464903E+03  0.69313351621E+03  0.17170250016E+03 0.  0.
         24    2    3    3    0    0  0.97486333523E+02 -0.64076187177E+02  0.36396922982E+03  0.38596273764E+03  0.53705601259E+02 0.  0.
         -6    2    1    2    0  502 -0.66032956420E+02  0.19968408560E+03  0.63258213755E+03  0.68751458719E+03  0.16817271321E+03 0.  0.
        -24    2    5    5    0    0 -0.75780215231E+02  0.59368766465E+02  0.35483973862E+03  0.37615253426E+03  0.79449339037E+02 0.  0.
          5    1    3    3  501    0 -0.31453377103E+02 -0.13560789843E+03  0.27377541920E+03  0.30717077857E+03  0.47000000000E+01 0. -1.
        -13    1    4    4    0    0  0.43349849302E+02 -0.67543576343E+01  0.18938214411E+03  0.19439760104E+03  0.00000000000E+00 0.  1.
         14    1    4    4    0    0  0.54136484221E+02 -0.57321829543E+02  0.17458708571E+03  0.19156513660E+03  0.00000000000E+00 0. -1.
         -5    1    5    5    0  502  0.97472588113E+01  0.14031531914E+03  0.27774239893E+03  0.31136205293E+03  0.47000000000E+01 0.  1.
         11    1    6    6    0    0 -0.14678276397E+02  0.56293176834E+02  0.22835451176E+03  0.23564837491E+03  0.00000000000E+00 0. -1.
        -12    1    6    6    0    0 -0.61101938834E+02  0.30755896311E+01  0.12648522686E+03  0.14050415935E+03  0.00000000000E+00 0.  1.
</event>
<event>
12    1  0.8133506E-002  0.1941756E+03  0.7818608E-02  0.1155293E+00
         21   -1    0    0  503  502  0.00000000000E+00  0.00000000000E+00  0.91310693339E+02  0.91310693339E+02  0.00000000000E+00 0.  1.
         21   -1    0    0  501  503 -0.00000000000E+00 -0.00000000000E+00 -0.51594170464E+03  0.51594170464E+03  0.00000000000E+00 0.  1.
          6    2    1    2  501    0 -0.83774408429E+02 -0.64984084610E+01 -0.35246128842E+03  0.40240915957E+03  0.17505368047E+03 0.  0.
         24    2    3    3    0    0 -0.21797356029E+02  0.61670390312E+02 -0.18974609602E+03  0.21536247024E+03  0.78096420286E+02 0.  0.
         -6    2    1    2    0  502  0.83774408429E+02  0.64984084610E+01 -0.72169722877E+02  0.20484323841E+03  0.17231338486E+03 0.  0.
        -24    2    5    5    0    0  0.70416322638E+02 -0.52608265445E+02 -0.13731734885E+02  0.12052760643E+03  0.81315775104E+02 0.  0.
          5    1    3    3  501    0 -0.61977052400E+02 -0.68168798773E+02 -0.16271519240E+03  0.18704668933E+03  0.47000000000E+01 0. -1.
        -13    1    4    4    0    0 -0.29550327173E+02 -0.51881712424E+01 -0.91332278060E+02  0.96133885662E+02  0.00000000000E+00 0.  1.
         14    1    4    4    0    0  0.77529711445E+01  0.66858561554E+02 -0.98413817959E+02  0.11922858458E+03  0.00000000000E+00 0. -1.
         -5    1    5    5    0  502  0.13358085791E+02  0.59106673906E+02 -0.58437987992E+02  0.84315631983E+02  0.47000000000E+01 0.  1.
         13    1    6    6    0    0 -0.16680417241E+02  0.13101929028E+01 -0.60965939594E+01  0.17807902254E+02  0.00000000000E+00 0. -1.
        -14    1    6    6    0    0  0.87096739879E+02 -0.53918458348E+02 -0.76351409260E+01  0.10271970417E+03  0.00000000000E+00 0.  1.
</event>
<event>
12    1  0.8133506E-002  0.1879324E+03  0.7818608E-02  0.1161766E+00
         21   -1    0    0  501  502  0.00000000000E+00  0.00000000000E+00  0.11535976617E+03  0.11535976617E+03  0.00000000000E+00 0. -1.
         21   -1    0    0  502  503 -0.00000000000E+00 -0.00000000000E+00 -0.31912795433E+03  0.31912795433E+03  0.00000000000E+00 0. -1.
         -6    2    1    2    0  503  0.60108375528E+02 -0.44880045791E+02 -0.16160236696E+03  0.24785867761E+03  0.17231182124E+03 0.  0.
        -24    2    3    3    0    0  0.12579044625E+02 -0.77701629448E+02 -0.15035349886E+03  0.18882546083E+03  0.82783479363E+02 0.  0.
          6    2    1    2  501    0 -0.60108375528E+02  0.44880045791E+02 -0.42165821191E+02  0.18662904290E+03  0.16560557918E+03 0.  0.
         24    2    5    5    0    0 -0.83306659669E+02 -0.89840054422E+01 -0.30773401190E+01  0.11599268006E+03  0.80150607646E+02 0.  0.
          5    1    5    5  501    0  0.23198284141E+02  0.53864051233E+02 -0.39088481072E+02  0.70636362837E+02  0.47000000000E+01 0. -1.
        -11    1    6    6    0    0 -0.17142354400E+02 -0.38613124208E+02  0.69226773589E+01  0.42810712880E+02  0.00000000000E+00 0.  1.
         12    1    6    6    0    0 -0.66164305269E+02  0.29629118766E+02 -0.10000017478E+02  0.73181967178E+02  0.00000000000E+00 0. -1.
         -5    1    3    3    0  503  0.47529330903E+02  0.32821583657E+02 -0.11248868105E+02  0.59033216781E+02  0.47000000000E+01 0.  1.
         13    1    4    4    0    0 -0.28130614548E+02 -0.45631417278E+02 -0.11259572267E+03  0.12470506999E+03  0.00000000000E+00 0. -1.
        -14    1    4    4    0    0  0.40709659174E+02 -0.32070212169E+02 -0.37757776191E+02  0.64120390840E+02  0.00000000000E+00 0.  1.
</event>
<event>
12    1  0.8133506E-002  0.2051347E+03  0.7818608E-02  0.1147355E+00
         21   -1    0    0  503  502  0.00000000000E+00  0.00000000000E+00  0.77450397711E+02  0.77450397711E+02  0.00000000000E+00 0. -1.
         21   -1    0    0  501  503 -0.00000000000E+00 -0.00000000000E+00 -0.64076881737E+03  0.64076881737E+03  0.00000000000E+00 0. -1.
          6    2    1    2  501    0 -0.16570494605E+02 -0.93506561702E+02 -0.12054641129E+03  0.23023633369E+03  0.17163704059E+03 0.  0.
         24    2    3    3    0    0  0.33677798699E+02 -0.39325028814E+02 -0.98896547689E+01  0.97091535634E+02  0.81537163330E+02 0.  0.
         -6    2    1    2    0  502  0.16570494605E+02  0.93506561702E+02 -0.44277200837E+03  0.48798288139E+03  0.18183009311E+03 0.  0.
        -24    2    5    5    0    0  0.31141349566E+02  0.13367488443E+03 -0.35309630685E+03  0.38853628563E+03  0.86282587818E+02 0.  0.
          5    1    3    3  501    0 -0.50248293304E+02 -0.54181532888E+02 -0.11065675652E+03  0.13314479806E+03  0.47000000000E+01 0. -1.
        -11    1    4    4    0    0 -0.11045095230E+02  0.70966494966E+01 -0.27324848218E+02  0.30315076989E+02  0.00000000000E+00 0.  1.
         12    1    4    4    0    0  0.44722893930E+02 -0.46421678311E+02  0.17435193449E+02  0.66776458645E+02  0.00000000000E+00 0. -1.
         -5    1    5    5    0  502 -0.14570854961E+02 -0.40168322726E+02 -0.89675701519E+02  0.99446595758E+02  0.47000000000E+01 0.  1.
         13    1    6    6    0    0  0.35516750410E+02  0.31162084708E+02 -0.19049817935E+03  0.19627040382E+03  0.00000000000E+00 0. -1.
        -14    1    6    6    0    0 -0.43754008438E+01  0.10251279972E+03 -0.16259812750E+03  0.19226588180E+03  0.00000000000E+00 0.  1.
</event>
<event>
12    1  0.8133506E-002  0.1745434E+03  0.7818608E-02  0.1173577E+00
         21   -1    0    0  501  502  0.00000000000E+00  0.00000000000E+00  0.93097665282E+02  0.93097665282E+02  0.00000000000E+00 0.  1.
         21   -1    0    0  502  503 -0.00000000000E+00 -0.00000000000E+00 -0.43478609946E+03  0.43478609946E+03  0.00000000000E+00 0.  1.
         -6    2    1    2    0  503 -0.14179557353E+02 -0.10601613842E+02 -0.30440054877E+03  0.35089187233E+03  0.17364319139E+03 0.  0.
        -24    2    3    3    0    0  0.56789135266E+02  0.20297723713E+02 -0.16862590759E+03  0.19453277416E+03  0.75969072919E+02 0.  0.
          6    2    1    2  501    0  0.14179557353E+02  0.10601613842E+02 -0.37287885412E+02  0.17699189241E+03  0.17211127075E+03 0.  0.
         24    2    5    5    0    0 -0.18759701414E+01 -0.16557285234E+02 -0.91867062574E+02  0.11377510396E+03  0.65019644246E+02 0.  0.
          5    1    5    5  501    0  0.16055527494E+02  0.27158899076E+02  0.54579177162E+02  0.63216788449E+02  0.47000000000E+01 0. -1.
        -13    1    6    6    0    0 -0.27833544312E+02  0.85903273742E+01 -0.28073691942E+02  0.40455309820E+02  0.00000000000E+00 0.  1.
         14    1    6    6    0    0  0.25957574171E+02 -0.25147612608E+02 -0.63793370632E+02  0.73319794144E+02  0.00000000000E+00 0. -1.
         -5    1    3    3    0  503 -0.70968692619E+02 -0.30899337554E+02 -0.13577464118E+03  0.15635909817E+03  0.47000000000E+01 0.  1.
         11    1    4    4    0    0  0.85493843283E+00  0.89723408233E+01  0.59937358979E+01  0.10823986770E+02  0.00000000000E+00 0. -1.
        -12    1    4    4    0    0  0.55934196833E+02  0.11325382890E+02 -0.17461964349E+03  0.18370878739E+03  0.00000000000E+00 0.  1.
</event>
<event>
12    1  0.8133506E-002  0.2781395E+03  0.7818608E-02  0.1097888E+00
         21   -1    0    0  503  502  0.00000000000E+00  0.00000000000E+00  0.88975470990E+02  0.88975470990E+02  0.00000000000E+00 0.  1.
         21   -1    0    0  501  503 -0.00000000000E+00 -0.00000000000E+00 -0.85168703770E+03  0.85168703770E+03  0.00000000000E+00 0. -1.
          6    2    1    2  501    0 -0.12793799820E+03  0.16444215715E+03 -0.43367259052E+03  0.51520240208E+03  0.18426134949E+03 0.  0.
         24    2    3    3    0    0 -0.73091110588E+02  0.74303676508E+02 -0.96696601593E+02  0.16206215532E+03  0.77785362616E+02 0.  0.
         -6    2    1    2    0  502  0.12793799820E+03 -0.16444215715E+03 -0.32903897619E+03  0.42546010661E+03  0.17129010488E+03 0.  0.
        -24    2    5    5    0    0  0.11797755506E+03 -0.44248159083E+02 -0.17851173287E+03  0.23251879797E+03  0.79510688299E+02 0.  0.
          5    1    3    3  501    0 -0.54846887607E+02  0.90138480643E+02 -0.33697598893E+03  0.35314024676E+03  0.47000000000E+01 0. -1.
        -11    1    4    4    0    0  0.55212158029E+00  0.69091898319E+01  0.12387659037E+02  0.14194922993E+02  0.00000000000E+00 0.  1.
         12    1    4    4    0    0 -0.73643232168E+02  0.67394486676E+02 -0.10908426063E+03  0.14786723233E+03  0.00000000000E+00 0. -1.
         -5    1    5    5    0  502  0.99604431328E+01 -0.12019399807E+03 -0.15052724332E+03  0.19294130864E+03  0.47000000000E+01 0.  1.
         13    1    6    6    0    0  0.84543801206E+02 -0.67489770802E+02 -0.12593823096E+03  0.16602096706E+03  0.00000000000E+00 0. -1.
        -14    1    6    6    0    0  0.33433753856E+02  0.23241611719E+02 -0.52573501912E+02  0.66497830909E+02  0.00000000000E+00 0.  1.
</event>
<event>
12    1  0.8133506E-002  0.3262493E+03  0.7818608E-02  0.1073348E+00
         21   -1    0    0  501  502  0.00000000000E+00  0.00000000000E+00  0.31668668340E+03  0.31668668340E+03  0.00000000000E+00 0. -1.
         21   -1    0    0  502  503 -0.00000000000E+00 -0.00000000000E+00 -0.48524355877E+03  0.48524355877E+03  0.00000000000E+00 0. -1.
         -6    2    1    2    0  503 -0.16519667295E+03 -0.22283022984E+03 -0.31061109172E+03  0.45046406030E+03  0.17174215335E+03 0.  0.
        -24    2    3    3    0    0 -0.41829541272E+02 -0.20098266853E+02 -0.85289943613E+02  0.12318526817E+03  0.75806232978E+02 0.  0.
          6    2    1    2  501    0  0.16519667295E+03  0.22283022984E+03  0.14205421635E+03  0.35146618186E+03  0.16249869084E+03 0.  0.
         24    2    5    5    0    0  0.73616657434E+02  0.60084689047E+02  0.10191122691E+03  0.16039928286E+03  0.79450926136E+02 0.  0.
          5    1    5    5  501    0  0.91580015521E+02  0.16274554079E+03  0.40142989443E+02  0.19106689900E+03  0.47000000000E+01 0. -1.
        -13    1    6    6    0    0  0.40934374447E+01  0.10138450343E+02  0.67104265855E+02  0.67989167530E+02  0.00000000000E+00 0.  1.
         14    1    6    6    0    0  0.69523219989E+02  0.49946238704E+02  0.34806961054E+02  0.92410115335E+02  0.00000000000E+00 0. -1.
         -5    1    3    3    0  503 -0.12336713168E+03 -0.20273196299E+03 -0.22532114811E+03  0.32727879214E+03  0.47000000000E+01 0.  1.
         11    1    4    4    0    0 -0.43379804868E+02 -0.43675139574E+02 -0.44185855108E+02  0.75774105596E+02  0.00000000000E+00 0. -1.
        -12    1    4    4    0    0  0.15502635960E+01  0.23576872721E+02 -0.41104088505E+02  0.47411162571E+02  0.00000000000E+00 0.  1.
</event>
<event>
12    1  0.8133506E-002  0.2663795E+03  0.7818608E-02  0.1103629E+00
         21   -1    0    0  503  502  0.00000000000E+00  0.00000000000E+00  0.30965680990E+03  0.30965680990E+03  0.00000000000E+00 0.  1.
         21   -1    0    0  501  503 -0.00000000000E+00 -0.00000000000E+00 -0.26225740556E+03  0.26225740556E+03  0.00000000000E+00 0. -1.
          6    2    1    2  501    0 -0.10573811475E+03 -0.17342093185E+03 -0.80142329374E+02  0.27817409190E+03  0.17234460808E+03 0.  0.
         24    2    3    3    0    0 -0.14261264497E+03 -0.13824606422E+03 -0.56435156624E+02  0.22177265281E+03  0.80918736103E+02 0.  0.
         -6    2    1    2    0  502  0.10573811475E+03  0.17342093185E+03  0.12754173372E+03  0.29374012355E+03  0.16959067731E+03 0.  0.
        -24    2    5    5    0    0  0.42714835421E+02  0.20236462393E+02  0.16711338466E+02  0.94383955023E+02  0.79968684854E+02 0.  0.
          5    1    3    3  501    0  0.36874530223E+02 -0.35174867629E+02 -0.23707172750E+02  0.56401439093E+02  0.47000000000E+01 0. -1.
        -13    1    4    4    0    0 -0.82380904156E+02 -0.97351805345E+02  0.33408106343E+01  0.12757408980E+03  0.00000000000E+00 0.  1.
         14    1    4    4    0    0 -0.60231740816E+02 -0.40894258875E+02 -0.59775967258E+02  0.94198563006E+02  0.00000000000E+00 0. -1.
         -5    1    5    5    0  502  0.63023279327E+02  0.15318446946E+03  0.11083039525E+03  0.19935616853E+03  0.47000000000E+01 0.  1.
         13    1    6    6    0    0  0.13029606779E+01  0.59010010016E+01 -0.29842816079E+02  0.30448533476E+02  0.00000000000E+00 0. -1.
        -14    1    6    6    0    0  0.41411874744E+02  0.14335461392E+02  0.46554154544E+02  0.63935421547E+02  0.00000000000E+00 0.  1.
</event>
<event>
12    1  0.8133506E-002  0.1750756E+03  0.7818608E-02  0.1172842E+00
         21   -1    0    0  501  502  0.00000000000E+00  0.00000000000E+00  0.22323331581E+04  0.22323331581E+04  0.00000000000E+00 0.  1.
         21   -1    0    0  502  503 -0.00000000000E+00 -0.00000000000E+00 -0.75646752888E+02  0.75646752888E+02  0.00000000000E+00 0.  1.
         -6    2    1    2    0  503 -0.53460892664E+01  0.28417073243E+02  0.33421179790E+02  0.17750890902E+03  0.17191953583E+03 0.  0.
        -24    2    3    3    0    0 -0.32011714969E+02 -0.40925137381E+02  0.41744828295E+02  0.10260382980E+03  0.78008322862E+02 0.  0.
          6    2    1    2  501    0  0.53460892664E+01 -0.28417073243E+02  0.21232652254E+04  0.21304710020E+04  0.17267125417E+03 0.  0.
         24    2    5    5    0    0 -0.44002592636E+02 -0.48211856684E+02  0.17936933258E+04  0.17966044824E+04  0.78684864713E+02 0.  0.
          5    1    5    5  501    0  0.49348681902E+02  0.19794783442E+02  0.32957189965E+03  0.33386651958E+03  0.47000000000E+01 0. -1.
        -13    1    6    6    0    0 -0.37738713318E+01  0.13974215046E+01  0.10927025148E+04  0.10927099253E+04  0.00000000000E+00 0.  1.
         14    1    6    6    0    0 -0.40228721304E+02 -0.49609278189E+02  0.70099081094E+03  0.70389455711E+03  0.00000000000E+00 0. -1.
         -5    1    3    3    0  503  0.26665625703E+02  0.69342210623E+02 -0.83236485053E+01  0.74905079218E+02  0.47000000000E+01 0.  1.
         13    1    4    4    0    0 -0.23079662878E+02  0.10325571762E+02  0.43762467562E+02  0.50541486305E+02  0.00000000000E+00 0. -1.
        -14    1    4    4    0    0 -0.89320520906E+01 -0.51250709142E+02 -0.20176392668E+01  0.52062343497E+02  0.00000000000E+00 0.  1.
</event>
<event>
12    1  0.8133506E-002  0.1783346E+03  0.7818608E-02  0.1171040E+00
         21   -1    0    0  501  502  0.00000000000E+00  0.00000000000E+00  0.41029607091E+02  0.41029607091E+02  0.00000000000E+00 0. -1.
         21   -1    0    0  502  503 -0.00000000000E+00 -0.00000000000E+00 -0.84246888960E+03  0.84246888960E+03  0.00000000000E+00 0. -1.
         -6    2    1    2    0  503 -0.15013110826E+02 -0.39455819491E+02 -0.24568729903E+03  0.29983463706E+03  0.16660253746E+03 0.  0.
        -24    2    3    3    0    0  0.50817243341E+02 -0.46555527546E+02 -0.14707223022E+03  0.18096048856E+03  0.79791278677E+02 0.  0.
          6    2    1    2  501    0  0.15013110826E+02  0.39455819491E+02 -0.55575198347E+03  0.58366385963E+03  0.17326591907E+03 0.  0.
         24    2    5    5    0    0  0.23865897301E+02  0.69231937810E+02 -0.53507712480E+03  0.54605363719E+03  0.80649878733E+02 0.  0.
          5    1    5    5  501    0 -0.88527864754E+01 -0.29776118319E+02 -0.20674858675E+02  0.37610222437E+02  0.47000000000E+01 0. -1.
        -13    1    6    6    0    0 -0.54869304197E+01  0.43676005877E+02 -0.10025464793E+03  0.10949289624E+03  0.00000000000E+00 0.  1.
         14    1    6    6    0    0  0.29352827721E+02  0.25555931934E+02 -0.43482247687E+03  0.43656074095E+03  0.00000000000E+00 0. -1.
         -5    1    3    3    0  503 -0.65830354167E+02  0.70997080551E+01 -0.98615068815E+02  0.11887414850E+03  0.47000000000E+01 0.  1.
         13    1    4    4    0    0  0.47018311050E+02 -0.10325122617E+00 -0.32184019809E+02  0.56978446503E+02  0.00000000000E+00 0. -1.
        -14    1    4    4    0    0  0.37989322912E+01 -0.46452276320E+02 -0.11488821041E+03  0.12398204206E+03  0.00000000000E+00 0.  1.
</event>
<event>
12    1  0.8133506E-002  0.1944798E+03  0.7818608E-02  0.1154884E+00
         21   -1    0    0  503  502  0.00000000000E+00  0.00000000000E+00  0.50889478939E+03  0.50889478939E+03  0.00000000000E+00 0. -1.
         21   -1    0    0  501  503 -0.00000000000E+00 -0.00000000000E+00 -0.16966689668E+03  0.16966689668E+03  0.00000000000E+00 0.  1.
          6    2    1    2  501    0 -0.76450979630E+02  0.42065577056E+02 -0.85997875951E+02  0.21097280861E+03  0.17175455232E+03 0.  0.
         24    2    3    3    0    0 -0.26701570073E+01 -0.99465635181E+01  0.63430348892E+01  0.81752816465E+02  0.80853107820E+02 0.  0.
         -6    2    1    2    0  502  0.76450979630E+02 -0.42065577056E+02  0.42522576866E+03  0.46758887746E+03  0.17380488754E+03 0.  0.
        -24    2    5    5    0    0  0.89135478903E+02 -0.53500339493E+02  0.18506135631E+03  0.22677217273E+03  0.79815366966E+02 0.  0.
          5    1    3    3  501    0 -0.73780822623E+02  0.52012140574E+02 -0.92340910840E+02  0.12921999214E+03  0.47000000000E+01 0. -1.
        -11    1    4    4    0    0 -0.25341406852E+02  0.26490367385E+02 -0.58883205025E+01  0.37129486716E+02  0.00000000000E+00 0.  1.
         12    1    4    4    0    0  0.22671249845E+02 -0.36436930903E+02  0.12231355392E+02  0.44623329749E+02  0.00000000000E+00 0. -1.
         -5    1    5    5    0  502 -0.12684499272E+02  0.11434762437E+02  0.24016441235E+03  0.24081670473E+03  0.47000000000E+01 0.  1.
         11    1    6    6    0    0  0.79966797205E+01 -0.33297283266E+01  0.95595339500E+02  0.95986993450E+02  0.00000000000E+00 0. -1.
        -12    1    6    6    0    0  0.81138799182E+02 -0.50170611166E+02  0.89466016805E+02  0.13078517928E+03  0.00000000000E+00 0.  1.
</event>
<event>
12    1  0.8133506E-002  0.2032256E+03  0.7818608E-02  0.1147106E+00
         21   -1    0    0  501  502  0.00000000000E+00  0.00000000000E+00  0.11395067861E+04  0.11395067861E+04  0.00000000000E+00 0.  1.
         21   -1    0    0  502  503 -0.00000000000E+00 -0.00000000000E+00 -0.86668325993E+02  0.86668325993E+02  0.00000000000E+00 0.  1.
         -6    2    1    2    0  503  0.93212128778E+02 -0.55461667208E+02  0.58377976487E+02  0.21116165516E+03  0.17151314524E+03 0.  0.
        -24    2    3    3    0    0  0.11588228772E+03 -0.50402778469E+02  0.87865563793E+02  0.17333129345E+03  0.79713457490E+02 0.  0.
          6    2    1    2  501    0 -0.93212128778E+02  0.55461667208E+02  0.99446048360E+03  0.10150134569E+04  0.17186089371E+03 0.  0.
         24    2    5    5    0    0 -0.71927483691E+02  0.66606023341E+02  0.43258614015E+03  0.45260604176E+03  0.90064061266E+02 0.  0.
          5    1    5    5  501    0 -0.21284645088E+02 -0.11144356133E+02  0.56187434345E+03  0.56240741515E+03  0.47000000000E+01 0. -1.
        -13    1    6    6    0    0 -0.67590820155E+02  0.81991875186E+02  0.28514016198E+03  0.30429607053E+03  0.00000000000E+00 0.  1.
         14    1    6    6    0    0 -0.43366635357E+01 -0.15385851845E+02  0.14744597817E+03  0.14830997123E+03  0.00000000000E+00 0. -1.
         -5    1    3    3    0  503 -0.22670158943E+02 -0.50588887397E+01 -0.29487587306E+02  0.37830361707E+02  0.47000000000E+01 0.  1.
         13    1    4    4    0    0  0.13275133740E+01  0.26909867715E+00  0.38767460954E+02  0.38791116698E+02  0.00000000000E+00 0. -1.
        -14    1    4    4    0    0  0.11455477435E+03 -0.50671877146E+02  0.49098102838E+02  0.13454017676E+03  0.00000000000E+00 0.  1.
</event>
<event>
12    1  0.8133506E-002  0.2098449E+03  0.7818608E-02  0.1142177E+00
         21   -1    0    0  501  502  0.00000000000E+00  0.00000000000E+00  0.37073610975E+03  0.37073610975E+03  0.00000000000E+00 0.  1.
         21   -1    0    0  502  503 -0.00000000000E+00 -0.00000000000E+00 -0.19412785921E+03  0.19412785921E+03  0.00000000000E+00 0. -1.
         -6    2    1    2    0  503 -0.50120399603E+02 -0.10901752417E+03 -0.89573011469E+02  0.22591363809E+03  0.16916492680E+03 0.  0.
        -24    2    3    3    0    0 -0.58769565748E+02 -0.13991580273E+03 -0.59745570632E+02  0.18185370255E+03  0.80442166860E+02 0.  0.
          6    2    1    2  501    0  0.50120399603E+02  0.10901752417E+03  0.26618126201E+03  0.33895033087E+03  0.17215686892E+03 0.  0.
         24    2    5    5    0    0 -0.42210050964E+01  0.69241358669E+00  0.15340609108E+03  0.17333738746E+03  0.80586132730E+02 0.  0.
          5    1    5    5  501    0  0.54341404700E+02  0.10832511058E+03  0.11277517093E+03  0.16561294341E+03  0.47000000000E+01 0. -1.
        -13    1    6    6    0    0 -0.39269023660E+02  0.16065220067E+02  0.80460783104E+02  0.90961998289E+02  0.00000000000E+00 0.  1.
         14    1    6    6    0    0  0.35048018564E+02 -0.15372806481E+02  0.72945307978E+02  0.82375389166E+02  0.00000000000E+00 0. -1.
         -5    1    3    3    0  503  0.86491661450E+01  0.30898278559E+02 -0.29827440837E+02  0.44059935539E+02  0.47000000000E+01 0.  1.
         11    1    4    4    0    0 -0.86076188407E+01 -0.11388067786E+03 -0.49246291992E+02  0.12437080512E+03  0.00000000000E+00 0. -1.
        -12    1    4    4    0    0 -0.50161946908E+02 -0.26035124868E+02 -0.10499278640E+02  0.57482897426E+02  0.00000000000E+00 0.  1.
</event>
<event>
12    1  0.8133506E-002  0.2187346E+03  0.7818608E-02  0.1135083E+00
         21   -1    0    0  501  502  0.00000000000E+00  0.00000000000E+00  0.31925279693E+03  0.31925279693E+03  0.00000000000E+00 0. -1.
         21   -1    0    0  502  503 -0.00000000000E+00 -0.00000000000E+00 -0.16242489769E+03  0.16242489769E+03  0.00000000000E+00 0.  1.
         -6    2    1    2    0  503 -0.59298988212E+02  0.12390188386E+03  0.92558085867E+01  0.21893037357E+03  0.17022570796E+03 0.  0.
        -24    2    3    3    0    0 -0.61243237199E+01  0.13664891525E+02  0.41939586880E+02  0.92162637975E+02  0.80689443482E+02 0.  0.
          6    2    1    2  501    0  0.59298988212E+02 -0.12390188386E+03  0.14757209065E+03  0.26274732106E+03  0.16849506212E+03 0.  0.
         24    2    5    5    0    0 -0.22637641174E+02 -0.10381153607E+03  0.95225592638E+02  0.16335175192E+03  0.79539823640E+02 0.  0.
          5    1    5    5  501    0  0.81936629386E+02 -0.20090347795E+02  0.52346498016E+02  0.99395569138E+02  0.47000000000E+01 0. -1.
        -13    1    6    6    0    0  0.97198741503E+01 -0.33575996907E+01 -0.99830000856E+01  0.14332121961E+02  0.00000000000E+00 0.  1.
         14    1    6    6    0    0 -0.32357515324E+02 -0.10045393638E+03  0.10520859272E+03  0.14901962996E+03  0.00000000000E+00 0. -1.
         -5    1    3    3    0  503 -0.53174664492E+02  0.11023699234E+03 -0.32683778293E+02  0.12676773559E+03  0.47000000000E+01 0.  1.
         13    1    4    4    0    0 -0.36737011877E+02  0.32038382568E+01 -0.27655830771E+01  0.36980009073E+02  0.00000000000E+00 0. -1.
        -14    1    4    4    0    0  0.30612688157E+02  0.10461053268E+02  0.44705169957E+02  0.55182628903E+02  0.00000000000E+00 0.  1.
</event>
<event>
12    1  0.8133506E-002  0.3166783E+03  0.7818608E-02  0.1077291E+00
         21   -1    0    0  501  502  0.00000000000E+00  0.00000000000E+00  0.54008601427E+03  0.54008601427E+03  0.00000000000E+00 0.  1.
         21   -1    0    0  502  503 -0.00000000000E+00 -0.00000000000E+00 -0.80302243057E+03  0.80302243057E+03  0.00000000000E+00 0.  1.
         -6    2    1    2    0  503  0.17935598799E+03 -0.19474832073E+03 -0.72057017195E+03  0.78708734739E+03  0.17375166434E+03 0.  0.
        -24    2    3    3    0    0  0.77869378053E+02 -0.18273690278E+03 -0.47436096345E+03  0.52046988639E+03  0.80088471835E+02 0.  0.
          6    2    1    2  501    0 -0.17935598799E+03  0.19474832073E+03  0.45763375565E+03  0.55602109745E+03  0.17214914361E+03 0.  0.
         24    2    5    5    0    0 -0.18612262010E+03  0.21262668891E+03  0.44322775695E+03  0.53162752950E+03  0.79531421723E+02 0.  0.
          5    1    5    5  501    0  0.67666321072E+01 -0.17878368183E+02  0.14405998708E+02  0.24393567958E+02  0.47000000000E+01 0. -1.
        -13    1    6    6    0    0 -0.18922719566E+03  0.18125822798E+03  0.39649932512E+03  0.47526118252E+03  0.00000000000E+00 0.  1.
         14    1    6    6    0    0  0.31045755640E+01  0.31368460932E+02  0.46728431826E+02  0.56366346977E+02  0.00000000000E+00 0. -1.
         -5    1    3    3    0  503  0.10148660994E+03 -0.12011417950E+02 -0.24620920850E+03  0.26661746099E+03  0.47000000000E+01 0.  1.
         13    1    4    4    0    0  0.19865481371E+02  0.42960826754E+00 -0.26379712375E+02  0.33025916163E+02  0.00000000000E+00 0. -1.
        -14    1    4    4    0    0  0.58003896682E+02 -0.18316651105E+03 -0.44798125107E+03  0.48744397023E+03  0.00000000000E+00 0.  1.
</event>
<event>
12    1  0.8133506E-002  0.3040381E+03  0.7818608E-02  0.1083459E+00
         21   -1    0    0  503  502  0.00000000000E+00  0.00000000000E+00  0.62711536367E+03  0.62711536367E+03  0.00000000000E+00 0.  1.
         21   -1    0    0  501  503 -0.00000000000E+00 -0.00000000000E+00 -0.19000413949E+03  0.19000413949E+03  0.00000000000E+00 0.  1.
          6    2    1    2  501    0 -0.25117470760E+03 -0.11311262075E+01  0.23649194361E+02  0.30495645778E+03  0.17131591742E+03 0.  0.
         24    2    3    3    0    0 -0.26264136060E+03 -0.24180430501E+02  0.17177662290E+02  0.27799861501E+03  0.86156719705E+02 0.  0.
         -6    2    1    2    0  502  0.25117470760E+03  0.11311262075E+01  0.41346202982E+03  0.51216304538E+03  0.16813721113E+03 0.  0.
        -24    2    5    5    0    0  0.91046101536E+02  0.55797243330E+02  0.17555780723E+03  0.22018690942E+03  0.79113882691E+02 0.  0.
          5    1    3    3  501    0  0.11466652998E+02  0.23049304293E+02  0.64715320709E+01  0.26957842768E+02  0.47000000000E+01 0. -1.
        -13    1    4    4    0    0 -0.19090910772E+03 -0.36005838928E+02  0.46244249028E+02  0.19970287533E+03  0.00000000000E+00 0.  1.
         14    1    4    4    0    0 -0.71732252873E+02  0.11825408427E+02 -0.29066586738E+02  0.78295739676E+02  0.00000000000E+00 0. -1.
         -5    1    5    5    0  502  0.16012860606E+03 -0.54666117123E+02  0.23790422260E+03  0.29197613596E+03  0.47000000000E+01 0.  1.
         11    1    6    6    0    0  0.48533458133E+01  0.13948484270E+02  0.91628053887E+02  0.92810642914E+02  0.00000000000E+00 0. -1.
        -12    1    6    6    0    0  0.86192755723E+02  0.41848759060E+02  0.83929753342E+02  0.12737626651E+03  0.00000000000E+00 0.  1.
</event>
<event>
12    1  0.8133506E-002  0.1728879E+03  0.7818608E-02  0.1174888E+00
         21   -1    0    0  501  502  0.00000000000E+00  0.00000000000E+00  0.87291281594E+02  0.87291281594E+02  0.00000000000E+00 0.  1.
         21   -1    0    0  502  503 -0.00000000000E+00 -0.00000000000E+00 -0.71602859149E+03  0.71602859149E+03  0.00000000000E+00 0.  1.
         -6    2    1    2    0  503 -0.80415009639E+01  0.15499718401E+02 -0.60459280848E+03  0.62882644938E+03  0.17200387311E+03 0.  0.
        -24    2    3    3    0    0 -0.36857702695E+02  0.66076717695E+02 -0.46116156480E+03  0.47396193438E+03  0.79027232846E+02 0.  0.
          6    2    1    2  501    0  0.80415009639E+01 -0.15499718401E+02 -0.24144501419E+02  0.17449342371E+03  0.17193048293E+03 0.  0.
         24    2    5    5    0    0 -0.59498864969E+02  0.22021452864E+01 -0.18142695994E+02  0.10425690417E+03  0.83638389945E+02 0.  0.
          5    1    5    5  501    0  0.67540365933E+02 -0.17701863687E+02 -0.60018054246E+01  0.70236519537E+02  0.47000000000E+01 0. -1.
        -13    1    6    6    0    0 -0.73139077897E+01 -0.34712024464E+02  0.59040895531E+01  0.35962149032E+02  0.00000000000E+00 0.  1.
         14    1    6    6    0    0 -0.52184957179E+02  0.36914169750E+02 -0.24046785547E+02  0.68294755137E+02  0.00000000000E+00 0. -1.
         -5    1    3    3    0  503  0.28816201731E+02 -0.50576999294E+02 -0.14343124368E+03  0.15486451500E+03  0.47000000000E+01 0.  1.
         13    1    4    4    0    0 -0.61707484233E+02  0.41540789080E+02 -0.32304945725E+03  0.33150324673E+03  0.00000000000E+00 0. -1.
        -14    1    4    4    0    0  0.24849781538E+02  0.24535928615E+02 -0.13811210755E+03  0.14245868765E+03  0.00000000000E+00 0.  1.
</event>
<event>
12    1  0.8133506E-002  0.1793394E+03  0.7818608E-02  0.1168633E+00
         21   -1    0    0  501  502  0.00000000000E+00  0.00000000000E+00  0.28475544705E+03  0.28475544705E+03  0.00000000000E+00 0.  1.
         21   -1    0    0  502  503 -0.00000000000E+00 -0.00000000000E+00 -0.11668649132E+03  0.11668649132E+03  0.00000000000E+00 0.  1.
         -6    2    1    2    0  503  0.49828213273E+02  0.53074080967E+01  0.12241532695E+03  0.21713624147E+03  0.17219644499E+03 0.  0.
        -24    2    3    3    0    0 -0.30172075951E+02  0.16834830468E+02  0.24745429004E+02  0.90272429813E+02  0.79643013778E+02 0.  0.
          6    2    1    2  501    0 -0.49828213273E+02 -0.53074080967E+01  0.45653628784E+02  0.18430569691E+03  0.17138645417E+03 0.  0.
         24    2    5    5    0    0 -0.28953948063E+02  0.33559078064E+02 -0.29265653555E+02  0.97234877682E+02  0.81446916031E+02 0.  0.
          5    1    5    5  501    0 -0.20874265209E+02 -0.38866486161E+02  0.74919282339E+02  0.87070819226E+02  0.47000000000E+01 0. -1.
        -11    1    6    6    0    0 -0.47197284641E+02 -0.48642763893E+01 -0.27109554259E+02  0.54645885429E+02  0.00000000000E+00 0.  1.
         12    1    6    6    0    0  0.18243336577E+02  0.38423354454E+02 -0.21560992965E+01  0.42588992253E+02  0.00000000000E+00 0. -1.
         -5    1    3    3    0  503  0.80000289223E+02 -0.11527422372E+02  0.97669897946E+02  0.12686381165E+03  0.47000000000E+01 0.  1.
         13    1    4    4    0    0 -0.20365758289E+02  0.48839391229E+02  0.19481993388E+02  0.56387927012E+02  0.00000000000E+00 0. -1.
        -14    1    4    4    0    0 -0.98063176617E+01 -0.32004560761E+02  0.52634356166E+01  0.33884502801E+02  0.00000000000E+00 0.  1.
</event>
<event>
12    1  0.8133506E-002  0.1757802E+03  0.7818608E-02  0.1172364E+00
         21   -1    0    0  503  502  0.00000000000E+00  0.00000000000E+00  0.41857116749E+03  0.41857116749E+03  0.00000000000E+00 0. -1.
         21   -1    0    0  501  503 -0.00000000000E+00 -0.00000000000E+00 -0.89929335016E+02  0.89929335016E+02  0.00000000000E+00 0. -1.
          6    2    1    2  501    0  0.32261442368E+01  0.36076558395E+02  0.27484304532E+03  0.32624744206E+03  0.17200804581E+03 0.  0.
         24    2    3    3    0    0  0.21883522738E+02  0.40968321671E+02  0.52622918613E+02  0.10314230579E+03  0.75576925925E+02 0.  0.
         -6    2    1    2    0  502 -0.32261442368E+01 -0.36076558395E+02  0.53798787159E+02  0.18225306044E+03  0.17032305325E+03 0.  0.
        -24    2    5    5    0    0  0.32111951149E+02  0.38113393679E+01  0.83407907180E+02  0.12110884271E+03  0.81638037020E+02 0.  0.
          5    1    3    3  501    0 -0.18657378501E+02 -0.48917632764E+01  0.22222012670E+03  0.22310513628E+03  0.47000000000E+01 0. -1.
        -11    1    4    4    0    0  0.36052985661E+02 -0.86058681575E+01  0.24217194771E+02  0.44275854192E+02  0.00000000000E+00 0.  1.
         12    1    4    4    0    0 -0.14169462924E+02  0.49574189829E+02  0.28405723842E+02  0.58866451598E+02  0.00000000000E+00 0. -1.
         -5    1    5    5    0  502 -0.35338095386E+02 -0.39887897763E+02 -0.29609120021E+02  0.61144217730E+02  0.47000000000E+01 0.  1.
         11    1    6    6    0    0 -0.34755057174E+01  0.29033379061E+02  0.26962741925E+01  0.29364708992E+02  0.00000000000E+00 0. -1.
        -12    1    6    6    0    0  0.35587456866E+02 -0.25222039693E+02  0.80711632988E+02  0.91744133720E+02  0.00000000000E+00 0.  1.
</event>
<event>
12    1  0.8133506E-002  0.2792206E+03  0.7818608E-02  0.1096233E+00
         21   -1    0    0  503  502  0.00000000000E+00  0.00000000000E+00  0.11586406592E+04  0.11586406592E+04  0.00000000000E+00 0. -1.
         21   -1    0    0  501  503 -0.00000000000E+00 -0.00000000000E+00 -0.69457770394E+02  0.69457770394E+02  0.00000000000E+00 0. -1.
          6    2    1    2  501    0  0.92697789330E+02  0.19822304731E+03  0.65732204657E+03  0.71383396298E+03  0.17205056575E+03 0.  0.
         24    2    3    3    0    0  0.94103631936E+02  0.61790958234E+02  0.26617226680E+03  0.29954429193E+03  0.78774939902E+02 0.  0.
         -6    2    1    2    0  502 -0.92697789330E+02 -0.19822304731E+03  0.43186084229E+03  0.51426446666E+03  0.17343268993E+03 0.  0.
        -24    2    5    5    0    0 -0.12974530932E+03 -0.15718485599E+03  0.37930398669E+03  0.43783826072E+03  0.79308914931E+02 0.  0.
          5    1    3    3  501    0 -0.14058426062E+01  0.13643208907E+03  0.39114977977E+03  0.41428967105E+03  0.47000000000E+01 0. -1.
        -11    1    4    4    0    0  0.24044474876E+01 -0.11049435096E+02  0.33215182688E+01  0.11785748482E+02  0.00000000000E+00 0.  1.
         12    1    4    4    0    0  0.91699184448E+02  0.72840393330E+02  0.26285074853E+03  0.28775854345E+03  0.00000000000E+00 0. -1.
         -5    1    5    5    0  502  0.37047519990E+02 -0.41038191319E+02  0.52556855597E+02  0.76426205940E+02  0.47000000000E+01 0.  1.
         13    1    6    6    0    0 -0.86212483487E+02 -0.14067904772E+03  0.33567642376E+03  0.37403455488E+03  0.00000000000E+00 0. -1.
        -14    1    6    6    0    0 -0.43532825834E+02 -0.16505808269E+02  0.43627562936E+02  0.63803705844E+02  0.00000000000E+00 0.  1.
</event>
<event>
12    1  0.8133506E-002  0.2824256E+03  0.7818608E-02  0.1094447E+00
         21   -1    0    0  503  502  0.00000000000E+00  0.00000000000E+00  0.15334433713E+04  0.15334433713E+04  0.00000000000E+00 0.  1.
         21   -1    0    0  501  503 -0.00000000000E+00 -0.00000000000E+00 -0.68439538518E+02  0.68439538518E+02  0.00000000000E+00 0. -1.
          6    2    1    2  501    0 -0.16392165392E+03  0.14975990451E+03  0.33947229245E+03  0.44159443986E+03  0.17454476317E+03 0.  0.
         24    2    3    3    0    0 -0.32784626007E+02  0.12068612249E+03  0.18576599320E+03  0.23741334054E+03  0.78842362791E+02 0.  0.
         -6    2    1    2    0  502  0.16392165392E+03 -0.14975990451E+03  0.11255315403E+04  0.11602884699E+04  0.17363682678E+03 0.  0.
        -24    2    5    5    0    0  0.10333537459E+03 -0.19723065576E+02  0.42124301499E+03  0.44152237891E+03  0.80181883473E+02 0.  0.
          5    1    3    3  501    0 -0.13113702791E+03  0.29073782019E+02  0.15370629925E+03  0.20418109932E+03  0.47000000000E+01 0. -1.
        -13    1    4    4    0    0  0.59689125347E+01  0.46308980179E+01  0.65205683893E+02  0.65641864273E+02  0.00000000000E+00 0.  1.
         14    1    4    4    0    0 -0.38753538542E+02  0.11605522448E+03  0.12056030931E+03  0.17177147626E+03  0.00000000000E+00 0. -1.
         -5    1    5    5    0  502  0.60586279332E+02 -0.13003683894E+03  0.70428852529E+03  0.71876609101E+03  0.47000000000E+01 0.  1.
         13    1    6    6    0    0  0.73714006531E+02 -0.50336040670E+02  0.26833748869E+03  0.28279405861E+03  0.00000000000E+00 0. -1.
        -14    1    6    6    0    0  0.29621368058E+02  0.30612975094E+02  0.15290552630E+03  0.15872832030E+03  0.00000000000E+00 0.  1.
</event>
<event>
12    1  0.8133506E-002  0.2174387E+03  0.7818608E-02  0.1137819E+00
         21   -1    0    0  503  502  0.00000000000E+00  0.00000000000E+00  0.10158234845E+04  0.10158234845E+04  0.00000000000E+00 0.  1.
         21   -1    0    0  501  503 -0.00000000000E+00 -0.00000000000E+00 -0.63395590954E+02  0.63395590954E+02  0.00000000000E+00 0.  1.
          6    2    1    2  501    0 -0.52116069587E+02 -0.10112902347E+03  0.18865765971E+03  0.28787376250E+03  0.18530090790E+03 0.  0.
         24    2    3    3    0    0 -0.64620498576E+02 -0.97919720894E+02  0.21886541970E+03  0.25468853790E+03  0.56569415957E+02 0.  0.
         -6    2    1    2    0  502  0.52116069587E+02  0.10112902347E+03  0.76377023382E+03  0.79134531294E+03  0.17302967996E+03 0.  0.
        -24    2    5    5    0    0 -0.94194155471E+01  0.87565892939E+02  0.27728000660E+03  0.30076870769E+03  0.76296149763E+02 0.  0.
          5    1    3    3  501    0  0.12504428988E+02 -0.32093025769E+01 -0.30207759995E+02  0.33185224592E+02  0.47000000000E+01 0. -1.
        -11    1    4    4    0    0 -0.54083757664E+02 -0.33200804388E+02  0.90331316081E+02  0.11039516710E+03  0.00000000000E+00 0.  1.
         12    1    4    4    0    0 -0.10536740911E+02 -0.64718916505E+02  0.12853410362E+03  0.14429337080E+03  0.00000000000E+00 0. -1.
         -5    1    5    5    0  502  0.61535485134E+02  0.13563130531E+02  0.48649022721E+03  0.49057660524E+03  0.47000000000E+01 0.  1.
         11    1    6    6    0    0 -0.30173670981E+02  0.45901389799E+01  0.61553210553E+02  0.68704566993E+02  0.00000000000E+00 0. -1.
        -12    1    6    6    0    0  0.20754255434E+02  0.82975753959E+02  0.21572679605E+03  0.23206414070E+03  0.00000000000E+00 0.  1.
</event>
<event>
12    1  0.8133506E-002  0.1928210E+03  0.7818608E-02  0.1156045E+00
         21   -1    0    0  503  502  0.00000000000E+00  0.00000000000E+00  0.83773877259E+03  0.83773877259E+03  0.00000000000E+00 0.  1.
         21   -1    0    0  501  503 -0.00000000000E+00 -0.00000000000E+00 -0.15874857983E+03  0.15874857983E+03  0.00000000000E+00 0.  1.
          6    2    1    2  501    0 -0.65693169027E+02  0.56209682333E+02 -0.83717714134E+02  0.20978327480E+03  0.17182911826E+03 0.  0.
         24    2    3    3    0    0 -0.40381772640E+02 -0.15648589960E+02 -0.97332664210E+02  0.13224789610E+03  0.78360018967E+02 0.  0.
         -6    2    1    2    0  502  0.65693169027E+02 -0.56209682333E+02  0.76270790689E+03  0.78670407762E+03  0.17235090271E+03 0.  0.
        -24    2    5    5    0    0  0.31892307769E+02  0.87461019866E+01  0.18155485092E+03  0.20093730099E+03  0.79498562517E+02 0.  0.
          5    1    3    3  501    0 -0.25311396387E+02  0.71858272293E+02  0.13614950075E+02  0.77535378696E+02  0.47000000000E+01 0. -1.
        -11    1    4    4    0    0  0.13510507161E+02  0.62977200363E+01 -0.62882660146E+02  0.64625258440E+02  0.00000000000E+00 0.  1.
         12    1    4    4    0    0 -0.53892279802E+02 -0.21946309996E+02 -0.34450004064E+02  0.67622637664E+02  0.00000000000E+00 0. -1.
         -5    1    5    5    0  502  0.33800861258E+02 -0.64955784319E+02  0.58115305597E+03  0.58576677663E+03  0.47000000000E+01 0.  1.
         13    1    6    6    0    0  0.55770802151E+02 -0.66731340386E+01  0.13724743867E+03  0.14829623229E+03  0.00000000000E+00 0. -1.
        -14    1    6    6    0    0 -0.23878494382E+02  0.15419236025E+02  0.44307412256E+02  0.52641068705E+02  0.00000000000E+00 0.  1.
</event>
<event>
12    1  0.8133506E-002  0.2651939E+03  0.7818608E-02  0.1104301E+00
         21   -1    0    0  501  502  0.00000000000E+00  0.00000000000E+00  0.16963379701E+03  0.16963379701E+03  0.00000000000E+00 0. -1.
         21   -1    0    0  502  503 -0.00000000000E+00 -0.00000000000E+00 -0.42240379362E+03  0.42240379362E+03  0.00000000000E+00 0.  1.
         -6    2    1    2    0  503  0.45314538149E+02  0.19437128081E+03 -0.79662000285E+02  0.27534498179E+03  0.17214883831E+03 0.  0.
        -24    2    3    3    0    0  0.64632239943E+01  0.23876776857E+02 -0.46334573096E+01  0.85005357030E+02  0.81194630732E+02 0.  0.
          6    2    1    2  501    0 -0.45314538149E+02 -0.19437128081E+03 -0.17310799633E+03  0.31669260885E+03  0.17462596581E+03 0.  0.
         24    2    5    5    0    0 -0.90277189940E+01 -0.32046455989E+02 -0.19431473995E+02  0.90187320798E+02  0.81533401741E+02 0.  0.
          5    1    5    5  501    0 -0.36286819155E+02 -0.16232482483E+03 -0.15367652233E+03  0.22650528805E+03  0.47000000000E+01 0. -1.
        -11    1    6    6    0    0 -0.12629282466E+02 -0.58947653007E+02 -0.18382992361E+02  0.63025859604E+02  0.00000000000E+00 0.  1.
         12    1    6    6    0    0  0.36015634716E+01  0.26901197019E+02 -0.10484816339E+01  0.27161461194E+02  0.00000000000E+00 0. -1.
         -5    1    3    3    0  503  0.38851314155E+02  0.17049450396E+03 -0.75028542975E+02  0.19033962476E+03  0.47000000000E+01 0.  1.
         13    1    4    4    0    0  0.19065985743E+02  0.28158069110E+02  0.31589577591E+02  0.46414330554E+02  0.00000000000E+00 0. -1.
        -14    1    4    4    0    0 -0.12602761749E+02 -0.42812922529E+01 -0.36223034901E+02  0.38591026476E+02  0.00000000000E+00 0.  1.
</event>
<event>
12    1  0.8133506E-002  0.2040340E+03  0.7818608E-02  0.1146533E+00
         21   -1    0    0  503  502  0.00000000000E+00  0.00000000000E+00  0.39124334466E+03  0.39124334466E+03  0.00000000000E+00 0. -1.
         21   -1    0    0  501  503 -0.00000000000E+00 -0.00000000000E+00 -0.10606354326E+03  0.10606354326E+03  0.00000000000E+00 0.  1.
          6    2    1    2  501    0 -0.33347824225E+02  0.10430262418E+03  0.13750079382E+03  0.24604131978E+03  0.17215907744E+03 0.  0.
         24    2    3    3    0    0 -0.61040045747E+01  0.13479256599E+03  0.13149521097E+03  0.20444781926E+03  0.79382778826E+02 0.  0.
         -6    2    1    2    0  502  0.33347824225E+02 -0.10430262418E+03  0.14767900757E+03  0.25126556814E+03  0.17127224429E+03 0.  0.
        -24    2    5    5    0    0  0.62218321863E+02 -0.11953239330E+03  0.80214793850E+02  0.17617254826E+03  0.80269801206E+02 0.  0.
          5    1    3    3  501    0 -0.27243819651E+02 -0.30489941803E+02  0.60055828530E+01  0.41593500523E+02  0.47000000000E+01 0. -1.
        -13    1    4    4    0    0  0.17152411478E+02  0.11137837796E+02 -0.25403920696E+01  0.20608499270E+02  0.00000000000E+00 0.  1.
         14    1    4    4    0    0 -0.23256416053E+02  0.12365472819E+03  0.13403560304E+03  0.18383931999E+03  0.00000000000E+00 0. -1.
         -5    1    5    5    0  502 -0.28870497637E+02  0.15229769118E+02  0.67464213724E+02  0.75093019879E+02  0.47000000000E+01 0.  1.
         13    1    6    6    0    0  0.37808020961E+01 -0.73627452004E+02  0.69080026008E+02  0.10103141168E+03  0.00000000000E+00 0. -1.
        -14    1    6    6    0    0  0.58437519767E+02 -0.45904941295E+02  0.11134767842E+02  0.75141136581E+02  0.00000000000E+00 0.  1.
</event>
<event>
12    1  0.8133506E-002  0.1816744E+03  0.7818608E-02  0.1166276E+00
         21   -1    0    0  503  502  0.00000000000E+00  0.00000000000E+00  0.92491920128E+02  0.92491920128E+02  0.00000000000E+00 0. -1.
         21   -1    0    0  501  503 -0.00000000000E+00 -0.00000000000E+00 -0.45750934086E+03  0.45750934086E+03  0.00000000000E+00 0. -1.
          6    2    1    2  501    0  0.30893151887E+02 -0.50868591212E+02 -0.31207922501E+03  0.36110804815E+03  0.17164958302E+03 0.  0.
         24    2    3    3    0    0 -0.38366328671E+02  0.10478349252E+02 -0.15412208624E+03  0.17798822279E+03  0.79651861289E+02 0.  0.
         -6    2    1    2    0  502 -0.30893151887E+02  0.50868591212E+02 -0.52938195727E+02  0.18889321284E+03  0.17127811560E+03 0.  0.
        -24    2    5    5    0    0 -0.63593622287E+02 -0.20943301718E+02 -0.31908095495E+02  0.10709697915E+03  0.77258434504E+02 0.  0.
          5    1    3    3  501    0  0.69259480558E+02 -0.61346940464E+02 -0.15795713876E+03  0.18311982535E+03  0.47000000000E+01 0. -1.
        -11    1    4    4    0    0 -0.34932225619E+02 -0.21763100717E+02 -0.33449367998E+02  0.53035395341E+02  0.00000000000E+00 0.  1.
         12    1    4    4    0    0 -0.34341030526E+01  0.32241449969E+02 -0.12067271825E+03  0.12495282745E+03  0.00000000000E+00 0. -1.
         -5    1    5    5    0  502  0.32700470400E+02  0.71811892930E+02 -0.21030100232E+02  0.81796233693E+02  0.47000000000E+01 0.  1.
         13    1    6    6    0    0 -0.27846601502E+02  0.28984150631E+02 -0.18491815522E+02  0.44243207889E+02  0.00000000000E+00 0. -1.
        -14    1    6    6    0    0 -0.35747020785E+02 -0.49927452349E+02 -0.13416279974E+02  0.62853771259E+02  0.00000000000E+00 0.  1.
</event>
<event>
12    1  0.8133506E-002  0.2027371E+03  0.7818608E-02  0.1147480E+00
         21   -1    0    0  503  502  0.00000000000E+00  0.00000000000E+00  0.13717487293E+03  0.13717487293E+03  0.00000000000E+00 0.  1.
         21   -1    0    0  501  503 -0.00000000000E+00 -0.00000000000E+00 -0.44898589876E+03  0.44898589876E+03  0.00000000000E+00 0.  1.
          6    2    1    2  501    0  0.38092381712E+02 -0.10048347297E+03 -0.32502434868E+03  0.38299351440E+03  0.17174180315E+03 0.  0.
         24    2    3    3    0    0  0.68618567791E+02 -0.10045998723E+02 -0.16121307785E+03  0.19334381828E+03  0.81134121440E+02 0.  0.
         -6    2    1    2    0  502 -0.38092381712E+02  0.10048347297E+03  0.13213322860E+02  0.20316725729E+03  0.17191388730E+03 0.  0.
        -24    2    5    5    0    0  0.37529452277E+02  0.15223169784E+02  0.15465643494E+01  0.88510446196E+02  0.78686101302E+02 0.  0.
          5    1    3    3  501    0 -0.30526186079E+02 -0.90437474251E+02 -0.16381127083E+03  0.18964969612E+03  0.47000000000E+01 0. -1.
        -11    1    4    4    0    0  0.17914013685E+02 -0.21781360104E+02 -0.12919836174E+03  0.13224052409E+03  0.00000000000E+00 0.  1.
         12    1    4    4    0    0  0.50704554106E+02  0.11735361380E+02 -0.32014716108E+02  0.61103294193E+02  0.00000000000E+00 0. -1.
         -5    1    5    5    0  502 -0.75621833989E+02  0.85260303190E+02  0.11666758510E+02  0.11465681109E+03  0.47000000000E+01 0.  1.
         11    1    6    6    0    0 -0.95844235021E+01 -0.21981187585E+02 -0.12228685705E+02  0.26917922200E+02  0.00000000000E+00 0. -1.
        -12    1    6    6    0    0  0.47113875779E+02  0.37204357369E+02  0.13775250054E+02  0.61592523996E+02  0.00000000000E+00 0.  1.
</event>
<event>
12    1  0.8133506E-002  0.2120763E+03  0.7818608E-02  0.1140154E+00
         21   -1    0    0  501  502  0.00000000000E+00  0.00000000000E+00  0.15076826354E+03  0.15076826354E+03  0.00000000000E+00 0. -1.
         21   -1    0    0  502  503 -0.00000000000E+00 -0.00000000000E+00 -0.30605148626E+03  0.30605148626E+03  0.00000000000E+00 0. -1.
         -6    2    1    2    0  503 -0.66358690055E+01 -0.12332318775E+03 -0.11771087566E+03  0.24255351238E+03  0.17240566326E+03 0.  0.
        -24    2    3    3    0    0  0.53399597933E+01 -0.15544909178E+03 -0.96114423794E+02  0.20176146760E+03  0.85303997800E+02 0.  0.
          6    2    1    2  501    0  0.66358690055E+01  0.12332318775E+03 -0.37572347057E+02  0.21426623742E+03  0.17101372998E+03 0.  0.
         24    2    5    5    0    0  0.36914002378E+02  0.13812950226E+03 -0.58721230119E+02  0.17419932383E+03  0.80341885661E+02 0.  0.
          5    1    5    5  501    0 -0.30278133372E+02 -0.14806314506E+02  0.21148883062E+02  0.40066913589E+02  0.47000000000E+01 0. -1.
        -13    1    6    6    0    0  0.21542815178E+01  0.25407395866E+02 -0.49743911468E+02  0.55898420565E+02  0.00000000000E+00 0.  1.
         14    1    6    6    0    0  0.34759720860E+02  0.11272210639E+03 -0.89773186513E+01  0.11830090327E+03  0.00000000000E+00 0. -1.
         -5    1    3    3    0  503 -0.11975828799E+02  0.32125904022E+02 -0.21596451868E+02  0.40792044787E+02  0.47000000000E+01 0.  1.
         11    1    4    4    0    0  0.34917446835E+02 -0.88233567602E+02 -0.21961778697E+02  0.97399744706E+02  0.00000000000E+00 0. -1.
        -12    1    4    4    0    0 -0.29577487041E+02 -0.67215524174E+02 -0.74152645097E+02  0.10436172289E+03  0.00000000000E+00 0.  1.
</event>
<event>
12    1  0.8133506E-002  0.1816689E+03  0.7818608E-02  0.1166324E+00
         21   -1    0    0  501  502  0.00000000000E+00  0.00000000000E+00  0.15430375247E+03  0.15430375247E+03  0.00000000000E+00 0.  1.
         21   -1    0    0  502  503 -0.00000000000E+00 -0.00000000000E+00 -0.23083658824E+03  0.23083658824E+03  0.00000000000E+00 0.  1.
         -6    2    1    2    0  503  0.22655741523E+02  0.55115256943E+02 -0.91344353006E+02  0.20286869422E+03  0.17105830029E+03 0.  0.
        -24    2    3    3    0    0  0.11182666905E+02 -0.20452084651E+02 -0.14430738775E+00  0.83782200961E+02  0.80474198148E+02 0.  0.
          6    2    1    2  501    0 -0.22655741523E+02 -0.55115256943E+02  0.14811517233E+02  0.18227164649E+03  0.17161759204E+03 0.  0.
         24    2    5    5    0    0 -0.59775549051E+02 -0.86475234615E+02  0.19009126956E+02  0.13327125631E+03  0.79679347286E+02 0.  0.
          5    1    5    5  501    0  0.37119807528E+02  0.31359977671E+02 -0.41976097228E+01  0.49000390180E+02  0.47000000000E+01 0. -1.
        -11    1    6    6    0    0  0.12362705627E+02  0.19331131950E+01  0.14394554232E+02  0.19072928684E+02  0.00000000000E+00 0.  1.
         12    1    6    6    0    0 -0.72138254678E+02 -0.88408347810E+02  0.46145727235E+01  0.11419832762E+03  0.00000000000E+00 0. -1.
         -5    1    3    3    0  503  0.11473074619E+02  0.75567341595E+02 -0.91200045619E+02  0.11908649326E+03  0.47000000000E+01 0.  1.
         11    1    4    4    0    0 -0.94491530312E+00 -0.24158749458E+02 -0.37340160870E+02  0.44483993235E+02  0.00000000000E+00 0. -1.
        -12    1    4    4    0    0  0.12127582208E+02  0.37066648066E+01  0.37195853482E+02  0.39298207726E+02  0.00000000000E+00 0.  1.
</event>
<event>
12    1  0.8133506E-002  0.2150457E+03  0.7818608E-02  0.1137723E+00
         21   -1    0    0  503  502  0.00000000000E+00  0.00000000000E+00  0.18572703278E+03  0.18572703278E+03  0.00000000000E+00 0.  1.
         21   -1    0    0  501  503 -0.00000000000E+00 -0.00000000000E+00 -0.25629783285E+03  0.25629783285E+03  0.00000000000E+00 0. -1.
          6    2    1    2  501    0  0.10299557976E+03  0.75931412286E+02  0.33706218973E+01  0.21507208947E+03  0.17283221273E+03 0.  0.
         24    2    3    3    0    0  0.25612974197E+02  0.85635040363E+02  0.42409767049E+02  0.12773153248E+03  0.80792149763E+02 0.  0.
         -6    2    1    2    0  502 -0.10299557976E+03 -0.75931412286E+02 -0.73941421969E+02  0.22695277616E+03  0.17223983251E+03 0.  0.
        -24    2    5    5    0    0 -0.93905623996E+02 -0.11574595229E+03 -0.78203202689E+02  0.18562387990E+03  0.78262968180E+02 0.  0.
          5    1    3    3  501    0  0.77382605561E+02 -0.97036280769E+01 -0.39039145151E+02  0.87340556990E+02  0.47000000000E+01 0. -1.
        -11    1    4    4    0    0  0.26080881025E+02  0.54544746164E+02  0.65397626464E+02  0.89062849923E+02  0.00000000000E+00 0.  1.
         12    1    4    4    0    0 -0.46790682851E+00  0.31090294199E+02 -0.22987859416E+02  0.38668682557E+02  0.00000000000E+00 0. -1.
         -5    1    5    5    0  502 -0.90899557609E+01  0.39814540003E+02  0.42617807193E+01  0.41328896263E+02  0.47000000000E+01 0.  1.
         13    1    6    6    0    0 -0.23771967934E+02 -0.89086910968E+02 -0.32466395078E+02  0.97753010054E+02  0.00000000000E+00 0. -1.
        -14    1    6    6    0    0 -0.70133656062E+02 -0.26659041322E+02 -0.45736807611E+02  0.87870869845E+02  0.00000000000E+00 0.  1.
</event>
<event>
12    1  0.8133506E-002  0.1727242E+03  0.7818608E-02  0.1175650E+00
         21   -1    0    0  503  502  0.00000000000E+00  0.00000000000E+00  0.32022895212E+03  0.32022895212E+03  0.00000000000E+00 0. -1.
         21   -1    0    0  501  503 -0.00000000000E+00 -0.00000000000E+00 -0.13850411567E+03  0.13850411567E+03  0.00000000000E+00 0. -1.
          6    2    1    2  501    0 -0.41991370806E+01 -0.15547147868E+02 -0.42628941510E+02  0.17559304222E+03  0.16957695381E+03 0.  0.
         24    2    3    3    0    0 -0.32609710763E+02  0.12258503584E+02  0.31174496756E+02  0.91632620294E+02  0.78810048267E+02 0.  0.
         -6    2    1    2    0  502  0.41991370806E+01  0.15547147868E+02  0.22435377795E+03  0.28314002557E+03  0.17197182863E+03 0.  0.
        -24    2    5    5    0    0  0.66443503712E+02  0.10903363847E+02  0.17204363753E+03  0.20156572387E+03  0.80598419934E+02 0.  0.
          5    1    3    3  501    0  0.28410573682E+02 -0.27805651452E+02 -0.73803438266E+02  0.83960421923E+02  0.47000000000E+01 0. -1.
        -13    1    4    4    0    0 -0.68260354583E+01 -0.30298151233E+02 -0.31006887392E+01  0.31211968840E+02  0.00000000000E+00 0.  1.
         14    1    4    4    0    0 -0.25783675305E+02  0.42556654817E+02  0.34275185495E+02  0.60420651454E+02  0.00000000000E+00 0. -1.
         -5    1    5    5    0  502 -0.62244366631E+02  0.46437840207E+01  0.52310140419E+02  0.81574301701E+02  0.47000000000E+01 0.  1.
         11    1    6    6    0    0  0.84289744958E+01  0.38858205799E+02  0.78536034044E+02  0.88027929728E+02  0.00000000000E+00 0. -1.
        -12    1    6    6    0    0  0.58014529216E+02 -0.27954841952E+02  0.93507603488E+02  0.11353779414E+03  0.00000000000E+00 0.  1.
</event>
<event>
12    1  0.8133506E-002  0.1917679E+03  0.7818608E-02  0.1159129E+00
         21   -1    0    0  503  502  0.00000000000E+00  0.00000000000E+00  0.15526596571E+03  0.15526596571E+03  0.00000000000E+00 0. -1.
         21   -1    0    0  501  503 -0.00000000000E+00 -0.00000000000E+00 -0.25551654720E+03  0.25551654720E+03  0.00000000000E+00 0.  1.
          6    2    1    2  501    0 -0.12598911048E+01  0.86398531641E+02 -0.12240353585E+03  0.22750286744E+03  0.17119765042E+03 0.  0.
         24    2    3    3    0    0  0.42126091121E+02  0.10806943337E+03 -0.76364636497E+02  0.16046823692E+03  0.80404523318E+02 0.  0.
         -6    2    1    2    0  502  0.12598911048E+01 -0.86398531641E+02  0.22152954360E+02  0.18327964548E+03  0.16010740603E+03 0.  0.
        -24    2    5    5    0    0 -0.17505185692E+02 -0.10602915146E+03  0.51038980920E+02  0.14335494295E+03  0.79981557939E+02 0.  0.
          5    1    3    3  501    0 -0.43385982226E+02 -0.21670901727E+02 -0.46038899352E+02  0.67034630520E+02  0.47000000000E+01 0. -1.
        -13    1    4    4    0    0  0.15338872136E+02  0.21853080774E+02 -0.63997226764E+02  0.69343227291E+02  0.00000000000E+00 0.  1.
         14    1    4    4    0    0  0.26787218985E+02  0.86216352594E+02 -0.12367409733E+02  0.91125009625E+02  0.00000000000E+00 0. -1.
         -5    1    5    5    0  502  0.18765076796E+02  0.19630619818E+02 -0.28886026560E+02  0.39924702529E+02  0.47000000000E+01 0.  1.
         13    1    6    6    0    0  0.29489468161E+02 -0.25511059950E+02  0.47941207497E+01  0.39286467211E+02  0.00000000000E+00 0. -1.
        -14    1    6    6    0    0 -0.46994653852E+02 -0.80518091509E+02  0.46244860171E+02  0.10406847574E+03  0.00000000000E+00 0.  1.
</event>
<event>
12    1  0.8133506E-002  0.2190401E+03  0.7818608E-02  0.1134979E+00
         21   -1    0    0  503  502  0.00000000000E+00  0.00000000000E+00  0.17055667287E+03  0.17055667287E+03  0.00000000000E+00 0.  1.
         21   -1    0    0  501  503 -0.00000000000E+00 -0.00000000000E+00 -0.42480348028E+03  0.42480348028E+03  0.00000000000E+00 0.  1.
          6    2    1    2  501    0  0.13462512661E+03 -0.18612675688E+02 -0.30206265039E+03  0.37312252262E+03  0.17177955559E+03 0.  0.
         24    2    3    3    0    0  0.81724930332E+02  0.11858838860E+02 -0.28266189556E+03  0.30889306479E+03  0.93260827675E+02 0.  0.
         -6    2    1    2    0  502 -0.13462512661E+03  0.18612675688E+02  0.47815842977E+02  0.22223763052E+03  0.16921244980E+03 0.  0.
        -24    2    5    5    0    0 -0.14282653540E+03  0.16994777941E+02 -0.92587740849E+01  0.16436291573E+03  0.79001275170E+02 0.  0.
          5    1    3    3  501    0  0.52900196282E+02 -0.30471514547E+02 -0.19400754831E+02  0.64229457833E+02  0.47000000000E+01 0. -1.
        -11    1    4    4    0    0  0.48253728114E+02  0.21959268869E+02 -0.47610743523E+02  0.71255979854E+02  0.00000000000E+00 0.  1.
         12    1    4    4    0    0  0.33471202218E+02 -0.10100430009E+02 -0.23505115204E+03  0.23763708494E+03  0.00000000000E+00 0. -1.
         -5    1    5    5    0  502  0.82014087868E+01  0.16178977471E+01  0.57074617062E+02  0.57874714790E+02  0.47000000000E+01 0.  1.
         13    1    6    6    0    0 -0.10666792991E+03  0.43904530835E+02  0.90689716240E+01  0.11570609900E+03  0.00000000000E+00 0. -1.
        -14    1    6    6    0    0 -0.36158605492E+02 -0.26909752894E+02 -0.18327745709E+02  0.48656816735E+02  0.00000000000E+00 0.  1.
</event>
<event>
12    1  0.8133506E-002  0.2336763E+03  0.7818608E-02  0.1124097E+00
         21   -1    0    0  501  502  0.00000000000E+00  0.00000000000E+00  0.55529528269E+02  0.55529528269E+02  0.00000000000E+00 0.  1.
         21   -1    0    0  502  503 -0.00000000000E+00 -0.00000000000E+00 -0.17130287465E+04  0.17130287465E+04  0.00000000000E+00 0.  1.
         -6    2    1    2    0  503 -0.13522199652E+03  0.81848701933E+02 -0.14059508937E+04  0.14252200025E+04  0.17195912757E+03 0.  0.
        -24    2    3    3    0    0 -0.84742698886E+02  0.12115404149E+03 -0.11228515837E+04  0.11349436195E+04  0.73767970900E+02 0.  0.
          6    2    1    2  501    0  0.13522199652E+03 -0.81848701933E+02 -0.25154832453E+03  0.34333827231E+03  0.17210581428E+03 0.  0.
         24    2    5    5    0    0  0.98649080430E+02 -0.60305638588E+02 -0.26407026703E+03  0.29883466781E+03  0.78744153038E+02 0.  0.
          5    1    5    5  501    0  0.36572916086E+02 -0.21543063345E+02  0.12521942508E+02  0.44503604500E+02  0.47000000000E+01 0. -1.
        -11    1    6    6    0    0  0.98371671422E+02 -0.37945943722E+02 -0.15477736766E+03  0.18727763861E+03  0.00000000000E+00 0.  1.
         12    1    6    6    0    0  0.27740900780E+00 -0.22359694866E+02 -0.10929289937E+03  0.11155702920E+03  0.00000000000E+00 0. -1.
         -5    1    3    3    0  503 -0.50479297630E+02 -0.39305339561E+02 -0.28309930998E+03  0.29027638298E+03  0.47000000000E+01 0.  1.
         13    1    4    4    0    0 -0.26056210114E+02  0.30016015964E+02 -0.12369994196E+03  0.12992906888E+03  0.00000000000E+00 0. -1.
        -14    1    4    4    0    0 -0.58686488772E+02  0.91138025531E+02 -0.99915164177E+03  0.10050145506E+04  0.00000000000E+00 0.  1.
</event>
<event>
12    1  0.8133506E-002  0.1774280E+03  0.7818608E-02  0.1170442E+00
         21   -1    0    0  501  502  0.00000000000E+00  0.00000000000E+00  0.10496644572E+03  0.10496644572E+03  0.00000000000E+00 0. -1.
         21   -1    0    0  502  503 -0.00000000000E+00 -0.00000000000E+00 -0.30029851144E+03  0.30029851144E+03  0.00000000000E+00 0.  1.
         -6    2    1    2    0  503 -0.23283256085E+02  0.31634322106E+02 -0.84724443424E+02  0.19661869494E+03  0.17302554591E+03 0.  0.
        -24    2    3    3    0    0  0.36995434317E+02  0.63634518237E+02 -0.50444196131E+02  0.12010230177E+03  0.80386142438E+02 0.  0.
          6    2    1    2  501    0  0.23283256085E+02 -0.31634322106E+02 -0.11060762230E+03  0.20864626222E+03  0.17250036603E+03 0.  0.
         24    2    5    5    0    0 -0.38848338611E+02  0.55389732220E+01 -0.17368257171E+02  0.90502882573E+02  0.79682129488E+02 0.  0.
          5    1    5    5  501    0  0.62131594696E+02 -0.37173295328E+02 -0.93239365130E+02  0.11814337965E+03  0.47000000000E+01 0. -1.
        -11    1    6    6    0    0 -0.31992276690E+02 -0.30010511660E+02 -0.28872637513E+02  0.52514433967E+02  0.00000000000E+00 0.  1.
         12    1    6    6    0    0 -0.68560619207E+01  0.35549484882E+02  0.11504380343E+02  0.37988448606E+02  0.00000000000E+00 0. -1.
         -5    1    3    3    0  503 -0.60278690403E+02 -0.32000196131E+02 -0.34280247293E+02  0.76516393169E+02  0.47000000000E+01 0.  1.
         11    1    4    4    0    0  0.26913883427E+02  0.59182775693E+02 -0.71313578887E+02  0.96501733629E+02  0.00000000000E+00 0. -1.
        -12    1    4    4    0    0  0.10081550890E+02  0.44517425444E+01  0.20869382756E+02  0.23600568142E+02  0.00000000000E+00 0.  1.
</event>
<event>
12    1  0.8133506E-002  0.2610617E+03  0.7818608E-02  0.1106987E+00
         21   -1    0    0  501  502  0.00000000000E+00  0.00000000000E+00  0.40989301927E+02  0.40989301927E+02  0.00000000000E+00 0. -1.
         21   -1    0    0  502  503 -0.00000000000E+00 -0.00000000000E+00 -0.16786745008E+04  0.16786745008E+04  0.00000000000E+00 0.  1.
         -6    2    1    2    0  503 -0.15059182546E+03 -0.11929249224E+03 -0.69744907449E+03  0.74470693231E+03  0.17676144072E+03 0.  0.
        -24    2    3    3    0    0 -0.37665258500E+02 -0.10807158629E+03 -0.47927944600E+03  0.49874271733E+03  0.77054339734E+02 0.  0.
          6    2    1    2  501    0  0.15059182546E+03  0.11929249224E+03 -0.94023612439E+03  0.97495687043E+03  0.17201259540E+03 0.  0.
         24    2    5    5    0    0  0.52716910527E+02  0.41480909104E+02 -0.65684212785E+03  0.66516921942E+03  0.80676954955E+02 0.  0.
          5    1    5    5  501    0  0.97874914933E+02  0.77811583132E+02 -0.28339399654E+03  0.30978765101E+03  0.47000000000E+01 0. -1.
        -11    1    6    6    0    0  0.33613039632E+02  0.65445787835E+02 -0.49690586806E+03  0.50232303281E+03  0.00000000000E+00 0.  1.
         12    1    6    6    0    0  0.19103870895E+02 -0.23964878731E+02 -0.15993625979E+03  0.16284618661E+03  0.00000000000E+00 0. -1.
         -5    1    3    3    0  503 -0.11292656696E+03 -0.11220905945E+02 -0.21816962849E+03  0.24596421498E+03  0.47000000000E+01 0.  1.
         11    1    4    4    0    0 -0.16461318321E+02 -0.25846546561E+02 -0.35429507632E+02  0.46843024892E+02  0.00000000000E+00 0. -1.
        -12    1    4    4    0    0 -0.21203940179E+02 -0.82225039730E+02 -0.44384993837E+03  0.45189969244E+03  0.00000000000E+00 0.  1.
</event>
<event>
12    1  0.8133506E-002  0.2006544E+03  0.7818608E-02  0.1149220E+00
         21   -1    0    0  501  502  0.00000000000E+00  0.00000000000E+00  0.10788549111E+04  0.10788549111E+04  0.00000000000E+00 0. -1.
         21   -1    0    0  502  503 -0.00000000000E+00 -0.00000000000E+00 -0.20886042268E+03  0.20886042268E+03  0.00000000000E+00 0. -1.
         -6    2    1    2    0  503  0.13667418867E+02 -0.10196436147E+03 -0.14852829705E+03  0.24964545049E+03  0.17227497374E+03 0.  0.
        -24    2    3    3    0    0 -0.38691200140E+02 -0.55822996408E+02 -0.14556056493E+03  0.17963582267E+03  0.80423471875E+02 0.  0.
          6    2    1    2  501    0 -0.13667418867E+02  0.10196436147E+03  0.10185227855E+04  0.10380698833E+04  0.17209558016E+03 0.  0.
         24    2    5    5    0    0 -0.12550332099E+02  0.14063022799E+03  0.82597419395E+03  0.84161798787E+03  0.78441676204E+02 0.  0.
          5    1    5    5  501    0 -0.11170867678E+01 -0.38665866524E+02  0.19254859151E+03  0.19645189541E+03  0.47000000000E+01 0. -1.
        -11    1    6    6    0    0 -0.17678412923E+02  0.10075163049E+03  0.37015157348E+03  0.38402552608E+03  0.00000000000E+00 0.  1.
         12    1    6    6    0    0  0.51280808241E+01  0.39878597501E+02  0.45582262048E+03  0.45759246179E+03  0.00000000000E+00 0. -1.
         -5    1    3    3    0  503  0.52358619007E+02 -0.46141365060E+02 -0.29677321267E+01  0.70009627823E+02  0.47000000000E+01 0.  1.
         13    1    4    4    0    0 -0.56449142164E+02 -0.19968047968E+02 -0.57978916621E+02  0.83347365665E+02  0.00000000000E+00 0. -1.
        -14    1    4    4    0    0  0.17757942024E+02 -0.35854948440E+02 -0.87581648306E+02  0.96288457006E+02  0.00000000000E+00 0.  1.
</event>
<event>
12    1  0.8133506E-002  0.2510565E+03  0.7818608E-02  0.1112691E+00
         21   -1    0    0  501  502  0.00000000000E+00  0.00000000000E+00  0.26847156481E+03  0.26847156481E+03  0.00000000000E+00 0. -1.
         21   -1    0    0  502  503 -0.00000000000E+00 -0.00000000000E+00 -0.38789580269E+03  0.38789580269E+03  0.00000000000E+00 0.  1.
         -6    2    1    2    0  503  0.10904009469E+03 -0.14585150042E+03 -0.26614187850E+03  0.36586999823E+03  0.17282058237E+03 0.  0.
        -24    2    3    3    0    0  0.19812206919E+02 -0.13675734219E+03 -0.17455264895E+03  0.23759296740E+03  0.82986123636E+02 0.  0.
          6    2    1    2  501    0 -0.10904009469E+03  0.14585150042E+03  0.14671764061E+03  0.29049736927E+03  0.17233761360E+03 0.  0.
         24    2    5    5    0    0 -0.52769491469E+02  0.14741021777E+02  0.21111863094E+02  0.10035205709E+03  0.81381248741E+02 0.  0.
          5    1    5    5  501    0 -0.56270603224E+02  0.13111047864E+03  0.12560577752E+03  0.19014531218E+03  0.47000000000E+01 0. -1.
        -11    1    6    6    0    0 -0.63438801337E+02  0.49467100099E+01  0.41039064121E+02  0.75717608513E+02  0.00000000000E+00 0.  1.
         12    1    6    6    0    0  0.10669309869E+02  0.97943117672E+01 -0.19927201027E+02  0.24634448580E+02  0.00000000000E+00 0. -1.
         -5    1    3    3    0  503  0.89227887774E+02 -0.90941582328E+01 -0.91589229543E+02  0.12827703083E+03  0.47000000000E+01 0.  1.
         11    1    4    4    0    0  0.49514958597E+01 -0.13653392300E+02  0.82501431218E+01  0.16703212088E+02  0.00000000000E+00 0. -1.
        -12    1    4    4    0    0  0.14860711059E+02 -0.12310394989E+03 -0.18280279207E+03  0.22088975531E+03  0.00000000000E+00 0.  1.
</event>
<event>
12    1  0.8133506E-002  0.2107779E+03  0.7818608E-02  0.1141832E+00
         21   -1    0    0  503  502  0.00000000000E+00  0.00000000000E+00  0.27704813677E+03  0.27704813677E+03  0.00000000000E+00 0.  1.
         21   -1    0    0  501  503 -0.00000000000E+00 -0.00000000000E+00 -0.15858848010E+03  0.15858848010E+03  0.00000000000E+00 0.  1.
          6    2    1    2  501    0 -0.52089269925E+02 -0.10677867974E+03  0.81555311652E+02  0.22600569991E+03  0.17410436251E+03 0.  0.
         24    2    3    3    0    0  0.17949725771E+02 -0.16523280963E+02 -0.26517949464E+01  0.84004204397E+02  0.80339671837E+02 0.  0.
         -6    2    1    2    0  502  0.52089269925E+02  0.10677867974E+03  0.36904345021E+02  0.20963091696E+03  0.16872525648E+03 0.  0.
        -24    2    5    5    0    0  0.82163994633E+02  0.31294208292E+02  0.49929604106E+02  0.12720433223E+03  0.77186315400E+02 0.  0.
          5    1    3    3  501    0 -0.70038995696E+02 -0.90255398777E+02  0.84207106599E+02  0.14200149551E+03  0.47000000000E+01 0. -1.
        -11    1    4    4    0    0  0.35326752435E+02 -0.35303058031E+02  0.15885963247E+02  0.52408483781E+02  0.00000000000E+00 0.  1.
         12    1    4    4    0    0 -0.17377026664E+02  0.18779777068E+02 -0.18537758193E+02  0.31595720616E+02  0.00000000000E+00 0. -1.
         -5    1    5    5    0  502 -0.30074724709E+02  0.75484471448E+02 -0.13025259085E+02  0.82426584730E+02  0.47000000000E+01 0.  1.
         11    1    6    6    0    0  0.26944643346E+02 -0.14994353332E+02  0.45564687442E+02  0.55018044118E+02  0.00000000000E+00 0. -1.
        -12    1    6    6    0    0  0.55219351288E+02  0.46288561625E+02  0.43649166643E+01  0.72186288112E+02  0.00000000000E+00 0.  1.
</event>
<event>
12    1  0.8133506E-002  0.1912479E+03  0.7818608E-02  0.1157372E+00
         21   -1    0    0  503  502  0.00000000000E+00  0.00000000000E+00  0.86221783372E+02  0.86221783372E+02  0.00000000000E+00 0.  1.
         21   -1    0    0  501  503 -0.00000000000E+00 -0.00000000000E+00 -0.78602464181E+03  0.78602464181E+03  0.00000000000E+00 0. -1.
          6    2    1    2  501    0  0.74270147705E+02 -0.48485747389E+02 -0.64599106228E+03  0.67370632612E+03  0.16943682827E+03 0.  0.
         24    2    3    3    0    0  0.62810466844E+02 -0.93008021412E+02 -0.39897180370E+03  0.42240140918E+03  0.81540195859E+02 0.  0.
         -6    2    1    2    0  502 -0.74270147705E+02  0.48485747389E+02 -0.53811796156E+02  0.19854009905E+03  0.16927947007E+03 0.  0.
        -24    2    5    5    0    0 -0.66056878326E+02 -0.20867068247E+01 -0.89622785350E+02  0.13585399321E+03  0.77821579894E+02 0.  0.
          5    1    3    3  501    0  0.11459680862E+02  0.44522274023E+02 -0.24701925858E+03  0.25130491694E+03  0.47000000000E+01 0. -1.
        -11    1    4    4    0    0  0.45670656473E+01 -0.20625093366E+02 -0.11714233393E+02  0.24155244337E+02  0.00000000000E+00 0.  1.
         12    1    4    4    0    0  0.58243401196E+02 -0.72382928046E+02 -0.38725757031E+03  0.39824616485E+03  0.00000000000E+00 0. -1.
         -5    1    5    5    0  502 -0.82132693799E+01  0.50572454213E+02  0.35810989194E+02  0.62686105846E+02  0.47000000000E+01 0.  1.
         13    1    6    6    0    0 -0.78470373123E+02 -0.94917031342E+01 -0.49636230949E+02  0.93335134377E+02  0.00000000000E+00 0. -1.
        -14    1    6    6    0    0  0.12413494797E+02  0.74049963095E+01 -0.39986554401E+02  0.42518858831E+02  0.00000000000E+00 0.  1.
</event>
<event>
12    1  0.8133506E-002  0.1781740E+03  0.7818608E-02  0.1169927E+00
         21   -1    0    0  503  502  0.00000000000E+00  0.00000000000E+00  0.75159434023E+02  0.75159434023E+02  0.00000000000E+00 0. -1.
         21   -1    0    0  501  503 -0.00000000000E+00 -0.00000000000E+00 -0.45181652033E+03  0.45181652033E+03  0.00000000000E+00 0. -1.
          6    2    1    2  501    0 -0.88268215133E+01  0.39084281595E+02 -0.25858019120E+03  0.31322816293E+03  0.17217047635E+03 0.  0.
         24    2    3    3    0    0 -0.55748979999E+02  0.69765339849E+02 -0.17473919563E+03  0.21226074823E+03  0.80905422173E+02 0.  0.
         -6    2    1    2    0  502  0.88268215133E+01 -0.39084281595E+02 -0.11807689511E+03  0.21374779142E+03  0.17361011299E+03 0.  0.
        -24    2    5    5    0    0  0.71612655904E+02 -0.20599948996E+02 -0.50960356817E+02  0.11988378733E+03  0.78882406871E+02 0.  0.
          5    1    3    3  501    0  0.46922158486E+02 -0.30681058254E+02 -0.83840995570E+02  0.10096741470E+03  0.47000000000E+01 0. -1.
        -13    1    4    4    0    0 -0.64335273605E+02  0.31278874253E+02 -0.68925799859E+02  0.99338619331E+02  0.00000000000E+00 0.  1.
         14    1    4    4    0    0  0.85862936052E+01  0.38486465596E+02 -0.10581339577E+03  0.11292212890E+03  0.00000000000E+00 0. -1.
         -5    1    5    5    0  502 -0.62785834391E+02 -0.18484332599E+02 -0.67116538295E+02  0.93864004093E+02  0.47000000000E+01 0.  1.
         13    1    6    6    0    0 -0.10001727734E+02 -0.22876414536E+02 -0.28809040178E+01  0.25132936710E+02  0.00000000000E+00 0. -1.
        -14    1    6    6    0    0  0.81614383638E+02  0.22764655405E+01 -0.48079452799E+02  0.94750850621E+02  0.00000000000E+00 0.  1.
</event>
<event>
12    1  0.8133506E-002  0.1968990E+03  0.7818608E-02  0.1152715E+00
         21   -1    0    0  503  502  0.00000000000E+00  0.00000000000E+00  0.25168922958E+04  0.25168922958E+04  0.00000000000E+00 0.  1.
         21   -1    0    0  501  503 -0.00000000000E+00 -0.00000000000E+00 -0.20873651300E+02  0.20873651300E+02  0.00000000000E+00 0. -1.
          6    2    1    2  501    0 -0.75365662300E+02 -0.53136745728E+02  0.59493827660E+03  0.62667437970E+03  0.17397048143E+03 0.  0.
         24    2    3    3    0    0 -0.10892720061E+02 -0.90827443557E+02  0.38341639286E+03  0.40230649812E+03  0.80461868381E+02 0.  0.
         -6    2    1    2    0  502  0.75365662300E+02  0.53136745728E+02  0.19010803679E+04  0.19110915674E+04  0.17222345069E+03 0.  0.
        -24    2    5    5    0    0  0.73089439726E+01  0.99866070461E+01  0.40730230740E+03  0.41513413638E+03  0.79297090711E+02 0.  0.
          5    1    3    3  501    0 -0.64472942239E+02  0.37690697829E+02  0.21152188374E+03  0.22436788158E+03  0.47000000000E+01 0. -1.
        -13    1    4    4    0    0 -0.19496087652E+02 -0.78369393020E+02  0.37751614651E+03  0.38605737925E+03  0.00000000000E+00 0.  1.
         14    1    4    4    0    0  0.86033675913E+01 -0.12458050537E+02  0.59002463463E+01  0.16249118870E+02  0.00000000000E+00 0. -1.
         -5    1    5    5    0  502  0.68056718327E+02  0.43150138682E+02  0.14937780605E+04  0.14959574310E+04  0.47000000000E+01 0.  1.
         13    1    6    6    0    0  0.37223892691E+02  0.19275380773E+02  0.14406237268E+03  0.15003708113E+03  0.00000000000E+00 0. -1.
        -14    1    6    6    0    0 -0.29914948719E+02 -0.92887737267E+01  0.26323993471E+03  0.26509705525E+03  0.00000000000E+00 0.  1.
</event>
<event>
12    1  0.8133506E-002  0.2940223E+03  0.7818608E-02  0.1088412E+00
         21   -1    0    0  503  502  0.00000000000E+00  0.00000000000E+00  0.75059751368E+03  0.75059751368E+03  0.00000000000E+00 0. -1.
         21   -1    0    0  501  503 -0.00000000000E+00 -0.00000000000E+00 -0.11639148469E+03  0.11639148469E+03  0.00000000000E+00 0.  1.
          6    2    1    2  501    0 -0.22914867714E+03 -0.64249715400E+02  0.36945267377E+03  0.47216987803E+03  0.17266144154E+03 0.  0.
         24    2    3    3    0    0 -0.12364964463E+03 -0.94697994527E+02  0.27612533762E+03  0.32798518662E+03  0.84095991470E+02 0.  0.
         -6    2    1    2    0  502  0.22914867714E+03  0.64249715400E+02  0.26475335523E+03  0.39481912034E+03  0.17073563342E+03 0.  0.
        -24    2    5    5    0    0  0.41117940231E+02  0.32656768201E+02  0.13035624293E+03  0.16149885520E+03  0.79573743405E+02 0.  0.
          5    1    3    3  501    0 -0.10549903252E+03  0.30448279127E+02  0.93327336148E+02  0.14418469141E+03  0.47000000000E+01 0. -1.
        -11    1    4    4    0    0 -0.79164108578E+02 -0.95031322194E+01  0.10672541636E+03  0.13322004393E+03  0.00000000000E+00 0.  1.
         12    1    4    4    0    0 -0.44485536050E+02 -0.85194862307E+02  0.16939992127E+03  0.19476514269E+03  0.00000000000E+00 0. -1.
         -5    1    5    5    0  502  0.18803073691E+03  0.31592947199E+02  0.13439711229E+03  0.23332026515E+03  0.47000000000E+01 0.  1.
         13    1    6    6    0    0  0.58196740214E+02  0.44363105547E+02  0.88775244754E+02  0.11504777176E+03  0.00000000000E+00 0. -1.
        -14    1    6    6    0    0 -0.17078799983E+02 -0.11706337346E+02  0.41580998180E+02  0.46451083438E+02  0.00000000000E+00 0.  1.
</event>
<event>
12    1  0.8133506E-002  0.3387665E+03  0.7818608E-02  0.1067332E+00
         21   -1    0    0  503  502  0.00000000000E+00  0.00000000000E+00  0.50384433996E+03  0.50384433996E+03  0.00000000000E+00 0.  1.
         21   -1    0    0  501  503 -0.00000000000E+00 -0.00000000000E+00 -0.24217669852E+03  0.24217669852E+03  0.00000000000E+00 0.  1.
          6    2    1    2  501    0  0.24050206217E+03 -0.16493046217E+03  0.22199857957E+03  0.40502608826E+03  0.17239333974E+03 0.  0.
         24    2    3    3    0    0  0.24187689228E+03 -0.13837618045E+03  0.23658439433E+03  0.37433641529E+03  0.80642283214E+02 0.  0.
         -6    2    1    2    0  502 -0.24050206217E+03  0.16493046217E+03  0.39669061868E+02  0.34099495021E+03  0.17222259532E+03 0.  0.
        -24    2    5    5    0    0 -0.22398001674E+03  0.18849343601E+03  0.54074191468E+02  0.30847127452E+03  0.80831217391E+02 0.  0.
          5    1    3    3  501    0 -0.13748301040E+01 -0.26554281712E+02 -0.14585814756E+02  0.30689672973E+02  0.47000000000E+01 0. -1.
        -13    1    4    4    0    0  0.72028908797E+02 -0.55318623425E+01  0.40155738761E+02  0.82651367556E+02  0.00000000000E+00 0.  1.
         14    1    4    4    0    0  0.16984798348E+03 -0.13284431811E+03  0.19642865556E+03  0.29168504774E+03  0.00000000000E+00 0. -1.
         -5    1    5    5    0  502 -0.16522045427E+02 -0.23562973840E+02 -0.14405129600E+02  0.32523675686E+02  0.47000000000E+01 0.  1.
         11    1    6    6    0    0 -0.53557974550E+02  0.88524916976E+02 -0.59994827067E+00  0.10346727744E+03  0.00000000000E+00 0. -1.
        -12    1    6    6    0    0 -0.17042204219E+03  0.99968519030E+02  0.54674139739E+02  0.20500399708E+03  0.00000000000E+00 0.  1.
</event>
<event>
12    1  0.8133506E-002  0.1908932E+03  0.7818608E-02  0.1158433E+00
         21   -1    0    0  501  502  0.00000000000E+00  0.00000000000E+00  0.56205506761E+03  0.56205506761E+03  0.00000000000E+00 0.  1.
         21   -1    0    0  502  503 -0.00000000000E+00 -0.00000000000E+00 -0.20716461754E+03  0.20716461754E+03  0.00000000000E+00 0.  1.
         -6    2    1    2    0  503  0.43332634033E+02 -0.62101286247E+02 -0.14214672231E+03  0.23800397027E+03  0.17523102543E+03 0.  0.
        -24    2    3    3    0    0  0.76453584926E+02 -0.16620481660E+01 -0.12469654370E+03  0.16675442556E+03  0.80061834733E+02 0.  0.
          6    2    1    2  501    0 -0.43332634033E+02  0.62101286247E+02  0.49703717238E+03  0.53121571489E+03  0.17149314297E+03 0.  0.
         24    2    5    5    0    0 -0.55093779543E+02  0.88949634155E+02  0.47788965859E+03  0.49589043196E+03  0.81126030145E+02 0.  0.
          5    1    5    5  501    0  0.11761145509E+02 -0.26848347908E+02  0.19147513795E+02  0.35325282924E+02  0.47000000000E+01 0. -1.
        -11    1    6    6    0    0 -0.42753022845E+02  0.74732342629E+02  0.20491872808E+03  0.22227107125E+03  0.00000000000E+00 0.  1.
         12    1    6    6    0    0 -0.12340756698E+02  0.14217291526E+02  0.27297093051E+03  0.27361936072E+03  0.00000000000E+00 0. -1.
         -5    1    3    3    0  503 -0.33120950892E+02 -0.60439238081E+02 -0.17450178616E+02  0.71249544711E+02  0.47000000000E+01 0.  1.
         11    1    4    4    0    0  0.48105040451E+02 -0.14231061099E+02 -0.14414868739E+02  0.52195847130E+02  0.00000000000E+00 0. -1.
        -12    1    4    4    0    0  0.28348544475E+02  0.12569012933E+02 -0.11028167496E+03  0.11455857843E+03  0.00000000000E+00 0.  1.
</event>
<event>
12    1  0.8133506E-002  0.1896087E+03  0.7818608E-02  0.1158921E+00
         21   -1    0    0  501  502  0.00000000000E+00  0.00000000000E+00  0.16163375601E+03  0.16163375601E+03  0.00000000000E+00 0.  1.
         21   -1    0    0  502  503 -0.00000000000E+00 -0.00000000000E+00 -0.22371824288E+03  0.22371824288E+03  0.00000000000E+00 0.  1.
         -6    2    1    2    0  503  0.32169573775E+02 -0.72767052585E+02 -0.13521140088E+02  0.18962294648E+03  0.17159287626E+03 0.  0.
        -24    2    3    3    0    0  0.62802848492E+02 -0.28297550506E+02 -0.57386861756E+02  0.11989328512E+03  0.79600243545E+02 0.  0.
          6    2    1    2  501    0 -0.32169573775E+02  0.72767052585E+02 -0.48563346780E+02  0.19572905242E+03  0.17210908718E+03 0.  0.
         24    2    5    5    0    0 -0.55323768067E+02  0.28999107726E+02 -0.70164315015E+02  0.14150321412E+03  0.10582278083E+03 0.  0.
          5    1    5    5  501    0  0.23154194292E+02  0.43767944859E+02  0.21600968235E+02  0.54225838298E+02  0.47000000000E+01 0. -1.
        -13    1    6    6    0    0  0.12733803593E+02  0.13245667314E+02  0.20186293354E+02  0.27296224939E+02  0.00000000000E+00 0.  1.
         14    1    6    6    0    0 -0.68057571660E+02  0.15753440411E+02 -0.90350608369E+02  0.11420698918E+03  0.00000000000E+00 0. -1.
         -5    1    3    3    0  503 -0.30633274718E+02 -0.44469502079E+02  0.43865721668E+02  0.69729661354E+02  0.47000000000E+01 0.  1.
         13    1    4    4    0    0  0.75973889320E+02 -0.15793970973E+02 -0.22883044299E+02  0.80901885602E+02  0.00000000000E+00 0. -1.
        -14    1    4    4    0    0 -0.13171040828E+02 -0.12503579532E+02 -0.34503817458E+02  0.38991399523E+02  0.00000000000E+00 0.  1.
</event>
<event>
12    1  0.8133506E-002  0.2761568E+03  0.7818608E-02  0.1097886E+00
         21   -1    0    0  501  502  0.00000000000E+00  0.00000000000E+00  0.28710321388E+03  0.28710321388E+03  0.00000000000E+00 0.  1.
         21   -1    0    0  502  503 -0.00000000000E+00 -0.00000000000E+00 -0.27412807413E+03  0.27412807413E+03  0.00000000000E+00 0.  1.
         -6    2    1    2    0  503  0.19568163912E+03  0.91902919394E+02  0.57480804875E+02  0.28207557120E+03  0.17182879402E+03 0.  0.
        -24    2    3    3    0    0  0.84784185211E+02 -0.13350658086E+02 -0.40089981305E+01  0.11721306263E+03  0.79725979787E+02 0.  0.
          6    2    1    2  501    0 -0.19568163912E+03 -0.91902919394E+02 -0.44505665126E+02  0.27915571681E+03  0.17090848286E+03 0.  0.
         24    2    5    5    0    0 -0.75680911236E+02 -0.98668027563E+02  0.72039143526E+01  0.14822859207E+03  0.80354459341E+02 0.  0.
          5    1    5    5  501    0 -0.12000072789E+03  0.67651081691E+01 -0.51709579478E+02  0.13092712474E+03  0.47000000000E+01 0. -1.
        -13    1    6    6    0    0  0.11549737352E+02 -0.42198863391E+02 -0.27658163607E+01  0.43838228118E+02  0.00000000000E+00 0.  1.
         14    1    6    6    0    0 -0.87230648588E+02 -0.56469164172E+02  0.99697307133E+01  0.10439036395E+03  0.00000000000E+00 0. -1.
         -5    1    3    3    0  503  0.11089745391E+03  0.10525357748E+03  0.61489803005E+02  0.16486250857E+03  0.47000000000E+01 0.  1.
         11    1    4    4    0    0  0.46884551657E+02  0.10687829044E+02  0.33596055114E+02  0.58660768773E+02  0.00000000000E+00 0. -1.
        -12    1    4    4    0    0  0.37899633554E+02 -0.24038487130E+02 -0.37605053244E+02  0.58552293862E+02  0.00000000000E+00 0.  1.
</event>
<event>
12    1  0.8133506E-002  0.1838254E+03  0.7818608E-02  0.1165982E+00
         21   -1    0    0  501  502  0.00000000000E+00  0.00000000000E+00  0.27355442399E+03  0.27355442399E+03  0.00000000000E+00 0. -1.
         21   -1    0    0  502  503 -0.00000000000E+00 -0.00000000000E+00 -0.16689416746E+03  0.16689416746E+03  0.00000000000E+00 0. -1.
         -6    2    1    2    0  503 -0.62353546818E+02  0.17880546495E+02 -0.66072928449E+02  0.18820161020E+03  0.16384912409E+03 0.  0.
        -24    2    3    3    0    0 -0.20023874625E+02  0.58569654571E+01  0.25647910846E+02  0.86362668681E+02  0.79783680109E+02 0.  0.
          6    2    1    2  501    0  0.62353546818E+02 -0.17880546495E+02  0.17273318498E+03  0.25224698125E+03  0.17200031283E+03 0.  0.
         24    2    5    5    0    0  0.80712916945E+02  0.21260338822E+02  0.49340330478E+02  0.12141517351E+03  0.73079403239E+02 0.  0.
          5    1    5    5  501    0 -0.18359370127E+02 -0.39140885317E+02  0.12339285450E+03  0.13083180774E+03  0.47000000000E+01 0. -1.
        -13    1    6    6    0    0 -0.10780113095E+02  0.95645438818E+01 -0.38803575568E+01  0.14924761733E+02  0.00000000000E+00 0.  1.
         14    1    6    6    0    0  0.91493030040E+02  0.11695794940E+02  0.53220688035E+02  0.10649041178E+03  0.00000000000E+00 0. -1.
         -5    1    3    3    0  503 -0.42329672194E+02  0.12023581038E+02 -0.91720839294E+02  0.10183894152E+03  0.47000000000E+01 0.  1.
         11    1    4    4    0    0 -0.45917037243E+02  0.11013922242E+02  0.34539966438E+02  0.58503761195E+02  0.00000000000E+00 0. -1.
        -12    1    4    4    0    0  0.25893162619E+02 -0.51569567847E+01 -0.88920555928E+01  0.27858907487E+02  0.00000000000E+00 0.  1.
</event>
<event>
12    1  0.8133506E-002  0.1991032E+03  0.7818608E-02  0.1151395E+00
         21   -1    0    0  503  502  0.00000000000E+00  0.00000000000E+00  0.53792150746E+03  0.53792150746E+03  0.00000000000E+00 0. -1.
         21   -1    0    0  501  503 -0.00000000000E+00 -0.00000000000E+00 -0.74221268289E+02  0.74221268289E+02  0.00000000000E+00 0. -1.
          6    2    1    2  501    0 -0.12630520062E+02  0.94199249491E+02  0.18317766937E+03  0.27054787832E+03  0.17495447198E+03 0.  0.
         24    2    3    3    0    0 -0.82972368218E+01  0.10795835510E+03  0.61208731379E+02  0.14763896015E+03  0.79541832910E+02 0.  0.
         -6    2    1    2    0  502  0.12630520062E+02 -0.94199249491E+02  0.28052256980E+03  0.34159489742E+03  0.17017970836E+03 0.  0.
        -24    2    5    5    0    0 -0.30151257686E+02 -0.94595572912E+02  0.12205277318E+03  0.17738404511E+03  0.81919468149E+02 0.  0.
          5    1    3    3  501    0 -0.43332832400E+01 -0.13759105613E+02  0.12196893799E+03  0.12290891817E+03  0.47000000000E+01 0. -1.
        -13    1    4    4    0    0 -0.33401349425E+02  0.10361214639E+03  0.50391326848E+02  0.11996004687E+03  0.00000000000E+00 0.  1.
         14    1    4    4    0    0  0.25104112603E+02  0.43462087098E+01  0.10817404531E+02  0.27678913283E+02  0.00000000000E+00 0. -1.
         -5    1    5    5    0  502  0.42781777748E+02  0.39632342089E+00  0.15846979662E+03  0.16421085232E+03  0.47000000000E+01 0.  1.
         13    1    6    6    0    0  0.96571372409E+01 -0.75803609812E+02  0.45107526853E+02  0.88736331561E+02  0.00000000000E+00 0. -1.
        -14    1    6    6    0    0 -0.39808394927E+02 -0.18791963100E+02  0.76945246330E+02  0.88647713544E+02  0.00000000000E+00 0.  1.
</event>
<event>
12    1  0.8133506E-002  0.1849994E+03  0.7818608E-02  0.1163188E+00
         21   -1    0    0  501  502  0.00000000000E+00  0.00000000000E+00  0.27403144925E+03  0.27403144925E+03  0.00000000000E+00 0.  1.
         21   -1    0    0  502  503 -0.00000000000E+00 -0.00000000000E+00 -0.30399896164E+03  0.30399896164E+03  0.00000000000E+00 0.  1.
         -6    2    1    2    0  503 -0.46597001794E+01  0.69294510594E+02 -0.23705845965E+03  0.30034093777E+03  0.17083478453E+03 0.  0.
        -24    2    3    3    0    0  0.34891193305E+02  0.10435468185E+02 -0.20333306148E+03  0.22167612651E+03  0.80434301187E+02 0.  0.
          6    2    1    2  501    0  0.46597001794E+01 -0.69294510594E+02  0.20709094727E+03  0.27768947312E+03  0.17146819249E+03 0.  0.
         24    2    5    5    0    0 -0.25933712080E+02 -0.85377495636E+02  0.74586123634E+02  0.14067035924E+03  0.79140292809E+02 0.  0.
          5    1    5    5  501    0  0.30593412259E+02  0.16082985043E+02  0.13250482363E+03  0.13701911388E+03  0.47000000000E+01 0. -1.
        -13    1    6    6    0    0  0.15958645114E+02 -0.68129346095E+01 -0.81110254247E+01  0.19154194457E+02  0.00000000000E+00 0.  1.
         14    1    6    6    0    0 -0.41892357193E+02 -0.78564561027E+02  0.82697149059E+02  0.12151616478E+03  0.00000000000E+00 0. -1.
         -5    1    3    3    0  503 -0.39550893485E+02  0.58859042409E+02 -0.33725398173E+02  0.78664811260E+02  0.47000000000E+01 0.  1.
         13    1    4    4    0    0  0.52619186767E+02  0.19013102218E+02 -0.85301743065E+02  0.10201305917E+03  0.00000000000E+00 0. -1.
        -14    1    4    4    0    0 -0.17727993462E+02 -0.85776340327E+01 -0.11803131842E+03  0.11966306734E+03  0.00000000000E+00 0.  1.
</event>
<event>
12    1  0.8133506E-002  0.2468628E+03  0.7818608E-02  0.1115526E+00
         21   -1    0    0  501  502  0.00000000000E+00  0.00000000000E+00  0.81770398593E+03  0.81770398593E+03  0.00000000000E+00 0. -1.
         21   -1    0    0  502  503 -0.00000000000E+00 -0.00000000000E+00 -0.95381555403E+02  0.95381555403E+02  0.00000000000E+00 0.  1.
         -6    2    1    2    0  503  0.14350382575E+03 -0.98109301854E+02  0.14478578517E+03  0.28500130029E+03  0.17333215070E+03 0.  0.
        -24    2    3    3    0    0  0.13883157888E+03 -0.13195524176E+03  0.11038834289E+03  0.23629142887E+03  0.83436562666E+02 0.  0.
          6    2    1    2  501    0 -0.14350382575E+03  0.98109301854E+02  0.57753664536E+03  0.62808424104E+03  0.17527821883E+03 0.  0.
         24    2    5    5    0    0 -0.26000888477E+02  0.98335082684E+02  0.28681133407E+03  0.31447574647E+03  0.79299552814E+02 0.  0.
          5    1    5    5  501    0 -0.11750293728E+03 -0.22578083022E+00  0.29072531129E+03  0.31360849458E+03  0.47000000000E+01 0. -1.
        -11    1    6    6    0    0 -0.49661584288E+02  0.35660464218E+02  0.15487056844E+03  0.16650175564E+03  0.00000000000E+00 0.  1.
         12    1    6    6    0    0  0.23660695811E+02  0.62674618466E+02  0.13194076563E+03  0.14797399083E+03  0.00000000000E+00 0. -1.
         -5    1    3    3    0  503  0.46722468737E+01  0.33845939902E+02  0.34397442279E+02  0.48709871423E+02  0.47000000000E+01 0.  1.
         13    1    4    4    0    0  0.44619845365E+02  0.99100619375E+00  0.35178353729E+02  0.56828067579E+02  0.00000000000E+00 0. -1.
        -14    1    4    4    0    0  0.94211733515E+02 -0.13294624795E+03  0.75209989161E+02  0.17946336129E+03  0.00000000000E+00 0.  1.
</event>
<event>
12    1  0.8133506E-002  0.1858531E+03  0.7818608E-02  0.1162282E+00
         21   -1    0    0  503  502  0.00000000000E+00  0.00000000000E+00  0.62207768167E+03  0.62207768167E+03  0.00000000000E+00 0. -1.
         21   -1    0    0  501  503 -0.00000000000E+00 -0.00000000000E+00 -0.85181184368E+02  0.85181184368E+02  0.00000000000E+00 0. -1.
          6    2    1    2  501    0 -0.66304919054E+02  0.20132014050E+02  0.59621571541E+02  0.19507460724E+03  0.17233029425E+03 0.  0.
         24    2    3    3    0    0 -0.28850639091E+02 -0.35952119836E+02  0.80890344778E+02  0.12420357030E+03  0.82209273812E+02 0.  0.
         -6    2    1    2    0  502  0.66304919054E+02 -0.20132014050E+02  0.47727492576E+03  0.51218425880E+03  0.17245208008E+03 0.  0.
        -24    2    5    5    0    0 -0.22622898031E+02 -0.44794728869E+00  0.31840666908E+03  0.32899901891E+03  0.79658969063E+02 0.  0.
          5    1    3    3  501    0 -0.37454279963E+02  0.56084133886E+02 -0.21268773238E+02  0.70871036936E+02  0.47000000000E+01 0. -1.
        -13    1    4    4    0    0 -0.49454508057E+02 -0.14721485958E+02  0.17907199578E+02  0.54618113412E+02  0.00000000000E+00 0.  1.
         14    1    4    4    0    0  0.20603868966E+02 -0.21230633878E+02  0.62983145200E+02  0.69585456889E+02  0.00000000000E+00 0. -1.
         -5    1    5    5    0  502  0.88927817085E+02 -0.19684066761E+02  0.15886825668E+03  0.18318523990E+03  0.47000000000E+01 0.  1.
         13    1    6    6    0    0  0.21392362022E+02  0.67676951985E+01  0.31662113378E+02  0.38806240152E+02  0.00000000000E+00 0. -1.
        -14    1    6    6    0    0 -0.44015260053E+02 -0.72156424872E+01  0.28674455571E+03  0.29019277875E+03  0.00000000000E+00 0.  1.
</event>
<event>
12    1  0.8133506E-002  0.1817833E+03  0.7818608E-02  0.1167539E+00
         21   -1    0    0  503  502  0.00000000000E+00  0.00000000000E+00  0.39190957747E+03  0.39190957747E+03  0.00000000000E+00 0. -1.
         21   -1    0    0  501  503 -0.00000000000E+00 -0.00000000000E+00 -0.88230962029E+02  0.88230962029E+02  0.00000000000E+00 0. -1.
          6    2    1    2  501    0  0.34359061717E+02 -0.25959356408E+02  0.83567352003E+02  0.19466877499E+03  0.17046406169E+03 0.  0.
         24    2    3    3    0    0 -0.28435554822E+02  0.26250134701E+02  0.66582812945E+02  0.11112501762E+03  0.80111473655E+02 0.  0.
         -6    2    1    2    0  502 -0.34359061717E+02  0.25959356408E+02  0.22011126344E+03  0.28547176451E+03  0.17660896561E+03 0.  0.
        -24    2    5    5    0    0  0.42652232847E+02  0.38755487363E+02  0.91455995000E+02  0.13491032006E+03  0.80717994711E+02 0.  0.
          5    1    3    3  501    0  0.62794616539E+02 -0.52209491108E+02  0.16984539058E+02  0.83543757367E+02  0.47000000000E+01 0. -1.
        -11    1    4    4    0    0 -0.13367495648E+02  0.24575371254E+02  0.83704484151E+02  0.88255761733E+02  0.00000000000E+00 0.  1.
         12    1    4    4    0    0 -0.15068059174E+02  0.16747634469E+01 -0.17121671206E+02  0.22869255886E+02  0.00000000000E+00 0. -1.
         -5    1    5    5    0  502 -0.77011294564E+02 -0.12796130955E+02  0.12865526844E+03  0.15056144445E+03  0.47000000000E+01 0.  1.
         13    1    6    6    0    0  0.29329931374E+02  0.61619199709E+02  0.82290559891E+02  0.10690606575E+03  0.00000000000E+00 0. -1.
        -14    1    6    6    0    0  0.13322301473E+02 -0.22863712346E+02  0.91654351090E+01  0.28004254311E+02  0.00000000000E+00 0.  1.
</event>
<event>
12    1  0.8133506E-002  0.2632431E+03  0.7818608E-02  0.1105457E+00
         21   -1    0    0  501  502  0.00000000000E+00  0.00000000000E+00  0.11671427411E+03  0.11671427411E+03  0.00000000000E+00 0. -1.
         21   -1    0    0  502  503 -0.00000000000E+00 -0.00000000000E+00 -0.64688324580E+03  0.64688324580E+03  0.00000000000E+00 0.  1.
         -6    2    1    2    0  503 -0.29244851915E+02  0.19607848152E+03 -0.37908325325E+03  0.46152037282E+03  0.17319038472E+03 0.  0.
        -24    2    3    3    0    0 -0.73427340484E+01  0.21015403351E+03 -0.28080150273E+03  0.35974013694E+03  0.79654558263E+02 0.  0.
          6    2    1    2  501    0  0.29244851915E+02 -0.19607848152E+03 -0.15108571843E+03  0.30207714709E+03  0.17065074333E+03 0.  0.
         24    2    5    5    0    0  0.84060977547E+02 -0.14775985400E+03 -0.12395740684E+03  0.22399044729E+03  0.76857396309E+02 0.  0.
          5    1    5    5  501    0 -0.54816125632E+02 -0.48318627522E+02 -0.27128311596E+02  0.78086699796E+02  0.47000000000E+01 0. -1.
        -11    1    6    6    0    0  0.35904246532E+02 -0.12050321728E+03 -0.59702177366E+02  0.13919227808E+03  0.00000000000E+00 0.  1.
         12    1    6    6    0    0  0.48156731015E+02 -0.27256636716E+02 -0.64255229472E+02  0.84798169212E+02  0.00000000000E+00 0. -1.
         -5    1    3    3    0  503 -0.21902117867E+02 -0.14075551986E+02 -0.98281750520E+02  0.10178023588E+03  0.47000000000E+01 0.  1.
         13    1    4    4    0    0 -0.15173415436E+02  0.64047066227E+02 -0.37284027988E+02  0.75646268720E+02  0.00000000000E+00 0. -1.
        -14    1    4    4    0    0  0.78306813876E+01  0.14610696728E+03 -0.24351747474E+03  0.28409386822E+03  0.00000000000E+00 0.  1.
</event>
<event>
12    1  0.8133506E-002  0.2526770E+03  0.7818608E-02  0.1111829E+00
         21   -1    0    0  503  502  0.00000000000E+00  0.00000000000E+00  0.47013635820E+03  0.47013635820E+03  0.00000000000E+00 0. -1.
         21   -1    0    0  501  503 -0.00000000000E+00 -0.00000000000E+00 -0.15665269333E+03  0.15665269333E+03  0.00000000000E+00 0.  1.
          6    2    1    2  501    0 -0.12556802500E+03 -0.13604058005E+03  0.40153294214E+02  0.25455908576E+03  0.17004020932E+03 0.  0.
         24    2    3    3    0    0  0.19248777697E+01 -0.56325101792E+02 -0.26537432012E+01  0.98150869281E+02  0.80313937404E+02 0.  0.
         -6    2    1    2    0  502  0.12556802500E+03  0.13604058005E+03  0.27333037066E+03  0.37222996577E+03  0.17196304129E+03 0.  0.
        -24    2    5    5    0    0  0.12020779673E+03  0.15858406925E+03  0.27491993181E+03  0.34853275797E+03  0.79342882846E+02 0.  0.
          5    1    3    3  501    0 -0.12749290277E+03 -0.79715478257E+02  0.42807037415E+02  0.15640821648E+03  0.47000000000E+01 0. -1.
        -13    1    4    4    0    0 -0.24279158080E+02 -0.54389126025E+02  0.20639790366E+02  0.63036937530E+02  0.00000000000E+00 0.  1.
         14    1    4    4    0    0  0.26204035849E+02 -0.19359757665E+01 -0.23293533567E+02  0.35113931751E+02  0.00000000000E+00 0. -1.
         -5    1    5    5    0  502  0.53602282672E+01 -0.22543489205E+02 -0.15895611543E+01  0.23697207795E+02  0.47000000000E+01 0.  1.
         13    1    6    6    0    0  0.88379384360E+02  0.56986522883E+02  0.10954399545E+03  0.15184948571E+03  0.00000000000E+00 0. -1.
        -14    1    6    6    0    0  0.31828412369E+02  0.10159754637E+03  0.16537593636E+03  0.19668327227E+03  0.00000000000E+00 0.  1.
</event>
<event>
12    1  0.8133506E-002  0.1808656E+03  0.7818608E-02  0.1167038E+00
         21   -1    0    0  503  502  0.00000000000E+00  0.00000000000E+00  0.33799340261E+03  0.33799340261E+03  0.00000000000E+00 0. -1.
         21   -1    0    0  501  503 -0.00000000000E+00 -0.00000000000E+00 -0.43658733655E+03  0.43658733655E+03  0.00000000000E+00 0. -1.
          6    2    1    2  501    0 -0.52180950283E+02  0.10742594918E+02 -0.39104299982E+03  0.43072202515E+03  0.17253573637E+03 0.  0.
         24    2    3    3    0    0 -0.14241815377E+02 -0.49139455986E+02 -0.13014565925E+03  0.16032463186E+03  0.78412878546E+02 0.  0.
         -6    2    1    2    0  502  0.52180950283E+02 -0.10742594918E+02  0.29244906588E+03  0.34385871400E+03  0.17284126864E+03 0.  0.
        -24    2    5    5    0    0 -0.44017091531E+01  0.47637213183E+02  0.19935968343E+03  0.22017556047E+03  0.80276490506E+02 0.  0.
          5    1    3    3  501    0 -0.37939134906E+02  0.59882050904E+02 -0.26089734057E+03  0.27039739329E+03  0.47000000000E+01 0. -1.
        -13    1    4    4    0    0  0.20300587710E+02 -0.20676210977E+02 -0.10512907373E+03  0.10904926274E+03  0.00000000000E+00 0.  1.
         14    1    4    4    0    0 -0.34542403087E+02 -0.28463245009E+02 -0.25016585516E+02  0.51275369119E+02  0.00000000000E+00 0. -1.
         -5    1    5    5    0  502  0.56582659437E+02 -0.58379808101E+02  0.93089382447E+02  0.12368315353E+03  0.47000000000E+01 0.  1.
         11    1    6    6    0    0  0.23137107405E+02  0.19127204400E+02  0.16502858290E+03  0.16773672485E+03  0.00000000000E+00 0. -1.
        -12    1    6    6    0    0 -0.27538816558E+02  0.28510008783E+02  0.34331100529E+02  0.52438835626E+02  0.00000000000E+00 0.  1.
</event>
<event>
12    1  0.8133506E-002  0.2181969E+03  0.7818608E-02  0.1135967E+00
         21   -1    0    0  501  502  0.00000000000E+00  0.00000000000E+00  0.23151571134E+03  0.23151571134E+03  0.00000000000E+00 0. -1.
         21   -1    0    0  502  503 -0.00000000000E+00 -0.00000000000E+00 -0.20312424307E+03  0.20312424307E+03  0.00000000000E+00 0. -1.
         -6    2    1    2    0  503 -0.12448115044E+03  0.33875157468E+02 -0.16346410646E+01  0.21820301619E+03  0.17597386486E+03 0.  0.
        -24    2    3    3    0    0 -0.24173991084E+02  0.57406242434E+02 -0.44271545194E+02  0.10659999754E+03  0.74321808686E+02 0.  0.
          6    2    1    2  501    0  0.12448115044E+03 -0.33875157468E+02  0.30026109330E+02  0.21643693822E+03  0.17117329779E+03 0.  0.
         24    2    5    5    0    0  0.75809697819E+02 -0.36990538188E+02  0.82858794529E+02  0.14438141434E+03  0.82855312300E+02 0.  0.
          5    1    5    5  501    0  0.48671452619E+02  0.31153807205E+01 -0.52832685199E+02  0.72055523885E+02  0.47000000000E+01 0. -1.
        -11    1    6    6    0    0  0.15646000451E+02  0.18967093697E+02 -0.38952703388E+01  0.24894198208E+02  0.00000000000E+00 0.  1.
         12    1    6    6    0    0  0.60163697368E+02 -0.55957631885E+02  0.86754064868E+02  0.11948721613E+03  0.00000000000E+00 0. -1.
         -5    1    3    3    0  503 -0.10030715935E+03 -0.23531084966E+02  0.42636904129E+02  0.11160301865E+03  0.47000000000E+01 0.  1.
         13    1    4    4    0    0  0.13236389669E+01  0.68637653794E+02 -0.26698033578E+02  0.73659110335E+02  0.00000000000E+00 0. -1.
        -14    1    4    4    0    0 -0.25497630050E+02 -0.11231411360E+02 -0.17573511616E+02  0.32940887205E+02  0.00000000000E+00 0.  1.
</event>
<event>
12    1  0.8133506E-002  0.1760296E+03  0.7818608E-02  0.1172154E+00
         21   -1    0    0  503  502  0.00000000000E+00  0.00000000000E+00  0.69674549865E+02  0.69674549865E+02  0.00000000000E+00 0. -1.
         21   -1    0    0  501  503 -0.00000000000E+00 -0.00000000000E+00 -0.59567238200E+03  0.59567238200E+03  0.00000000000E+00 0. -1.
          6    2    1    2  501    0 -0.16172741805E+02  0.22286146269E+02 -0.92032207633E+02  0.19703870601E+03  0.17203515493E+03 0.  0.
         24    2    3    3    0    0  0.18900077791E+02 -0.38574238540E+02 -0.85499976312E+02  0.12633616603E+03  0.82494824553E+02 0.  0.
         -6    2    1    2    0  502  0.16172741805E+02 -0.22286146269E+02 -0.43396562450E+03  0.46830822585E+03  0.17386259305E+03 0.  0.
        -24    2    5    5    0    0 -0.54194953146E+02 -0.36990255742E+02 -0.24893141505E+03  0.26974445273E+03  0.80559595436E+02 0.  0.
          5    1    3    3  501    0 -0.35072819597E+02  0.60860384810E+02 -0.65322313212E+01  0.70702539980E+02  0.47000000000E+01 0. -1.
        -13    1    4    4    0    0  0.18231795290E+01  0.25198075434E+02 -0.35251159131E+02  0.43369473242E+02  0.00000000000E+00 0.  1.
         14    1    4    4    0    0  0.17076898262E+02 -0.63772313975E+02 -0.50248817181E+02  0.82966692787E+02  0.00000000000E+00 0. -1.
         -5    1    5    5    0  502  0.70367694952E+02  0.14704109472E+02 -0.18503420945E+03  0.19856377312E+03  0.47000000000E+01 0.  1.
         11    1    6    6    0    0 -0.47686069055E+01 -0.49095991693E+02 -0.15826365138E+03  0.16577255310E+03  0.00000000000E+00 0. -1.
        -12    1    6    6    0    0 -0.49426346241E+02  0.12105735951E+02 -0.90667763664E+02  0.10397189963E+03  0.00000000000E+00 0.  1.
</event>
<event>
12    1  0.8133506E-002  0.2186295E+03  0.7818608E-02  0.1135417E+00
         21   -1    0    0  501  502  0.00000000000E+00  0.00000000000E+00  0.50525213639E+03  0.50525213639E+03  0.00000000000E+00 0.  1.
         21   -1    0    0  502  503 -0.00000000000E+00 -0.00000000000E+00 -0.93472097307E+02  0.93472097307E+02  0.00000000000E+00 0.  1.
         -6    2    1    2    0  503 -0.68816808766E+02 -0.11208275061E+03  0.20211071839E+03  0.29773747681E+03  0.17464411371E+03 0.  0.
        -24    2    3    3    0    0 -0.11509351278E+03 -0.90370026580E+02  0.13789498857E+03  0.21552600756E+03  0.77609108194E+02 0.  0.
          6    2    1    2  501    0  0.68816808766E+02  0.11208275061E+03  0.20966932070E+03  0.30098675690E+03  0.17127027655E+03 0.  0.
         24    2    5    5    0    0  0.34059576973E+02  0.62655686106E+02  0.28504553875E+02  0.10995308812E+03  0.78685336688E+02 0.  0.
          5    1    5    5  501    0  0.34757231793E+02  0.49427064507E+02  0.18116476683E+03  0.19103366878E+03  0.47000000000E+01 0. -1.
        -11    1    6    6    0    0 -0.23305416739E+02  0.73927190758E+01 -0.22832250556E+01  0.24556218385E+02  0.00000000000E+00 0.  1.
         12    1    6    6    0    0  0.57364993712E+02  0.55262967030E+02  0.30787778930E+02  0.85396869732E+02  0.00000000000E+00 0. -1.
         -5    1    3    3    0  503  0.46276704015E+02 -0.21712724033E+02  0.64215729817E+02  0.82211469245E+02  0.47000000000E+01 0.  1.
         11    1    4    4    0    0 -0.37686320200E+02  0.98776250288E+01  0.34046555626E+02  0.51739676810E+02  0.00000000000E+00 0. -1.
        -12    1    4    4    0    0 -0.77407192580E+02 -0.10024765161E+03  0.10384843294E+03  0.16378633075E+03  0.00000000000E+00 0.  1.
</event>
<event>
12    1  0.8133506E-002  0.2721907E+03  0.7818608E-02  0.1100060E+00
         21   -1    0    0  503  502  0.00000000000E+00  0.00000000000E+00  0.40137363143E+03  0.40137363143E+03  0.00000000000E+00 0.  1.
         21   -1    0    0  501  503 -0.00000000000E+00 -0.00000000000E+00 -0.19265585142E+03  0.19265585142E+03  0.00000000000E+00 0.  1.
          6    2    1    2  501    0  0.22901453289E+02 -0.20920259474E+03  0.43039783133E+02  0.27538079838E+03  0.17231354844E+03 0.  0.
         24    2    3    3    0    0 -0.40224281865E+00 -0.12724012581E+03 -0.41229527339E+02  0.15544616930E+03  0.79204963291E+02 0.  0.
         -6    2    1    2    0  502 -0.22901453289E+02  0.20920259474E+03  0.16567799688E+03  0.31864868447E+03  0.17261976497E+03 0.  0.
        -24    2    5    5    0    0 -0.71331721923E+02  0.13654380672E+03  0.15307162897E+03  0.23029824074E+03  0.76641570866E+02 0.  0.
          5    1    3    3  501    0  0.23303696107E+02 -0.81962468928E+02  0.84269310472E+02  0.11993462908E+03  0.47000000000E+01 0. -1.
        -11    1    4    4    0    0 -0.20037531110E+02 -0.80698661441E+02  0.97015036704E+01  0.83713175695E+02  0.00000000000E+00 0.  1.
         12    1    4    4    0    0  0.19635288292E+02 -0.46541464369E+02 -0.50931031009E+02  0.71732993605E+02  0.00000000000E+00 0. -1.
         -5    1    5    5    0  502  0.48430268634E+02  0.72658788018E+02  0.12606367902E+02  0.88350443734E+02  0.47000000000E+01 0.  1.
         13    1    6    6    0    0 -0.20367748382E+02  0.16872476836E+02  0.72790479596E+02  0.77446623997E+02  0.00000000000E+00 0. -1.
        -14    1    6    6    0    0 -0.50963973541E+02  0.11967132988E+03  0.80281149377E+02  0.15285161674E+03  0.00000000000E+00 0.  1.
</event>
<event>
12    1  0.8133506E-002  0.4527317E+03  0.7818608E-02  0.1027048E+00
         21   -1    0    0  501  502  0.00000000000E+00  0.00000000000E+00  0.49103352054E+03  0.49103352054E+03  0.00000000000E+00 0. -1.
         21   -1    0    0  502  503 -0.00000000000E+00 -0.00000000000E+00 -0.51430632375E+03  0.51430632375E+03  0.00000000000E+00 0.  1.
         -6    2    1    2    0  503 -0.24119973191E+03 -0.33939121437E+03 -0.23170531903E+03  0.50693230555E+03  0.17300086842E+03 0.  0.
        -24    2    3    3    0    0 -0.60008969981E+02 -0.19746156592E+03 -0.11585412865E+03  0.24921597772E+03  0.78065856359E+02 0.  0.
          6    2    1    2  501    0  0.24119973191E+03  0.33939121437E+03  0.20843251581E+03  0.49840753874E+03  0.17777022800E+03 0.  0.
         24    2    5    5    0    0  0.89374331184E+02  0.21325564555E+03  0.60561681117E+02  0.25173162224E+03  0.78964238645E+02 0.  0.
          5    1    5    5  501    0  0.15182540073E+03  0.12613556882E+03  0.14787083470E+03  0.24667591650E+03  0.47000000000E+01 0. -1.
        -11    1    6    6    0    0  0.85387241915E+02  0.10218961215E+03  0.35057167255E+02  0.13770513022E+03  0.00000000000E+00 0.  1.
         12    1    6    6    0    0  0.39870892695E+01  0.11106603340E+03  0.25504513862E+02  0.11402649202E+03  0.00000000000E+00 0. -1.
         -5    1    3    3    0  503 -0.18119076193E+03 -0.14192964844E+03 -0.11585119038E+03  0.25771632783E+03  0.47000000000E+01 0.  1.
         13    1    4    4    0    0 -0.25843017877E+02 -0.16594829806E+03 -0.64388469430E+02  0.17986821342E+03  0.00000000000E+00 0. -1.
        -14    1    4    4    0    0 -0.34165952103E+02 -0.31513267865E+02 -0.51465659222E+02  0.69347764303E+02  0.00000000000E+00 0.  1.
</event>
<event>
12    1  0.8133506E-002  0.2308941E+03  0.7818608E-02  0.1126228E+00
         21   -1    0    0  503  502  0.00000000000E+00  0.00000000000E+00  0.18211473529E+04  0.18211473529E+04  0.00000000000E+00 0.  1.
         21   -1    0    0  501  503 -0.00000000000E+00 -0.00000000000E+00 -0.80271510183E+02  0.80271510183E+02  0.00000000000E+00 0. -1.
          6    2    1    2  501    0 -0.13652751575E+03  0.72329467208E+02  0.11066625467E+03  0.25493917416E+03  0.16992836201E+03 0.  0.
         24    2    3    3    0    0 -0.39166897171E+02  0.78839571570E+02  0.47682788950E+02  0.13870459039E+03  0.95997870573E+02 0.  0.
         -6    2    1    2    0  502  0.13652751575E+03 -0.72329467208E+02  0.16302095880E+04  0.16464796889E+04  0.17158307232E+03 0.  0.
        -24    2    5    5    0    0  0.68540283183E+02 -0.79717651084E+02  0.61577064364E+03  0.62972735380E+03  0.79563686723E+02 0.  0.
          5    1    3    3  501    0 -0.97360618579E+02 -0.65101043616E+01  0.62983465724E+02  0.11623458377E+03  0.47000000000E+01 0. -1.
        -11    1    4    4    0    0 -0.48283413284E+02  0.93870189036E+02  0.55733324722E+02  0.11936961034E+03  0.00000000000E+00 0.  1.
         12    1    4    4    0    0  0.91165161124E+01 -0.15030617466E+02 -0.80505357724E+01  0.19334980053E+02  0.00000000000E+00 0. -1.
         -5    1    5    5    0  502  0.67987232568E+02  0.73881838763E+01  0.10144389444E+04  0.10167523351E+04  0.47000000000E+01 0.  1.
         13    1    6    6    0    0 -0.25979775351E+01 -0.51073874454E+02  0.32570464141E+03  0.32969501600E+03  0.00000000000E+00 0. -1.
        -14    1    6    6    0    0  0.71138260718E+02 -0.28643776630E+02  0.29006600223E+03  0.30003233780E+03  0.00000000000E+00 0.  1.
</event>
<event>
12    1  0.8133506E-002  0.3594407E+03  0.7818608E-02  0.1058822E+00
         21   -1    0    0  503  502  0.00000000000E+00  0.00000000000E+00  0.18940768980E+03  0.18940768980E+03  0.00000000000E+00 0.  1.
         21   -1    0    0  501  503 -0.00000000000E+00 -0.00000000000E+00 -0.68396829356E+03  0.68396829356E+03  0.00000000000E+00 0. -1.
          6    2    1    2  501    0 -0.28654803457E+03 -0.13030461959E+03 -0.22271699155E+03  0.42284803578E+03  0.17351810579E+03 0.  0.
         24    2    3    3    0    0 -0.14977022297E+03 -0.16455218849E+02 -0.60567930083E+02  0.18204881666E+03  0.82288538549E+02 0.  0.
         -6    2    1    2    0  502  0.28654803457E+03  0.13030461959E+03 -0.27184361221E+03  0.45052794758E+03  0.17316873866E+03 0.  0.
        -24    2    5    5    0    0  0.21372401647E+03  0.49537592078E+02 -0.24528843133E+03  0.33848367964E+03  0.79201380019E+02 0.  0.
          5    1    3    3  501    0 -0.13677781160E+03 -0.11384940074E+03 -0.16214906147E+03  0.24079921912E+03  0.47000000000E+01 0. -1.
        -13    1    4    4    0    0 -0.73282611571E+02 -0.26147521112E+02  0.88421706346E+01  0.78308479748E+02  0.00000000000E+00 0.  1.
         14    1    4    4    0    0 -0.76487611396E+02  0.96923022628E+01 -0.69410100717E+02  0.10374033691E+03  0.00000000000E+00 0. -1.
         -5    1    5    5    0  502  0.72824018100E+02  0.80767027515E+02 -0.26555180882E+02  0.11204426794E+03  0.47000000000E+01 0.  1.
         13    1    6    6    0    0  0.14739357161E+03  0.69718094141E+02 -0.18507719811E+03  0.24665572538E+03  0.00000000000E+00 0. -1.
        -14    1    6    6    0    0  0.66330444852E+02 -0.20180502063E+02 -0.60211233222E+02  0.91827954262E+02  0.00000000000E+00 0.  1.
</event>
<event>
12    1  0.8133506E-002  0.1754631E+03  0.7818608E-02  0.1172835E+00
         21   -1    0    0  503  502  0.00000000000E+00  0.00000000000E+00  0.30790391932E+03  0.30790391932E+03  0.00000000000E+00 0.  1.
         21   -1    0    0  501  503 -0.00000000000E+00 -0.00000000000E+00 -0.20268078000E+03  0.20268078000E+03  0.00000000000E+00 0.  1.
          6    2    1    2  501    0  0.17936724830E+02  0.19960606520E+02 -0.13039931837E+03  0.21680716877E+03  0.17111754524E+03 0.  0.
         24    2    3    3    0    0  0.37531029722E+01  0.73931360273E+02 -0.11730892425E+03  0.15929659750E+03  0.78320434440E+02 0.  0.
         -6    2    1    2    0  502 -0.17936724830E+02 -0.19960606520E+02  0.23562245769E+03  0.29377753056E+03  0.17339879753E+03 0.  0.
        -24    2    5    5    0    0 -0.11624696742E+02  0.54835811818E+02  0.15650990984E+03  0.18462062000E+03  0.80295215429E+02 0.  0.
          5    1    3    3  501    0  0.14183621858E+02 -0.53970753753E+02 -0.13090394114E+02  0.57510571270E+02  0.47000000000E+01 0. -1.
        -11    1    4    4    0    0  0.37892669868E+02  0.59121212988E+02 -0.70613270477E+02  0.99586174856E+02  0.00000000000E+00 0.  1.
         12    1    4    4    0    0 -0.34139566896E+02  0.14810147286E+02 -0.46695653778E+02  0.59710422643E+02  0.00000000000E+00 0. -1.
         -5    1    5    5    0  502 -0.63120280878E+01 -0.74796418337E+02  0.79112547850E+02  0.10915691056E+03  0.47000000000E+01 0.  1.
         11    1    6    6    0    0 -0.39267921839E+02  0.52974429592E+02  0.82629687495E+02  0.10571624819E+03  0.00000000000E+00 0. -1.
        -12    1    6    6    0    0  0.27643225097E+02  0.18613822251E+01  0.73880222343E+02  0.78904371812E+02  0.00000000000E+00 0.  1.
</event>
<event>
12    1  0.8133506E-002  0.2143333E+03  0.7818608E-02  0.1138822E+00
         21   -1    0    0  501  502  0.00000000000E+00  0.00000000000E+00  0.14315432072E+03  0.14315432072E+03  0.00000000000E+00 0.  1.
         21   -1    0    0  502  503 -0.00000000000E+00 -0.00000000000E+00 -0.55800429858E+03  0.55800429858E+03  0.00000000000E+00 0.  1.
         -6    2    1    2    0  503  0.11781830712E+03  0.32162117645E+02 -0.43921934650E+03  0.48872526525E+03  0.17613402638E+03 0.  0.
        -24    2    3    3    0    0  0.15129978549E+03  0.30940573309E+02 -0.31272073013E+03  0.35778065288E+03  0.79773406329E+02 0.  0.
          6    2    1    2  501    0 -0.11781830712E+03 -0.32162117645E+02  0.24369368645E+02  0.21243335405E+03  0.17210028612E+03 0.  0.
         24    2    5    5    0    0 -0.64216642395E+02 -0.49273628236E+02 -0.45491646857E+02  0.12260800271E+03  0.80072247349E+02 0.  0.
          5    1    5    5  501    0 -0.53601664724E+02  0.17111510590E+02  0.69861015502E+02  0.89825351337E+02  0.47000000000E+01 0. -1.
        -11    1    6    6    0    0 -0.48015017189E+02 -0.58565503717E+02 -0.25438833672E+01  0.75774873434E+02  0.00000000000E+00 0.  1.
         12    1    6    6    0    0 -0.16201625206E+02  0.92918754819E+01 -0.42947763490E+02  0.46833129279E+02  0.00000000000E+00 0. -1.
         -5    1    3    3    0  503 -0.33481478370E+02  0.12215443357E+01 -0.12649861638E+03  0.13094461237E+03  0.47000000000E+01 0.  1.
         13    1    4    4    0    0  0.35826167127E+02  0.44470826652E+02 -0.11534978287E+03  0.12871185292E+03  0.00000000000E+00 0. -1.
        -14    1    4    4    0    0  0.11547361836E+03 -0.13530253343E+02 -0.19737094726E+03  0.22906879996E+03  0.00000000000E+00 0.  1.
</event>
<event>
12    1  0.8133506E-002  0.4044466E+03  0.7818608E-02  0.1042356E+00
         21   -1    0    0  503  502  0.00000000000E+00  0.00000000000E+00  0.17570281433E+03  0.17570281433E+03  0.00000000000E+00 0.  1.
         21   -1    0    0  501  503 -0.00000000000E+00 -0.00000000000E+00 -0.93180487084E+03  0.93180487084E+03  0.00000000000E+00 0. -1.
          6    2    1    2  501    0 -0.25050546461E+03 -0.26683293911E+03 -0.34286767198E+03  0.52928652520E+03  0.16921341575E+03 0.  0.
         24    2    3    3    0    0 -0.20585470605E+03 -0.21773552040E+03 -0.34349438224E+03  0.46275285305E+03  0.79792828794E+02 0.  0.
         -6    2    1    2    0  502  0.25050546461E+03  0.26683293911E+03 -0.41323438452E+03  0.57822115998E+03  0.17211696052E+03 0.  0.
        -24    2    5    5    0    0  0.92128498210E+02  0.44387887817E+02 -0.14634817251E+03  0.19636332715E+03  0.81748540561E+02 0.  0.
          5    1    3    3  501    0 -0.44650758558E+02 -0.49097418713E+02  0.62671025382E+00  0.66533672150E+02  0.47000000000E+01 0. -1.
        -11    1    4    4    0    0 -0.87616016120E+02 -0.45918281507E+02 -0.83587333184E+02  0.12950635940E+03  0.00000000000E+00 0.  1.
         12    1    4    4    0    0 -0.11823868993E+03 -0.17181723889E+03 -0.25990704905E+03  0.33324649364E+03  0.00000000000E+00 0. -1.
         -5    1    5    5    0  502  0.15837696640E+03  0.22244505129E+03 -0.26688621201E+03  0.38185783283E+03  0.47000000000E+01 0.  1.
         13    1    6    6    0    0 -0.70794859440E+01  0.16580938258E+01 -0.53300899515E+02  0.53794556281E+02  0.00000000000E+00 0. -1.
        -14    1    6    6    0    0  0.99207984154E+02  0.42729793991E+02 -0.93047272999E+02  0.14256877087E+03  0.00000000000E+00 0.  1.
</event>
<event>
12    1  0.8133506E-002  0.1774258E+03  0.7818608E-02  0.1170459E+00
         21   -1    0    0  503  502  0.00000000000E+00  0.00000000000E+00  0.44568529804E+03  0.44568529804E+03  0.00000000000E+00 0. -1.
         21   -1    0    0  501  503 -0.00000000000E+00 -0.00000000000E+00 -0.23904746040E+03  0.23904746040E+03  0.00000000000E+00 0. -1.
          6    2    1    2  501    0 -0.21768306217E+01 -0.42619053943E+02 -0.18429236317E+03  0.25542360239E+03  0.17162872482E+03 0.  0.
         24    2    3    3    0    0 -0.61300784022E+02 -0.15167512104E+02 -0.15113559648E+03  0.18213860943E+03  0.79653405311E+02 0.  0.
         -6    2    1    2    0  502  0.21768306217E+01  0.42619053943E+02  0.39093020081E+03  0.42930915606E+03  0.17221732554E+03 0.  0.
        -24    2    5    5    0    0  0.37376109101E+02  0.81593081298E+02  0.31258409353E+03  0.33487311135E+03  0.79854747694E+02 0.  0.
          5    1    3    3  501    0  0.59123953401E+02 -0.27451541839E+02 -0.33156766694E+02  0.73284992957E+02  0.47000000000E+01 0. -1.
        -13    1    4    4    0    0 -0.12887798571E+01  0.26298243348E+02 -0.24331638354E+02  0.35850902104E+02  0.00000000000E+00 0.  1.
         14    1    4    4    0    0 -0.60012004165E+02 -0.41465755452E+02 -0.12680395812E+03  0.14628770733E+03  0.00000000000E+00 0. -1.
         -5    1    5    5    0  502 -0.35199278479E+02 -0.38974027355E+02  0.78346107283E+02  0.94436044708E+02  0.47000000000E+01 0.  1.
         11    1    6    6    0    0  0.57436285200E+02  0.42521544603E+02  0.14535240761E+03  0.16197015469E+03  0.00000000000E+00 0. -1.
        -12    1    6    6    0    0 -0.20060176099E+02  0.39071536695E+02  0.16723168593E+03  0.17290295666E+03  0.00000000000E+00 0.  1.
</event>
<event>
12    1  0.8133506E-002  0.2239146E+03  0.7818608E-02  0.1131046E+00
         21   -1    0    0  503  502  0.00000000000E+00  0.00000000000E+00  0.42172698453E+03  0.42172698453E+03  0.00000000000E+00 0. -1.
         21   -1    0    0  501  503 -0.00000000000E+00 -0.00000000000E+00 -0.12180196031E+03  0.12180196031E+03  0.00000000000E+00 0. -1.
          6    2    1    2  501    0  0.11937818799E+03 -0.80163068620E+02  0.10682116962E+03  0.24784862516E+03  0.17129188356E+03 0.  0.
         24    2    3    3    0    0  0.22953730559E+02  0.12125117859E+02  0.15350521854E+02  0.85972886527E+02  0.80509666916E+02 0.  0.
         -6    2    1    2    0  502 -0.11937818799E+03  0.80163068620E+02  0.19310385460E+03  0.29568031968E+03  0.17164056468E+03 0.  0.
        -24    2    5    5    0    0 -0.10239716755E+03  0.78148465265E+02  0.58018352389E+02  0.15943569927E+03  0.73900273629E+02 0.  0.
          5    1    3    3  501    0  0.96424457433E+02 -0.92288186479E+02  0.91470647765E+02  0.16187573863E+03  0.47000000000E+01 0. -1.
        -13    1    4    4    0    0  0.24043162455E+02  0.15964810543E+02  0.46413286958E+02  0.54654753158E+02  0.00000000000E+00 0.  1.
         14    1    4    4    0    0 -0.10894318961E+01 -0.38396926836E+01 -0.31062765104E+02  0.31318133369E+02  0.00000000000E+00 0. -1.
         -5    1    5    5    0  502 -0.16981020442E+02  0.20146033553E+01  0.13508550221E+03  0.13624462041E+03  0.47000000000E+01 0.  1.
         13    1    6    6    0    0 -0.62256606101E+01  0.46749111576E+02  0.14866111750E+02  0.49449363613E+02  0.00000000000E+00 0. -1.
        -14    1    6    6    0    0 -0.96171506940E+02  0.31399353689E+02  0.43152240639E+02  0.10998633566E+03  0.00000000000E+00 0.  1.
</event>
<event>
12    1  0.8133506E-002  0.1837390E+03  0.7818608E-02  0.1165598E+00
         21   -1    0    0  503  502  0.00000000000E+00  0.00000000000E+00  0.59261366123E+03  0.59261366123E+03  0.00000000000E+00 0.  1.
         21   -1    0    0  501  503 -0.00000000000E+00 -0.00000000000E+00 -0.10035689223E+03  0.10035689223E+03  0.00000000000E+00 0. -1.
          6    2    1    2  501    0 -0.28258626833E+02  0.57393456027E+02  0.11631191546E+02  0.17842128218E+03  0.16615146864E+03 0.  0.
         24    2    3    3    0    0 -0.12032705352E+02 -0.32181934524E+02  0.43795594075E+01  0.86978910768E+02  0.79785258476E+02 0.  0.
         -6    2    1    2    0  502  0.28258626833E+02 -0.57393456027E+02  0.48062557746E+03  0.51454927128E+03  0.17224241080E+03 0.  0.
        -24    2    5    5    0    0  0.37184788790E+02 -0.87698346192E+02  0.26638473042E+03  0.29794065355E+03  0.93456406913E+02 0.  0.
          5    1    3    3  501    0 -0.16225921481E+02  0.89575390551E+02  0.72516321380E+01  0.91442371409E+02  0.47000000000E+01 0. -1.
        -13    1    4    4    0    0 -0.23130226088E+02 -0.79977169752E+01  0.37322967300E+02  0.44631544044E+02  0.00000000000E+00 0.  1.
         14    1    4    4    0    0  0.11097520736E+02 -0.24184217549E+02 -0.32943407892E+02  0.42347366724E+02  0.00000000000E+00 0. -1.
         -5    1    5    5    0  502 -0.89261619563E+01  0.30304890165E+02  0.21424084704E+03  0.21660861773E+03  0.47000000000E+01 0.  1.
         11    1    6    6    0    0  0.39508468910E+02 -0.21158068318E+01  0.41631214342E+02  0.57433037198E+02  0.00000000000E+00 0. -1.
        -12    1    6    6    0    0 -0.23236801206E+01 -0.85582539360E+02  0.22475351608E+03  0.24050761635E+03  0.00000000000E+00 0.  1.
</event>
<event>
12    1  0.8133506E-002  0.2614055E+03  0.7818608E-02  0.1106322E+00
         21   -1    0    0  503  502  0.00000000000E+00  0.00000000000E+00  0.21959925422E+03  0.21959925422E+03  0.00000000000E+00 0.  1.
         21   -1    0    0  501  503 -0.00000000000E+00 -0.00000000000E+00 -0.72469503837E+03  0.72469503837E+03  0.00000000000E+00 0. -1.
          6    2    1    2  501    0  0.42135878911E+02 -0.19230354339E+03 -0.60930169061E+03  0.66300933600E+03  0.17197890673E+03 0.  0.
         24    2    3    3    0    0  0.85925244331E+02 -0.12442316291E+03 -0.31862732054E+03  0.36128274786E+03  0.78342730524E+02 0.  0.
         -6    2    1    2    0  502 -0.42135878911E+02  0.19230354339E+03  0.10420590646E+03  0.28128495660E+03  0.17177389434E+03 0.  0.
        -24    2    5    5    0    0  0.25690494923E+02  0.59409197963E+02  0.67308156031E+01  0.10300201470E+03  0.79841448021E+02 0.  0.
          5    1    3    3  501    0 -0.43789365419E+02 -0.67880380476E+02 -0.29067437007E+03  0.30172658814E+03  0.47000000000E+01 0. -1.
        -11    1    4    4    0    0  0.32296597149E+02 -0.76854815167E+02 -0.94723936221E+02  0.12618382184E+03  0.00000000000E+00 0.  1.
         12    1    4    4    0    0  0.53628647182E+02 -0.47568347745E+02 -0.22390338432E+03  0.23509892602E+03  0.00000000000E+00 0. -1.
         -5    1    5    5    0  502 -0.67826373834E+02  0.13289434543E+03  0.97475090853E+02  0.17828294189E+03  0.47000000000E+01 0.  1.
         13    1    6    6    0    0  0.12473128292E+02  0.41695570958E+01  0.36555174577E+02  0.38849001585E+02  0.00000000000E+00 0. -1.
        -14    1    6    6    0    0  0.13217366631E+02  0.55239640867E+02 -0.29824358974E+02  0.64153013117E+02  0.00000000000E+00 0.  1.
</event>
<event>
12    1  0.8133506E-002  0.2627336E+03  0.7818608E-02  0.1105762E+00
         21   -1    0    0  503  502  0.00000000000E+00  0.00000000000E+00  0.97168427230E+02  0.97168427230E+02  0.00000000000E+00 0.  1.
         21   -1    0    0  501  503 -0.00000000000E+00 -0.00000000000E+00 -0.75957340524E+03  0.75957340524E+03  0.00000000000E+00 0. -1.
          6    2    1    2  501    0 -0.38074051076E+02  0.19407982699E+03 -0.44412574296E+03  0.51516494820E+03  0.17038378939E+03 0.  0.
         24    2    3    3    0    0  0.83794118665E+01  0.12572948409E+03 -0.38678394806E+03  0.41446805135E+03  0.79396633431E+02 0.  0.
         -6    2    1    2    0  502  0.38074051076E+02 -0.19407982699E+03 -0.21827923505E+03  0.34157688427E+03  0.17295181642E+03 0.  0.
        -24    2    5    5    0    0  0.81770295579E+01 -0.70052210205E+01 -0.37039558117E+02  0.79354363138E+02  0.69348750166E+02 0.  0.
          5    1    3    3  501    0 -0.46453462942E+02  0.68350342897E+02 -0.57341794904E+02  0.10069689686E+03  0.47000000000E+01 0. -1.
        -11    1    4    4    0    0  0.41682664121E+02  0.51052771712E+02 -0.19974248449E+03  0.21033518512E+03  0.00000000000E+00 0.  1.
         12    1    4    4    0    0 -0.33303252255E+02  0.74676712378E+02 -0.18704146357E+03  0.20413286623E+03  0.00000000000E+00 0. -1.
         -5    1    5    5    0  502  0.29897021518E+02 -0.18707460597E+03 -0.18123967693E+03  0.26222252113E+03  0.47000000000E+01 0.  1.
         11    1    6    6    0    0  0.34890781027E+02 -0.18095077565E+02 -0.11993134006E+02  0.41092988405E+02  0.00000000000E+00 0. -1.
        -12    1    6    6    0    0 -0.26713751469E+02  0.11089856545E+02 -0.25046424112E+02  0.38261374733E+02  0.00000000000E+00 0.  1.
</event>
<event>
12    1  0.8133506E-002  0.2091220E+03  0.7818608E-02  0.1143227E+00
         21   -1    0    0  503  502  0.00000000000E+00  0.00000000000E+00  0.24206156069E+03  0.24206156069E+03  0.00000000000E+00 0. -1.
         21   -1    0    0  501  503 -0.00000000000E+00 -0.00000000000E+00 -0.19659060853E+03  0.19659060853E+03  0.00000000000E+00 0. -1.
          6    2    1    2  501    0 -0.34637035246E+01 -0.11707372179E+03 -0.47514768897E+02  0.20978896818E+03  0.16743806117E+03 0.  0.
         24    2    3    3    0    0  0.41166807801E+02 -0.12908950646E+03 -0.44611848436E+02  0.16324029935E+03  0.79362280523E+02 0.  0.
         -6    2    1    2    0  502  0.34637035246E+01  0.11707372179E+03  0.92985721056E+02  0.22886320105E+03  0.17324481781E+03 0.  0.
        -24    2    5    5    0    0  0.29373543146E+01  0.80008054659E+02  0.13389454880E+03  0.17345775988E+03  0.75828275742E+02 0.  0.
          5    1    3    3  501    0 -0.44630511325E+02  0.12015784666E+02 -0.29029204608E+01  0.46548668826E+02  0.47000000000E+01 0. -1.
        -11    1    4    4    0    0 -0.84453379150E+01  0.65271970633E+01  0.31689899767E+01  0.11134205471E+02  0.00000000000E+00 0.  1.
         12    1    4    4    0    0  0.49612145716E+02 -0.13561670352E+03 -0.47780838413E+02  0.15210609388E+03  0.00000000000E+00 0. -1.
         -5    1    5    5    0  502  0.52634921002E+00  0.37065667131E+02 -0.40908827747E+02  0.55405441168E+02  0.47000000000E+01 0.  1.
         13    1    6    6    0    0 -0.40360607277E+01  0.12936968805E+02 -0.84347119244E+01  0.15962434442E+02  0.00000000000E+00 0. -1.
        -14    1    6    6    0    0  0.69734150423E+01  0.67071085854E+02  0.14232926073E+03  0.15749532544E+03  0.00000000000E+00 0.  1.
</event>
<event>
12    1  0.8133506E-002  0.1741513E+03  0.7818608E-02  0.1173861E+00
         21   -1    0    0  503  502  0.00000000000E+00  0.00000000000E+00  0.81814180244E+02  0.81814180244E+02  0.00000000000E+00 0.  1.
         21   -1    0    0  501  503 -0.00000000000E+00 -0.00000000000E+00 -0.61585761888E+03  0.61585761888E+03  0.00000000000E+00 0.  1.
          6    2    1    2  501    0  0.18036688135E+02  0.16508285355E+02 -0.48864248978E+03  0.51874864293E+03  0.17242629182E+03 0.  0.
         24    2    3    3    0    0 -0.39559854643E+02  0.47427392981E+02 -0.36471228614E+03  0.37855542507E+03  0.80466256819E+02 0.  0.
         -6    2    1    2    0  502 -0.18036688135E+02 -0.16508285355E+02 -0.45400948855E+02  0.17892315620E+03  0.17133126995E+03 0.  0.
        -24    2    5    5    0    0 -0.24233778997E+02  0.55299284213E+02 -0.35589082536E+02  0.10603218486E+03  0.79567295741E+02 0.  0.
          5    1    3    3  501    0  0.57596542778E+02 -0.30919107627E+02 -0.12393020365E+03  0.14019321785E+03  0.47000000000E+01 0. -1.
        -13    1    4    4    0    0 -0.65867635711E+01  0.36824441024E+02 -0.31908850189E+03  0.32127386596E+03  0.00000000000E+00 0.  1.
         14    1    4    4    0    0 -0.32973091071E+02  0.10602951957E+02 -0.45623784249E+02  0.57281559111E+02  0.00000000000E+00 0. -1.
         -5    1    5    5    0  502  0.61970908617E+01 -0.71807569568E+02 -0.98118663193E+01  0.72890971341E+02  0.47000000000E+01 0.  1.
         11    1    6    6    0    0 -0.44420046691E+02  0.53183279572E+01 -0.78876349958E+01  0.45427303972E+02  0.00000000000E+00 0. -1.
        -12    1    6    6    0    0  0.20186267694E+02  0.49980956256E+02 -0.27701447540E+02  0.60604880889E+02  0.00000000000E+00 0.  1.
</event>
<event>
12    1  0.8133506E-002  0.2086483E+03  0.7818608E-02  0.1142662E+00
         21   -1    0    0  503  502  0.00000000000E+00  0.00000000000E+00  0.81939923642E+03  0.81939923642E+03  0.00000000000E+00 0.  1.
         21   -1    0    0  501  503 -0.00000000000E+00 -0.00000000000E+00 -0.54407351897E+02  0.54407351897E+02  0.00000000000E+00 0.  1.
          6    2    1    2  501    0 -0.11092609930E+02  0.11870874026E+03  0.45023560588E+03  0.49623199588E+03  0.17122874155E+03 0.  0.
         24    2    3    3    0    0 -0.19830627433E+02 -0.35776272002E+01  0.23620498859E+03  0.24953075196E+03  0.77889321087E+02 0.  0.
         -6    2    1    2    0  502  0.11092609930E+02 -0.11870874026E+03  0.31475627865E+03  0.37757459243E+03  0.17110303005E+03 0.  0.
        -24    2    5    5    0    0  0.67461830600E+02 -0.41615052560E+02  0.16385014415E+03  0.19892499923E+03  0.80258173378E+02 0.  0.
          5    1    3    3  501    0  0.87380175023E+01  0.12228636746E+03  0.21403061729E+03  0.24670124392E+03  0.47000000000E+01 0. -1.
        -13    1    4    4    0    0 -0.41367624058E+02  0.22131410303E+02  0.13759719338E+03  0.14537560754E+03  0.00000000000E+00 0.  1.
         14    1    4    4    0    0  0.21536996625E+02 -0.25709037504E+02  0.98607795210E+02  0.10415514442E+03  0.00000000000E+00 0. -1.
         -5    1    5    5    0  502 -0.56369220669E+02 -0.77093687701E+02  0.15090613450E+03  0.17864959320E+03  0.47000000000E+01 0.  1.
         13    1    6    6    0    0  0.73220279419E+02 -0.42383248179E+02  0.17035344651E+03  0.19020474700E+03  0.00000000000E+00 0. -1.
        -14    1    6    6    0    0 -0.57584488189E+01  0.76819561810E+00 -0.65033023620E+01  0.87202522279E+01  0.00000000000E+00 0.  1.
</event>
<event>
12    1  0.8133506E-002  0.1922030E+03  0.7818608E-02  0.1156607E+00
         21   -1    0    0  501  502  0.00000000000E+00  0.00000000000E+00  0.98273219588E+02  0.98273219588E+02  0.00000000000E+00 0.  1.
         21   -1    0    0  502  503 -0.00000000000E+00 -0.00000000000E+00 -0.85684614419E+03  0.85684614419E+03  0.00000000000E+00 0. -1.
         -6    2    1    2    0  503  0.73618781480E+02  0.44526988186E+02 -0.73768093601E+03  0.76230909717E+03  0.17187093588E+03 0.  0.
        -24    2    3    3    0    0  0.10460593322E+03  0.41719124832E+02 -0.69896514848E+03  0.71241831772E+03  0.79402103146E+02 0.  0.
          6    2    1    2  501    0 -0.73618781480E+02 -0.44526988186E+02 -0.20891988587E+02  0.19281026661E+03  0.17128031428E+03 0.  0.
         24    2    5    5    0    0 -0.84751585175E+02 -0.14666194117E+02  0.42146776941E+02  0.12201773664E+03  0.75591327596E+02 0.  0.
          5    1    5    5  501    0  0.11132803696E+02 -0.29860794069E+02 -0.63038765528E+02  0.70792529973E+02  0.47000000000E+01 0. -1.
        -13    1    6    6    0    0 -0.72558347087E+00 -0.17579724513E+02  0.33061506264E+02  0.37451787431E+02  0.00000000000E+00 0.  1.
         14    1    6    6    0    0 -0.84026001704E+02  0.29135303960E+01  0.90852706779E+01  0.84565949206E+02  0.00000000000E+00 0. -1.
         -5    1    3    3    0  503 -0.30987151745E+02  0.28078633539E+01 -0.38715787532E+02  0.49890779450E+02  0.47000000000E+01 0.  1.
         11    1    4    4    0    0  0.33217793779E+02 -0.43737724547E+01 -0.40595063313E+03  0.40733090756E+03  0.00000000000E+00 0. -1.
        -12    1    4    4    0    0  0.71388139446E+02  0.46092897287E+02 -0.29301451535E+03  0.30508741016E+03  0.00000000000E+00 0.  1.
</event>
<event>
12    1  0.8133506E-002  0.1728705E+03  0.7818608E-02  0.1175180E+00
         21   -1    0    0  501  502  0.00000000000E+00  0.00000000000E+00  0.30488473511E+03  0.30488473511E+03  0.00000000000E+00 0. -1.
         21   -1    0    0  502  503 -0.00000000000E+00 -0.00000000000E+00 -0.11197419771E+03  0.11197419771E+03  0.00000000000E+00 0. -1.
         -6    2    1    2    0  503 -0.15418412212E+02  0.91034164029E+01  0.20902743666E+02  0.17299239004E+03  0.17078888340E+03 0.  0.
        -24    2    3    3    0    0  0.17630999488E+02 -0.52811153198E+02  0.30247901314E+02  0.10203395492E+03  0.79975761193E+02 0.  0.
          6    2    1    2  501    0  0.15418412212E+02 -0.91034164029E+01  0.17200779373E+03  0.24386654278E+03  0.17194071640E+03 0.  0.
         24    2    5    5    0    0  0.47397171565E+02  0.45822141105E+02  0.75171143032E+02  0.12794033851E+03  0.79823987533E+02 0.  0.
          5    1    5    5  501    0 -0.31978759352E+02 -0.54925557508E+02  0.96836650697E+02  0.11592620427E+03  0.47000000000E+01 0. -1.
        -11    1    6    6    0    0 -0.11966150906E+01  0.30914395548E+02 -0.66237928782E+01  0.31638684736E+02  0.00000000000E+00 0.  1.
         12    1    6    6    0    0  0.48593786655E+02  0.14907745557E+02  0.81794935910E+02  0.96301653774E+02  0.00000000000E+00 0. -1.
         -5    1    3    3    0  503 -0.33049411700E+02  0.61914569600E+02 -0.93451576483E+01  0.70958435115E+02  0.47000000000E+01 0.  1.
         11    1    4    4    0    0 -0.21795441530E+02 -0.40127602492E+02  0.38588878840E+02  0.59786012774E+02  0.00000000000E+00 0. -1.
        -12    1    4    4    0    0  0.39426441018E+02 -0.12683550705E+02 -0.83409775259E+01  0.42247942150E+02  0.00000000000E+00 0.  1.
</event>
<event>
12    1  0.8133506E-002  0.2183188E+03  0.7818608E-02  0.1135357E+00
         21   -1    0    0  501  502  0.00000000000E+00  0.00000000000E+00  0.22639598377E+03  0.22639598377E+03  0.00000000000E+00 0. -1.
         21   -1    0    0  502  503 -0.00000000000E+00 -0.00000000000E+00 -0.24297591171E+03  0.24297591171E+03  0.00000000000E+00 0. -1.
         -6    2    1    2    0  503  0.93987691378E+02 -0.92680146210E+02 -0.95499414792E+02  0.23829232286E+03  0.17389593807E+03 0.  0.
        -24    2    3    3    0    0  0.10858533009E+03 -0.11776141691E+03 -0.50576657360E+02  0.18460521704E+03  0.76567373383E+02 0.  0.
          6    2    1    2  501    0 -0.93987691378E+02  0.92680146210E+02  0.78919486853E+02  0.23107957262E+03  0.17247083187E+03 0.  0.
         24    2    5    5    0    0 -0.96592070741E+01  0.75918788850E+02 -0.70668657267E+01  0.10939153214E+03  0.77843457857E+02 0.  0.
          5    1    5    5  501    0 -0.84328484304E+02  0.16761357360E+02  0.85986352580E+02  0.12168804048E+03  0.47000000000E+01 0. -1.
        -11    1    6    6    0    0 -0.37665336742E+02  0.13553610651E+02 -0.88790343878E+01  0.41002624370E+02  0.00000000000E+00 0.  1.
         12    1    6    6    0    0  0.28006129668E+02  0.62365178198E+02  0.18121686611E+01  0.68388907770E+02  0.00000000000E+00 0. -1.
         -5    1    3    3    0  503 -0.14597638715E+02  0.25081270696E+02 -0.44922757432E+02  0.53687105818E+02  0.47000000000E+01 0.  1.
         11    1    4    4    0    0  0.60359491080E+02 -0.11352891540E+03 -0.43168955555E+02  0.13563053314E+03  0.00000000000E+00 0. -1.
        -12    1    4    4    0    0  0.48225839014E+02 -0.42325015041E+01 -0.74077018046E+01  0.48974683905E+02  0.00000000000E+00 0.  1.
</event>
<event>
12    1  0.8133506E-002  0.1861728E+03  0.7818608E-02  0.1162095E+00
         21   -1    0    0  503  502  0.00000000000E+00  0.00000000000E+00  0.96304601142E+02  0.96304601142E+02  0.00000000000E+00 0.  1.
         21   -1    0    0  501  503 -0.00000000000E+00 -0.00000000000E+00 -0.45628019862E+03  0.45628019862E+03  0.00000000000E+00 0.  1.
          6    2    1    2  501    0  0.65964894191E+02  0.27216364578E+02 -0.30793595021E+03  0.35984004447E+03  0.17195409388E+03 0.  0.
         24    2    3    3    0    0  0.50889858515E+02  0.27091203055E+02 -0.66756401262E+02  0.11814408422E+03  0.78599596341E+02 0.  0.
         -6    2    1    2    0  502 -0.65964894191E+02 -0.27216364578E+02 -0.52039647263E+02  0.19274475529E+03  0.17131934520E+03 0.  0.
        -24    2    5    5    0    0 -0.62943330802E+02 -0.80283652070E+02 -0.54933885552E+02  0.13930569222E+03  0.77337031366E+02 0.  0.
          5    1    3    3  501    0  0.15075035675E+02  0.12516152268E+00 -0.24117954895E+03  0.24169596024E+03  0.47000000000E+01 0. -1.
        -11    1    4    4    0    0  0.37190077522E+02 -0.17644006384E+02 -0.57069653505E+02  0.70365887890E+02  0.00000000000E+00 0.  1.
         12    1    4    4    0    0  0.13699780993E+02  0.44735209439E+02 -0.96867477568E+01  0.47778196334E+02  0.00000000000E+00 0. -1.
         -5    1    5    5    0  502 -0.30215633888E+01  0.53067287492E+02  0.28942382884E+01  0.53439063075E+02  0.47000000000E+01 0.  1.
         11    1    6    6    0    0 -0.55984062792E+02 -0.12964159691E+02 -0.39952293411E+02  0.69989073947E+02  0.00000000000E+00 0. -1.
        -12    1    6    6    0    0 -0.69592680097E+01 -0.67319492379E+02 -0.14981592141E+02  0.69316618271E+02  0.00000000000E+00 0.  1.
</event>
<event>
12    1  0.8133506E-002  0.2107183E+03  0.7818608E-02  0.1141945E+00
         21   -1    0    0  501  502  0.00000000000E+00  0.00000000000E+00  0.20570126318E+03  0.20570126318E+03  0.00000000000E+00 0. -1.
         21   -1    0    0  502  503 -0.00000000000E+00 -0.00000000000E+00 -0.42158647623E+03  0.42158647623E+03  0.00000000000E+00 0. -1.
         -6    2    1    2    0  503 -0.12038042935E+03  0.18684445519E+01 -0.32897779386E+03  0.38813899469E+03  0.16712435937E+03 0.  0.
        -24    2    3    3    0    0 -0.13996477952E+03 -0.27929424692E+02 -0.22797943789E+03  0.28092790528E+03  0.81090514854E+02 0.  0.
          6    2    1    2  501    0  0.12038042935E+03 -0.18684445519E+01  0.11309258080E+03  0.23914874472E+03  0.17293713139E+03 0.  0.
         24    2    5    5    0    0 -0.42570826177E+01  0.10078688775E+01  0.63630498873E+02  0.10494229884E+03  0.83336109498E+02 0.  0.
          5    1    5    5  501    0  0.12463751196E+03 -0.28763134293E+01  0.49462081927E+02  0.13420644588E+03  0.47000000000E+01 0. -1.
        -11    1    6    6    0    0 -0.14908049035E+02 -0.37627139456E+02  0.45677467589E+02  0.61028539185E+02  0.00000000000E+00 0.  1.
         12    1    6    6    0    0  0.10650966418E+02  0.38635008333E+02  0.17953031284E+02  0.43913759652E+02  0.00000000000E+00 0. -1.
         -5    1    3    3    0  503  0.19584350173E+02  0.29797869244E+02 -0.10099835597E+03  0.10721108941E+03  0.47000000000E+01 0.  1.
         11    1    4    4    0    0 -0.10832321578E+03 -0.32935059285E+02 -0.22074420833E+03  0.24808595833E+03  0.00000000000E+00 0. -1.
        -12    1    4    4    0    0 -0.31641563735E+02  0.50056345926E+01 -0.72352295573E+01  0.32841946959E+02  0.00000000000E+00 0.  1.
</event>
<event>
12    1  0.8133506E-002  0.1795713E+03  0.7818608E-02  0.1168222E+00
         21   -1    0    0  501  502  0.00000000000E+00  0.00000000000E+00  0.48904516836E+03  0.48904516836E+03  0.00000000000E+00 0. -1.
         21   -1    0    0  502  503 -0.00000000000E+00 -0.00000000000E+00 -0.82216470446E+02  0.82216470446E+02  0.00000000000E+00 0. -1.
         -6    2    1    2    0  503  0.40610183375E+02  0.35434427134E+02  0.76298223037E+02  0.19510831068E+03  0.17129228949E+03 0.  0.
        -24    2    3    3    0    0  0.45114351496E+02 -0.40351489591E+02  0.60580376848E+02  0.11743635053E+03  0.80360232355E+02 0.  0.
          6    2    1    2  501    0 -0.40610183375E+02 -0.35434427134E+02  0.33053047488E+03  0.37615332813E+03  0.17127797821E+03 0.  0.
         24    2    5    5    0    0 -0.54640028350E+01 -0.54821426942E+02  0.32028787343E+03  0.33446267387E+03  0.79029830867E+02 0.  0.
          5    1    5    5  501    0 -0.35146180540E+02  0.19386999808E+02  0.10242601448E+02  0.41690654259E+02  0.47000000000E+01 0. -1.
        -11    1    6    6    0    0 -0.14106053824E+02  0.12950183652E+02  0.25661991724E+02  0.32019147870E+02  0.00000000000E+00 0.  1.
         12    1    6    6    0    0  0.86420509892E+01 -0.67771610594E+02  0.29462588170E+03  0.30244352600E+03  0.00000000000E+00 0. -1.
         -5    1    3    3    0  503 -0.45041681202E+01  0.75785916725E+02  0.15717846189E+02  0.77671960147E+02  0.47000000000E+01 0.  1.
         13    1    4    4    0    0  0.57578059504E+02 -0.43951096336E+02  0.20458747086E+02  0.75269463514E+02  0.00000000000E+00 0. -1.
        -14    1    4    4    0    0 -0.12463708008E+02  0.35996067452E+01  0.40121629763E+02  0.42166887019E+02  0.00000000000E+00 0.  1.
</event>
<event>
12    1  0.8133506E-002  0.1765606E+03  0.7818608E-02  0.1171331E+00
         21   -1    0    0  503  502  0.00000000000E+00  0.00000000000E+00  0.62089325668E+03  0.62089325668E+03  0.00000000000E+00 0.  1.
         21   -1    0    0  501  503 -0.00000000000E+00 -0.00000000000E+00 -0.39485462785E+03  0.39485462785E+03  0.00000000000E+00 0.  1.
          6    2    1    2  501    0 -0.36341781772E+02  0.71886530471E+01 -0.36156578001E+03  0.40237229790E+03  0.17263038844E+03 0.  0.
         24    2    3    3    0    0 -0.37344363500E+02 -0.45363533356E+02 -0.12350120632E+03  0.15852896969E+03  0.80165046163E+02 0.  0.
         -6    2    1    2    0  502  0.36341781772E+02 -0.71886530471E+01  0.58760440884E+03  0.61337558663E+03  0.17198333394E+03 0.  0.
        -24    2    5    5    0    0 -0.39221414660E+02 -0.22179568030E+02  0.39712297660E+03  0.40785237574E+03  0.81281297032E+02 0.  0.
          5    1    3    3  501    0  0.10025817283E+01  0.52552186403E+02 -0.23806457369E+03  0.24384332821E+03  0.47000000000E+01 0. -1.
        -13    1    4    4    0    0 -0.90831522858E+01  0.86370783683E+01 -0.86125497161E+02  0.87032775662E+02  0.00000000000E+00 0.  1.
         14    1    4    4    0    0 -0.28261211215E+02 -0.54000611724E+02 -0.37375709155E+02  0.71496194030E+02  0.00000000000E+00 0. -1.
         -5    1    5    5    0  502  0.75563196432E+02  0.14990914982E+02  0.19048143224E+03  0.20552321090E+03  0.47000000000E+01 0.  1.
         13    1    6    6    0    0  0.16553063948E+02 -0.32244724555E+02  0.15144269713E+03  0.15571967346E+03  0.00000000000E+00 0. -1.
        -14    1    6    6    0    0 -0.55774478608E+02  0.10065156525E+02  0.24568027946E+03  0.25213270228E+03  0.00000000000E+00 0.  1.
</event>
<event>
12    1  0.8133506E-002  0.1854595E+03  0.7818608E-02  0.1162897E+00
         21   -1    0    0  501  502  0.00000000000E+00  0.00000000000E+00  0.88384711481E+03  0.88384711481E+03  0.00000000000E+00 0. -1.
         21   -1    0    0  502  503 -0.00000000000E+00 -0.00000000000E+00 -0.68318624163E+02  0.68318624163E+02  0.00000000000E+00 0. -1.
         -6    2    1    2    0  503 -0.37610211601E+00  0.65620572448E+02  0.93389263898E+02  0.20659194614E+03  0.17219894488E+03 0.  0.
        -24    2    3    3    0    0  0.11784349679E+02  0.11022544399E+03  0.71875564204E+02  0.15538256783E+03  0.81787078784E+02 0.  0.
          6    2    1    2  501    0  0.37610211601E+00 -0.65620572448E+02  0.72213922675E+03  0.74557379283E+03  0.17346185968E+03 0.  0.
         24    2    5    5    0    0 -0.20430136241E+02  0.27427537857E+02  0.28886190577E+03  0.30190479767E+03  0.80843342056E+02 0.  0.
          5    1    5    5  501    0  0.20806238357E+02 -0.93048110305E+02  0.43327732098E+03  0.44366899516E+03  0.47000000000E+01 0. -1.
        -11    1    6    6    0    0 -0.23230635117E+02 -0.15182818699E+02  0.21341240576E+03  0.21520928261E+03  0.00000000000E+00 0.  1.
         12    1    6    6    0    0  0.28004988758E+01  0.42610356556E+02  0.75449500009E+02  0.86695515060E+02  0.00000000000E+00 0. -1.
         -5    1    3    3    0  503 -0.12160451795E+02 -0.44604871539E+02  0.21513699694E+02  0.51209378315E+02  0.47000000000E+01 0.  1.
         13    1    4    4    0    0 -0.11996761589E+02  0.31488777359E+02  0.64539163845E+02  0.72806380614E+02  0.00000000000E+00 0. -1.
        -14    1    4    4    0    0  0.23781111269E+02  0.78736666628E+02  0.73364003584E+01  0.82576187216E+02  0.00000000000E+00 0.  1.
</event>
<event>
12    1  0.8133506E-002  0.1998087E+03  0.7818608E-02  0.1149906E+00
         21   -1    0    0  501  502  0.00000000000E+00  0.00000000000E+00  0.16861817580E+03  0.16861817580E+03  0.00000000000E+00 0.  1.
         21   -1    0    0  502  503 -0.00000000000E+00 -0.00000000000E+00 -0.24625156728E+03  0.24625156728E+03  0.00000000000E+00 0.  1.
         -6    2    1    2    0  503  0.19726555335E+02  0.10007949599E+03  0.19571028143E+01  0.19981824811E+03  0.17180936972E+03 0.  0.
        -24    2    3    3    0    0  0.57863260811E+02  0.41043580406E+02  0.47981202415E+02  0.11567577740E+03  0.77755753788E+02 0.  0.
          6    2    1    2  501    0 -0.19726555335E+02 -0.10007949599E+03 -0.79590494295E+02  0.21505149498E+03  0.17177734486E+03 0.  0.
         24    2    5    5    0    0  0.12487828317E+02  0.11259071613E+02 -0.15899044332E+02  0.82715808375E+02  0.79412925867E+02 0.  0.
          5    1    5    5  501    0 -0.32214383652E+02 -0.11133856760E+03 -0.63691449963E+02  0.13233568660E+03  0.47000000000E+01 0. -1.
        -13    1    6    6    0    0  0.33570736363E+02 -0.34685125238E+01  0.19487109594E+02  0.38971430041E+02  0.00000000000E+00 0.  1.
         14    1    6    6    0    0 -0.21082908046E+02  0.14727584137E+02 -0.35386153926E+02  0.43744378334E+02  0.00000000000E+00 0. -1.
         -5    1    3    3    0  503 -0.38136705476E+02  0.59035915586E+02 -0.46024099601E+02  0.84142470713E+02  0.47000000000E+01 0.  1.
         13    1    4    4    0    0  0.46491750700E+02  0.59896985389E+02  0.17062942064E+02  0.77719210841E+02  0.00000000000E+00 0. -1.
        -14    1    4    4    0    0  0.11371510110E+02 -0.18853404983E+02  0.30918260351E+02  0.37956566556E+02  0.00000000000E+00 0.  1.
</event>
<event>
12    1  0.8133506E-002  0.2449451E+03  0.7818608E-02  0.1116963E+00
         21   -1    0    0  503  502  0.00000000000E+00  0.00000000000E+00  0.73373615422E+02  0.73373615422E+02  0.00000000000E+00 0.  1.
         21   -1    0    0  501  503 -0.00000000000E+00 -0.00000000000E+00 -0.15668987279E+04  0.15668987279E+04  0.00000000000E+00 0.  1.
          6    2    1    2  501    0  0.14490808305E+03  0.92387785425E+02 -0.13150618556E+04  0.13372092649E+04  0.17090078651E+03 0.  0.
         24    2    3    3    0    0  0.14780479824E+03  0.36650244853E+02 -0.75708509435E+03  0.77642836258E+03  0.80459078409E+02 0.  0.
         -6    2    1    2    0  502 -0.14490808305E+03 -0.92387785425E+02 -0.17846325690E+03  0.30306307837E+03  0.17454008131E+03 0.  0.
        -24    2    5    5    0    0 -0.42828779018E+02  0.15838806258E+02 -0.45964770444E+02  0.10378659112E+03  0.81078506887E+02 0.  0.
          5    1    3    3  501    0 -0.28967151936E+01  0.55737540572E+02 -0.55797676120E+03  0.56078090234E+03  0.47000000000E+01 0. -1.
        -11    1    4    4    0    0  0.20415552681E+02  0.26363254995E+02 -0.29885141369E+03  0.30070580884E+03  0.00000000000E+00 0.  1.
         12    1    4    4    0    0  0.12738924556E+03  0.10286989857E+02 -0.45823368067E+03  0.47572255375E+03  0.00000000000E+00 0. -1.
         -5    1    5    5    0  502 -0.10207930403E+03 -0.10822659168E+03 -0.13249848645E+03  0.19927648725E+03  0.47000000000E+01 0.  1.
         13    1    6    6    0    0 -0.69622032811E+01 -0.41832390113E+01  0.22513124946E+02  0.23933502836E+02  0.00000000000E+00 0. -1.
        -14    1    6    6    0    0 -0.35866575737E+02  0.20022045269E+02 -0.68477895390E+02  0.79853088286E+02  0.00000000000E+00 0.  1.
</event>
<event>
12    1  0.8133506E-002  0.2054296E+03  0.7818608E-02  0.1145272E+00
         21   -1    0    0  501  502  0.00000000000E+00  0.00000000000E+00  0.40992094811E+02  0.40992094811E+02  0.00000000000E+00 0. -1.
         21   -1    0    0  502  503 -0.00000000000E+00 -0.00000000000E+00 -0.10293521368E+04  0.10293521368E+04  0.00000000000E+00 0. -1.
         -6    2    1    2    0  503  0.11170686134E+03  0.79679006671E+01 -0.50831504700E+03  0.54825677792E+03  0.17221903848E+03 0.  0.
        -24    2    3    3    0    0  0.10533602301E+03 -0.17319741214E+02 -0.20596203171E+03  0.24474485349E+03  0.78000215554E+02 0.  0.
          6    2    1    2  501    0 -0.11170686134E+03 -0.79679006671E+01 -0.48004499495E+03  0.52208745366E+03  0.17201802747E+03 0.  0.
         24    2    5    5    0    0 -0.39458705684E+02  0.47196316656E+02 -0.33915706372E+03  0.35435437392E+03  0.82188969384E+02 0.  0.
          5    1    5    5  501    0 -0.72248155660E+02 -0.55164217323E+02 -0.14088793123E+03  0.16773307973E+03  0.47000000000E+01 0. -1.
        -11    1    6    6    0    0  0.14916644624E+02  0.28757955784E+02 -0.50183742339E+02  0.59732188164E+02  0.00000000000E+00 0.  1.
         12    1    6    6    0    0 -0.54375350308E+02  0.18438360872E+02 -0.28897332138E+03  0.29462218576E+03  0.00000000000E+00 0. -1.
         -5    1    3    3    0  503  0.63708383347E+01  0.25287641882E+02 -0.30235301529E+03  0.30351192442E+03  0.47000000000E+01 0.  1.
         11    1    4    4    0    0  0.70621215686E+02  0.22959668899E+02 -0.15098927760E+03  0.16826248676E+03  0.00000000000E+00 0. -1.
        -12    1    4    4    0    0  0.34714807323E+02 -0.40279410114E+02 -0.54972754111E+02  0.76482366733E+02  0.00000000000E+00 0.  1.
</event>
<event>
12    1  0.8133506E-002  0.1852254E+03  0.7818608E-02  0.1164268E+00
         21   -1    0    0  503  502  0.00000000000E+00  0.00000000000E+00  0.24964303028E+02  0.24964303028E+02  0.00000000000E+00 0.  1.
         21   -1    0    0  501  503 -0.00000000000E+00 -0.00000000000E+00 -0.13313491927E+04  0.13313491927E+04  0.00000000000E+00 0.  1.
          6    2    1    2  501    0  0.61451386928E+02  0.21589474625E+02 -0.68572630089E+03  0.71030205723E+03  0.17339571623E+03 0.  0.
         24    2    3    3    0    0  0.91156344805E+02  0.51343332692E+02 -0.60503648304E+03  0.61919435560E+03  0.79918002884E+02 0.  0.
         -6    2    1    2    0  502 -0.61451386928E+02 -0.21589474625E+02 -0.62065858878E+03  0.64601143849E+03  0.16694704690E+03 0.  0.
        -24    2    5    5    0    0 -0.72655747514E+02 -0.65726370129E+02 -0.51206592294E+03  0.52816382369E+03  0.84538167950E+02 0.  0.
          5    1    3    3  501    0 -0.29704957877E+02 -0.29753858067E+02 -0.80689817850E+02  0.91107701634E+02  0.47000000000E+01 0. -1.
        -13    1    4    4    0    0  0.11576548209E+02 -0.90594588509E+01 -0.15929582926E+02  0.21675836208E+02  0.00000000000E+00 0.  1.
         14    1    4    4    0    0  0.79579796596E+02  0.60402791543E+02 -0.58910690011E+03  0.59751851939E+03  0.00000000000E+00 0. -1.
         -5    1    5    5    0  502  0.11204360586E+02  0.44136895503E+02 -0.10859266583E+03  0.11784761480E+03  0.47000000000E+01 0.  1.
         13    1    6    6    0    0 -0.52074437001E+02 -0.20934694198E+02 -0.11410028966E+03  0.12715692868E+03  0.00000000000E+00 0. -1.
        -14    1    6    6    0    0 -0.20581310513E+02 -0.44791675931E+02 -0.39796563328E+03  0.40100689501E+03  0.00000000000E+00 0.  1.
</event>
<event>
12    1  0.8133506E-002  0.2437455E+03  0.7818608E-02  0.1117399E+00
         21   -1    0    0  503  502  0.00000000000E+00  0.00000000000E+00  0.16989206382E+04  0.16989206382E+04  0.00000000000E+00 0. -1.
         21   -1    0    0  501  503 -0.00000000000E+00 -0.00000000000E+00 -0.49554926458E+02  0.49554926458E+02  0.00000000000E+00 0. -1.
          6    2    1    2  501    0  0.14690367445E+03  0.89669675826E+02  0.34875042273E+03  0.42521747126E+03  0.17193516273E+03 0.  0.
         24    2    3    3    0    0  0.79097041031E+01  0.34462802127E+02  0.17943866135E+03  0.19926241990E+03  0.79101394716E+02 0.  0.
         -6    2    1    2    0  502 -0.14690367445E+03 -0.89669675826E+02  0.13006152890E+04  0.13232580934E+04  0.17259927979E+03 0.  0.
        -24    2    5    5    0    0 -0.13251041690E+03 -0.33014979984E+01  0.88386219610E+03  0.89738034280E+03  0.80679535553E+02 0.  0.
          5    1    3    3  501    0  0.13899397035E+03  0.55206873699E+02  0.16931176137E+03  0.22595505136E+03  0.47000000000E+01 0. -1.
        -11    1    4    4    0    0  0.16155871513E+01  0.51614348767E+01  0.16655159387E+03  0.16663938296E+03  0.00000000000E+00 0.  1.
         12    1    4    4    0    0  0.62941169518E+01  0.29301367250E+02  0.12887067484E+02  0.32623036941E+02  0.00000000000E+00 0. -1.
         -5    1    5    5    0  502 -0.14393257553E+02 -0.86368177828E+02  0.41675309288E+03  0.42587775057E+03  0.47000000000E+01 0.  1.
         11    1    6    6    0    0 -0.14166645707E+02 -0.16176622024E+02  0.33824907034E+03  0.33893186710E+03  0.00000000000E+00 0. -1.
        -12    1    6    6    0    0 -0.11834377119E+03  0.12875124026E+02  0.54561312576E+03  0.55844847569E+03  0.00000000000E+00 0.  1.
</event>
<event>
12    1  0.8133506E-002  0.1734102E+03  0.7818608E-02  0.1174460E+00
         21   -1    0    0  503  502  0.00000000000E+00  0.00000000000E+00  0.34804623995E+03  0.34804623995E+03  0.00000000000E+00 0.  1.
         21   -1    0    0  501  503 -0.00000000000E+00 -0.00000000000E+00 -0.87683539708E+02  0.87683539708E+02  0.00000000000E+00 0.  1.
          6    2    1    2  501    0 -0.73126356318E+01  0.19365916374E+02  0.15907163379E+03  0.23531869443E+03  0.17217023527E+03 0.  0.
         24    2    3    3    0    0 -0.21115339828E+02  0.65427821278E+02  0.53107129464E+02  0.11885934571E+03  0.81120401186E+02 0.  0.
         -6    2    1    2    0  502  0.73126356318E+01 -0.19365916374E+02  0.10129106644E+03  0.20041108523E+03  0.17168636983E+03 0.  0.
        -24    2    5    5    0    0  0.69694903613E+01 -0.49432051818E+02  0.30797672862E+00  0.94941825926E+02  0.80757376862E+02 0.  0.
          5    1    3    3  501    0  0.13802704196E+02 -0.46061904904E+02  0.10596450433E+03  0.11645934872E+03  0.47000000000E+01 0. -1.
        -13    1    4    4    0    0 -0.49696109328E+01  0.68802950909E+02  0.67833936617E+02  0.96747020851E+02  0.00000000000E+00 0.  1.
         14    1    4    4    0    0 -0.16145728895E+02 -0.33751296318E+01 -0.14726807152E+02  0.22112324855E+02  0.00000000000E+00 0. -1.
         -5    1    5    5    0  502  0.34314527051E+00  0.30066135445E+02  0.10098308972E+03  0.10546925930E+03  0.47000000000E+01 0.  1.
         11    1    6    6    0    0 -0.14706260061E+02  0.16773601717E+02  0.10290277799E+02  0.24566595546E+02  0.00000000000E+00 0. -1.
        -12    1    6    6    0    0  0.21675750422E+02 -0.66205653535E+02 -0.99823010702E+01  0.70375230380E+02  0.00000000000E+00 0.  1.
</event>
<event>
12    1  0.8133506E-002  0.2042196E+03  0.7818608E-02  0.1146254E+00
         21   -1    0    0  501  502  0.00000000000E+00  0.00000000000E+00  0.63227377807E+02  0.63227377807E+02  0.00000000000E+00 0.  1.
         21   -1    0    0  502  503 -0.00000000000E+00 -0.00000000000E+00 -0.77297311792E+03  0.77297311792E+03  0.00000000000E+00 0.  1.
         -6    2    1    2    0  503 -0.36575644081E+01  0.11122535923E+03 -0.51538444824E+03  0.55437062203E+03  0.17123433876E+03 0.  0.
        -24    2    3    3    0    0  0.47480389279E+02  0.27089342066E+02 -0.33643809293E+03  0.35007219382E+03  0.79823121277E+02 0.  0.
          6    2    1    2  501    0  0.36575644081E+01 -0.11122535923E+03 -0.19436129187E+03  0.28182987370E+03  0.17107690556E+03 0.  0.
         24    2    5    5    0    0  0.38318772149E+01 -0.14714755559E+03 -0.17961722009E+03  0.24271578123E+03  0.70579871816E+02 0.  0.
          5    1    5    5  501    0 -0.17431280676E+00  0.35922196366E+02 -0.14744071778E+02  0.39114092464E+02  0.47000000000E+01 0. -1.
        -13    1    6    6    0    0 -0.16395372772E+02 -0.10377768687E+03 -0.79512328366E+02  0.13176049068E+03  0.00000000000E+00 0.  1.
         14    1    6    6    0    0  0.20227249987E+02 -0.43369868719E+02 -0.10010489173E+03  0.11095529056E+03  0.00000000000E+00 0. -1.
         -5    1    3    3    0  503 -0.51137953687E+02  0.84136017160E+02 -0.17894635531E+03  0.20429842821E+03  0.47000000000E+01 0.  1.
         13    1    4    4    0    0 -0.19487282878E+02  0.71141513504E+01 -0.35414808730E+02  0.41043562477E+02  0.00000000000E+00 0. -1.
        -14    1    4    4    0    0  0.66967672156E+02  0.19975190716E+02 -0.30102328420E+03  0.30902863134E+03  0.00000000000E+00 0.  1.
</event>
<event>
12    1  0.8133506E-002  0.2884837E+03  0.7818608E-02  0.1091337E+00
         21   -1    0    0  503  502  0.00000000000E+00  0.00000000000E+00  0.43923729929E+03  0.43923729929E+03  0.00000000000E+00 0. -1.
         21   -1    0    0  501  503 -0.00000000000E+00 -0.00000000000E+00 -0.19554187460E+03  0.19554187460E+03  0.00000000000E+00 0.  1.
          6    2    1    2  501    0  0.18780012674E+03  0.13264105167E+03  0.61348705622E+02  0.29349747451E+03  0.17179804326E+03 0.  0.
         24    2    3    3    0    0  0.11252877979E+03  0.20257526063E+02 -0.11628794235E+02  0.13973259561E+03  0.79478775629E+02 0.  0.
         -6    2    1    2    0  502 -0.18780012674E+03 -0.13264105167E+03  0.18234671907E+03  0.34128169938E+03  0.17424217682E+03 0.  0.
        -24    2    5    5    0    0 -0.94238732520E+02 -0.85193933537E+02  0.54421825405E+02  0.17577692022E+03  0.10861328455E+03 0.  0.
          5    1    3    3  501    0  0.75271346950E+02  0.11238352560E+03  0.72977499857E+02  0.15376487890E+03  0.47000000000E+01 0. -1.
        -11    1    4    4    0    0  0.96285188189E+02  0.29394548686E+02 -0.37859049995E+02  0.10755549555E+03  0.00000000000E+00 0.  1.
         12    1    4    4    0    0  0.16243591604E+02 -0.91370226227E+01  0.26230255760E+02  0.32177100053E+02  0.00000000000E+00 0. -1.
         -5    1    5    5    0  502 -0.93561394222E+02 -0.47447118129E+02  0.12792489366E+03  0.16550477916E+03  0.47000000000E+01 0.  1.
         13    1    6    6    0    0 -0.52946779412E+02  0.15297719739E+02  0.35339290836E+02  0.65469436809E+02  0.00000000000E+00 0. -1.
        -14    1    6    6    0    0 -0.41291953109E+02 -0.10049165328E+03  0.19082534570E+02  0.11030748341E+03  0.00000000000E+00 0.  1.
</event>
<event>
12    1  0.8133506E-002  0.2105663E+03  0.7818608E-02  0.1142022E+00
         21   -1    0    0  501  502  0.00000000000E+00  0.00000000000E+00  0.10722697790E+04  0.10722697790E+04  0.00000000000E+00 0.  1.
         21   -1    0    0  502  503 -0.00000000000E+00 -0.00000000000E+00 -0.42571648797E+02  0.42571648797E+02  0.00000000000E+00 0. -1.
         -6    2    1    2    0  503  0.12246512965E+03 -0.16046011877E+00  0.38556629594E+03  0.43716600720E+03  0.16569555081E+03 0.  0.
        -24    2    3    3    0    0  0.75768331911E+02 -0.50891521690E+02  0.31735513574E+03  0.34006253711E+03  0.81224749105E+02 0.  0.
          6    2    1    2  501    0 -0.12246512965E+03  0.16046011877E+00  0.64413183424E+03  0.67767542058E+03  0.17129046104E+03 0.  0.
         24    2    5    5    0    0 -0.66747022041E+02  0.56732294032E+02  0.26448606453E+03  0.28978641536E+03  0.79684189516E+02 0.  0.
          5    1    5    5  501    0 -0.55718107609E+02 -0.56571833913E+02  0.37964576972E+03  0.38788900522E+03  0.47000000000E+01 0. -1.
        -11    1    6    6    0    0 -0.24039713255E+02  0.37978967416E+02  0.22261187814E+03  0.22710428897E+03  0.00000000000E+00 0.  1.
         12    1    6    6    0    0 -0.42707308786E+02  0.18753326616E+02  0.41874186389E+02  0.62682126389E+02  0.00000000000E+00 0. -1.
         -5    1    3    3    0  503  0.46696797739E+02  0.50731061572E+02  0.68211160203E+02  0.97103470089E+02  0.47000000000E+01 0.  1.
         13    1    4    4    0    0  0.62809560930E+02  0.62183198885E+00  0.11710649981E+03  0.13288852440E+03  0.00000000000E+00 0. -1.
        -14    1    4    4    0    0  0.12958770981E+02 -0.51513353679E+02  0.20024863593E+03  0.20717401271E+03  0.00000000000E+00 0.  1.
</event>
<event>
12    1  0.8133506E-002  0.2144888E+03  0.7818608E-02  0.1138512E+00
         21   -1    0    0  501  502  0.00000000000E+00  0.00000000000E+00  0.50515670495E+03  0.50515670495E+03  0.00000000000E+00 0.  1.
         21   -1    0    0  502  503 -0.00000000000E+00 -0.00000000000E+00 -0.98065233674E+02  0.98065233674E+02  0.00000000000E+00 0.  1.
         -6    2    1    2    0  503  0.12514830606E+03  0.23619587458E+02  0.11648300109E+03  0.24203125472E+03  0.16967868250E+03 0.  0.
        -24    2    3    3    0    0  0.40471148171E+01 -0.16717375425E+02  0.31450663277E+02  0.88586940487E+02  0.81010197043E+02 0.  0.
          6    2    1    2  501    0 -0.12514830606E+03 -0.23619587458E+02  0.29060847018E+03  0.36119068391E+03  0.17258459889E+03 0.  0.
         24    2    5    5    0    0 -0.11631966874E+03  0.17100725690E+02  0.12148945526E+03  0.18695113631E+03  0.79801876364E+02 0.  0.
          5    1    5    5  501    0 -0.88286373233E+01 -0.40720313148E+02  0.16911901492E+03  0.17423954760E+03  0.47000000000E+01 0. -1.
        -13    1    6    6    0    0 -0.11300703705E+03 -0.87939745344E+01  0.83188886780E+02  0.14059984102E+03  0.00000000000E+00 0.  1.
         14    1    6    6    0    0 -0.33126316867E+01  0.25894700225E+02  0.38300568485E+02  0.46351295286E+02  0.00000000000E+00 0. -1.
         -5    1    3    3    0  503  0.12110119124E+03  0.40336962883E+02  0.85032337814E+02  0.15344431423E+03  0.47000000000E+01 0.  1.
         11    1    4    4    0    0  0.73872312802E+01 -0.16091703937E+02 -0.25769315157E+02  0.31266143434E+02  0.00000000000E+00 0. -1.
        -12    1    4    4    0    0 -0.33401164630E+01 -0.62567148830E+00  0.57219978434E+02  0.57320797053E+02  0.00000000000E+00 0.  1.
</event>
<event>
12    1  0.8133506E-002  0.2349856E+03  0.7818608E-02  0.1124070E+00
         21   -1    0    0  501  502  0.00000000000E+00  0.00000000000E+00  0.19044534858E+03  0.19044534858E+03  0.00000000000E+00 0.  1.
         21   -1    0    0  502  503 -0.00000000000E+00 -0.00000000000E+00 -0.28856020796E+03  0.28856020796E+03  0.00000000000E+00 0.  1.
         -6    2    1    2    0  503  0.11101998660E+02  0.15236568273E+03 -0.80897924586E+02  0.24852102960E+03  0.17854879530E+03 0.  0.
        -24    2    3    3    0    0 -0.48217319634E+02  0.97626082064E+02 -0.95960067350E+02  0.16627649453E+03  0.81140472615E+02 0.  0.
          6    2    1    2  501    0 -0.11101998660E+02 -0.15236568273E+03 -0.17216934795E+02  0.23048452694E+03  0.17172110723E+03 0.  0.
         24    2    5    5    0    0 -0.51858661573E+02 -0.97341638131E+02  0.40194652094E+02  0.14100306872E+03  0.78112355224E+02 0.  0.
          5    1    5    5  501    0  0.40756662913E+02 -0.55024044596E+02 -0.57411586889E+02  0.89481458217E+02  0.47000000000E+01 0. -1.
        -13    1    6    6    0    0 -0.59100297753E+02 -0.28347333064E+02  0.23659930681E+02  0.69686503759E+02  0.00000000000E+00 0.  1.
         14    1    6    6    0    0  0.72416361803E+01 -0.68994305067E+02  0.16534721413E+02  0.71316564966E+02  0.00000000000E+00 0. -1.
         -5    1    3    3    0  503  0.59319318294E+02  0.54739600663E+02  0.15062142763E+02  0.82244535066E+02  0.47000000000E+01 0.  1.
         13    1    4    4    0    0 -0.43804255712E+02  0.10478964438E+03 -0.58257394323E+02  0.12764641155E+03  0.00000000000E+00 0. -1.
        -14    1    4    4    0    0 -0.44130639223E+01 -0.71635623126E+01 -0.37702673027E+02  0.38630082987E+02  0.00000000000E+00 0.  1.
</event>
<event>
12    1  0.8133506E-002  0.2026972E+03  0.7818608E-02  0.1147512E+00
         21   -1    0    0  501  502  0.00000000000E+00  0.00000000000E+00  0.34523504393E+03  0.34523504393E+03  0.00000000000E+00 0. -1.
         21   -1    0    0  502  503 -0.00000000000E+00 -0.00000000000E+00 -0.13083749163E+03  0.13083749163E+03  0.00000000000E+00 0. -1.
         -6    2    1    2    0  503  0.63505044251E+02 -0.85770147772E+02  0.35348745279E+02  0.20561990829E+03  0.17216446787E+03 0.  0.
        -24    2    3    3    0    0  0.97437438374E+02 -0.18809024891E+02  0.27557666339E+02  0.13000251439E+03  0.79330920576E+02 0.  0.
          6    2    1    2  501    0 -0.63505044251E+02  0.85770147772E+02  0.17904880702E+03  0.27045262727E+03  0.17232741920E+03 0.  0.
         24    2    5    5    0    0 -0.92392817025E+02  0.12596774479E+02  0.89590972047E+02  0.15123165507E+03  0.78417854203E+02 0.  0.
          5    1    5    5  501    0  0.28887772774E+02  0.73173373293E+02  0.89457834973E+02  0.11922097220E+03  0.47000000000E+01 0. -1.
        -11    1    6    6    0    0 -0.91248240353E+02  0.94470925432E+01  0.10269746165E+03  0.13770351322E+03  0.00000000000E+00 0.  1.
         12    1    6    6    0    0 -0.11445766721E+01  0.31496819360E+01 -0.13106489604E+02  0.13528141845E+02  0.00000000000E+00 0. -1.
         -5    1    3    3    0  503 -0.33932394124E+02 -0.66961122881E+02  0.77910789396E+01  0.75617393895E+02  0.47000000000E+01 0.  1.
         13    1    4    4    0    0  0.95250097444E+02 -0.41753072375E+02  0.22412133343E+02  0.10638704732E+03  0.00000000000E+00 0. -1.
        -14    1    4    4    0    0  0.21873409303E+01  0.22944047484E+02  0.51455329961E+01  0.23615467074E+02  0.00000000000E+00 0.  1.
</event>
<event>
12    1  0.8133506E-002  0.1760074E+03  0.7818608E-02  0.1171822E+00
         21   -1    0    0  503  502  0.00000000000E+00  0.00000000000E+00  0.36339075760E+02  0.36339075760E+02  0.00000000000E+00 0. -1.
         21   -1    0    0  501  503 -0.00000000000E+00 -0.00000000000E+00 -0.17894254823E+04  0.17894254823E+04  0.00000000000E+00 0. -1.
          6    2    1    2  501    0  0.35237022929E+02 -0.18301551066E+01 -0.15373094003E+04  0.15473075428E+04  0.17203325928E+03 0.  0.
         24    2    3    3    0    0  0.42110473169E+02  0.31937873135E+02 -0.14513885051E+04  0.14546144239E+04  0.81124655694E+02 0.  0.
         -6    2    1    2    0  502 -0.35237022929E+02  0.18301551066E+01 -0.21577700624E+03  0.27845701532E+03  0.17243432289E+03 0.  0.
        -24    2    5    5    0    0 -0.49873917165E+02 -0.16143254117E+01 -0.23509655612E+03  0.25352835458E+03  0.80723120693E+02 0.  0.
          5    1    3    3  501    0 -0.68734502404E+01 -0.33768028242E+02 -0.85920895233E+02  0.92693118878E+02  0.47000000000E+01 0. -1.
        -11    1    4    4    0    0  0.18932683975E+01  0.50693654518E+02 -0.63638127477E+03  0.63839999839E+03  0.00000000000E+00 0.  1.
         12    1    4    4    0    0  0.40217204771E+02 -0.18755781383E+02 -0.81500723035E+03  0.81621442551E+03  0.00000000000E+00 0. -1.
         -5    1    5    5    0  502  0.14636894236E+02  0.34444805183E+01  0.19319549884E+02  0.24928660747E+02  0.47000000000E+01 0.  1.
         11    1    6    6    0    0 -0.34565640587E+02  0.37700023158E+02 -0.10564424076E+03  0.11737453242E+03  0.00000000000E+00 0. -1.
        -12    1    6    6    0    0 -0.15308276578E+02 -0.39314348570E+02 -0.12945231536E+03  0.13615382216E+03  0.00000000000E+00 0.  1.
</event>
<event>
12    1  0.8133506E-002  0.2282418E+03  0.7818608E-02  0.1128115E+00
         21   -1    0    0  501  502  0.00000000000E+00  0.00000000000E+00  0.68087003714E+03  0.68087003714E+03  0.00000000000E+00 0. -1.
         21   -1    0    0  502  503 -0.00000000000E+00 -0.00000000000E+00 -0.38352672523E+03  0.38352672523E+03  0.00000000000E+00 0. -1.
         -6    2    1    2    0  503  0.14196546566E+03  0.46580058423E+02 -0.32774418875E+03  0.39938775333E+03  0.17254109358E+03 0.  0.
        -24    2    3    3    0    0  0.15531115829E+03  0.51691376036E+02 -0.33602881682E+03  0.38221340788E+03  0.79863440840E+02 0.  0.
          6    2    1    2  501    0 -0.14196546566E+03 -0.46580058423E+02  0.62508750066E+03  0.66500900904E+03  0.17081774893E+03 0.  0.
         24    2    5    5    0    0 -0.15340195700E+03 -0.39897856666E+02  0.62689589084E+03  0.65083842579E+03  0.73947272871E+02 0.  0.
          5    1    5    5  501    0  0.11436491343E+02 -0.66822017573E+01 -0.18083901808E+01  0.14170583249E+02  0.47000000000E+01 0. -1.
        -11    1    6    6    0    0 -0.22216197415E+02  0.13917734002E+02  0.46580471577E+02  0.53450940867E+02  0.00000000000E+00 0.  1.
         12    1    6    6    0    0 -0.13118575959E+03 -0.53815590668E+02  0.58031541926E+03  0.59738748493E+03  0.00000000000E+00 0. -1.
         -5    1    3    3    0  503 -0.13345692635E+02 -0.51113176130E+01  0.82846280688E+01  0.17174345458E+02  0.47000000000E+01 0.  1.
         11    1    4    4    0    0  0.87095016201E+02  0.22459122278E+02 -0.98626009109E+02  0.13348049930E+03  0.00000000000E+00 0. -1.
        -12    1    4    4    0    0  0.68216142091E+02  0.29232253759E+02 -0.23740280771E+03  0.24873290858E+03  0.00000000000E+00 0.  1.
</event>
<event>
12    1  0.8133506E-002  0.4331092E+03  0.7818608E-02  0.1033241E+00
         21   -1    0    0  501  502  0.00000000000E+00  0.00000000000E+00  0.31512528885E+03  0.31512528885E+03  0.00000000000E+00 0. -1.
         21   -1    0    0  502  503 -0.00000000000E+00 -0.00000000000E+00 -0.12739253898E+04  0.12739253898E+04  0.00000000000E+00 0.  1.
         -6    2    1    2    0  503  0.28985139122E+03 -0.26458862135E+03 -0.10607971206E+04  0.11440933943E+04  0.17215747503E+03 0.  0.
        -24    2    3    3    0    0  0.10681453569E+03 -0.41707324706E+02 -0.34386628218E+03  0.37131239040E+03  0.80498604171E+02 0.  0.
          6    2    1    2  501    0 -0.28985139122E+03  0.26458862135E+03  0.10199701967E+03  0.44495728435E+03  0.18320105169E+03 0.  0.
         24    2    5    5    0    0 -0.77232346447E+02  0.13755409346E+03 -0.35272496639E+01  0.17569516134E+03  0.77268261662E+02 0.  0.
          5    1    5    5  501    0 -0.21261904477E+03  0.12703452788E+03  0.10552426933E+03  0.26926212302E+03  0.47000000000E+01 0. -1.
        -13    1    6    6    0    0 -0.86552694558E+02  0.11377532118E+03 -0.21364506978E+02  0.14454284764E+03  0.00000000000E+00 0.  1.
         14    1    6    6    0    0  0.93203481115E+01  0.23778772281E+02  0.17837257314E+02  0.31152313695E+02  0.00000000000E+00 0. -1.
         -5    1    3    3    0  503  0.18303685553E+03 -0.22288129664E+03 -0.71693083842E+03  0.77278100387E+03  0.47000000000E+01 0.  1.
         11    1    4    4    0    0  0.18021870262E+02 -0.40048952609E+02 -0.17606255255E+03  0.18145723690E+03  0.00000000000E+00 0. -1.
        -12    1    4    4    0    0  0.88792665431E+02 -0.16583720970E+01 -0.16780372964E+03  0.18985515350E+03  0.00000000000E+00 0.  1.
</event>
<event>
12    1  0.8133506E-002  0.2648275E+03  0.7818608E-02  0.1104485E+00
         21   -1    0    0  501  502  0.00000000000E+00  0.00000000000E+00  0.59186611529E+03  0.59186611529E+03  0.00000000000E+00 0.  1.
         21   -1    0    0  502  503 -0.00000000000E+00 -0.00000000000E+00 -0.37502001925E+03  0.37502001925E+03  0.00000000000E+00 0. -1.
         -6    2    1    2    0  503  0.18880661639E+03 -0.68440688233E+02  0.50884211189E+03  0.57363218697E+03  0.17263118171E+03 0.  0.
        -24    2    3    3    0    0  0.88740774975E+02  0.18649701059E+02  0.32599356210E+03  0.34768177054E+03  0.79925431134E+02 0.  0.
          6    2    1    2  501    0 -0.18880661639E+03  0.68440688233E+02 -0.29199601585E+03  0.39325394757E+03  0.17045506096E+03 0.  0.
         24    2    5    5    0    0 -0.24625168931E+02 -0.24113005068E+01 -0.89569837114E+02  0.12311694559E+03  0.80763935368E+02 0.  0.
          5    1    5    5  501    0 -0.16418144746E+03  0.70851988740E+02 -0.20242617874E+03  0.27013700198E+03  0.47000000000E+01 0. -1.
        -13    1    6    6    0    0  0.49694127507E+01 -0.12874710103E+02  0.11072317431E+02  0.17693203119E+02  0.00000000000E+00 0.  1.
         14    1    6    6    0    0 -0.29594581682E+02  0.10463409596E+02 -0.10064215455E+03  0.10542374247E+03  0.00000000000E+00 0. -1.
         -5    1    3    3    0  503  0.10006584142E+03 -0.87090389291E+02  0.18284854979E+03  0.22595041643E+03  0.47000000000E+01 0.  1.
         13    1    4    4    0    0  0.21150890602E+02  0.31628929943E+02  0.47767490962E+02  0.61069489726E+02  0.00000000000E+00 0. -1.
        -14    1    4    4    0    0  0.67589884374E+02 -0.12979228885E+02  0.27822607114E+03  0.28661228081E+03  0.00000000000E+00 0.  1.
</event>
<event>
12    1  0.8133506E-002  0.2542190E+03  0.7818608E-02  0.1110697E+00
         21   -1    0    0  503  502  0.00000000000E+00  0.00000000000E+00  0.15531332909E+03  0.15531332909E+03  0.00000000000E+00 0.  1.
         21   -1    0    0  501  503 -0.00000000000E+00 -0.00000000000E+00 -0.58177724466E+03  0.58177724466E+03  0.00000000000E+00 0.  1.
          6    2    1    2  501    0  0.30279314095E+02 -0.18395657069E+03 -0.41014419107E+03  0.48254073749E+03  0.17283069493E+03 0.  0.
         24    2    3    3    0    0  0.15915814792E+02 -0.20609180987E+03 -0.39230604697E+03  0.45034495654E+03  0.78609147895E+02 0.  0.
         -6    2    1    2    0  502 -0.30279314095E+02  0.18395657069E+03 -0.16319724500E+02  0.25454983626E+03  0.17254688920E+03 0.  0.
        -24    2    5    5    0    0  0.98368390127E+01  0.54152469655E+02  0.43478922913E+02  0.10603593585E+03  0.79523264406E+02 0.  0.
          5    1    3    3  501    0  0.14363499303E+02  0.22135239188E+02 -0.17838144099E+02  0.32195780951E+02  0.47000000000E+01 0. -1.
        -13    1    4    4    0    0  0.44781535360E+02 -0.81953083262E+02 -0.15425281517E+03  0.18032089384E+03  0.00000000000E+00 0.  1.
         14    1    4    4    0    0 -0.28865720569E+02 -0.12413872661E+03 -0.23805323180E+03  0.27002406270E+03  0.00000000000E+00 0. -1.
         -5    1    5    5    0  502 -0.40116153107E+02  0.12980410103E+03 -0.59798647413E+02  0.14851390042E+03  0.47000000000E+01 0.  1.
         13    1    6    6    0    0  0.17350577318E+02 -0.13747024672E+02 -0.44579771719E+01  0.22580894160E+02  0.00000000000E+00 0. -1.
        -14    1    6    6    0    0 -0.75137383053E+01  0.67899494327E+02  0.47936900085E+02  0.83455041687E+02  0.00000000000E+00 0.  1.
</event>
<event>
12    1  0.8133506E-002  0.2089491E+03  0.7818608E-02  0.1143487E+00
         21   -1    0    0  503  502  0.00000000000E+00  0.00000000000E+00  0.37964693658E+03  0.37964693658E+03  0.00000000000E+00 0. -1.
         21   -1    0    0  501  503 -0.00000000000E+00 -0.00000000000E+00 -0.11206381811E+03  0.11206381811E+03  0.00000000000E+00 0.  1.
          6    2    1    2  501    0  0.10954798971E+03 -0.46810793325E+02  0.13293575839E+03  0.24313555427E+03  0.16507867661E+03 0.  0.
         24    2    3    3    0    0  0.96627788394E+02 -0.67761070498E+02  0.15392325484E+03  0.21044900164E+03  0.81657343477E+02 0.  0.
         -6    2    1    2    0  502 -0.10954798971E+03  0.46810793325E+02  0.13464736008E+03  0.24857520042E+03  0.17166160393E+03 0.  0.
        -24    2    5    5    0    0 -0.12075834609E+03 -0.35305567741E+01  0.12428797811E+03  0.19576108853E+03  0.90993732178E+02 0.  0.
          5    1    3    3  501    0  0.12920201313E+02  0.20950277173E+02 -0.20987496452E+02  0.32686552631E+02  0.47000000000E+01 0. -1.
        -13    1    4    4    0    0  0.93820861163E+02 -0.65908155029E+02  0.88242873222E+02  0.14468256137E+03  0.00000000000E+00 0.  1.
         14    1    4    4    0    0  0.28069272303E+01 -0.18529154691E+01  0.65680381619E+02  0.65766440270E+02  0.00000000000E+00 0. -1.
         -5    1    5    5    0  502  0.11210356384E+02  0.50341350099E+02  0.10359381968E+02  0.52814111891E+02  0.47000000000E+01 0.  1.
         11    1    6    6    0    0 -0.10140488689E+03  0.35673482546E+02  0.86669347828E+02  0.13808375826E+03  0.00000000000E+00 0. -1.
        -12    1    6    6    0    0 -0.19353459199E+02 -0.39204039320E+02  0.37618630285E+02  0.57677330265E+02  0.00000000000E+00 0.  1.
</event>
<event>
12    1  0.8133506E-002  0.4949252E+03  0.7818608E-02  0.1015115E+00
         21   -1    0    0  503  502  0.00000000000E+00  0.00000000000E+00  0.11186394262E+04  0.11186394262E+04  0.00000000000E+00 0. -1.
         21   -1    0    0  501  503 -0.00000000000E+00 -0.00000000000E+00 -0.38367274025E+03  0.38367274025E+03  0.00000000000E+00 0.  1.
          6    2    1    2  501    0 -0.46381170744E+03  0.20384981802E+02 -0.12470677662E+03  0.51034977090E+03  0.17137170442E+03 0.  0.
         24    2    3    3    0    0 -0.18874605735E+03  0.66636222270E+02 -0.49990574088E+02  0.22155072306E+03  0.80747787033E+02 0.  0.
         -6    2    1    2    0  502  0.46381170744E+03 -0.20384981802E+02  0.85967346258E+03  0.99196239557E+03  0.17150534837E+03 0.  0.
        -24    2    5    5    0    0  0.43273073959E+03 -0.54543963064E+02  0.71260983635E+03  0.83774611004E+03  0.61439638119E+02 0.  0.
          5    1    3    3  501    0 -0.27506565010E+03 -0.46251240468E+02 -0.74716202530E+02  0.28879904783E+03  0.47000000000E+01 0. -1.
        -11    1    4    4    0    0 -0.66866048519E+02  0.98238746762E+01  0.19289041774E+02  0.70282601622E+02  0.00000000000E+00 0.  1.
         12    1    4    4    0    0 -0.12188000883E+03  0.56812347594E+02 -0.69279615862E+02  0.15126812144E+03  0.00000000000E+00 0. -1.
         -5    1    5    5    0  502  0.31080967856E+02  0.34158981261E+02  0.14706362623E+03  0.15421628553E+03  0.47000000000E+01 0.  1.
         13    1    6    6    0    0  0.26860107026E+03 -0.63701881572E+02  0.45089011165E+03  0.52868360807E+03  0.00000000000E+00 0. -1.
        -14    1    6    6    0    0  0.16412966933E+03  0.91579185080E+01  0.26171972470E+03  0.30906250197E+03  0.00000000000E+00 0.  1.
</event>
<event>
12    1  0.8133506E-002  0.2091493E+03  0.7818608E-02  0.1142581E+00
         21   -1    0    0  503  502  0.00000000000E+00  0.00000000000E+00  0.11477914127E+03  0.11477914127E+03  0.00000000000E+00 0.  1.
         21   -1    0    0  501  503 -0.00000000000E+00 -0.00000000000E+00 -0.45763682096E+03  0.45763682096E+03  0.00000000000E+00 0. -1.
          6    2    1    2  501    0  0.68169142567E+02 -0.93189933268E+02 -0.29138724410E+03  0.35867808673E+03  0.17439050494E+03 0.  0.
         24    2    3    3    0    0  0.70909349956E+02 -0.12983376571E+03 -0.20614807244E+03  0.26573678494E+03  0.78956117374E+02 0.  0.
         -6    2    1    2    0  502 -0.68169142567E+02  0.93189933268E+02 -0.51470435590E+02  0.21373787550E+03  0.17234638964E+03 0.  0.
        -24    2    5    5    0    0 -0.11143233017E+03  0.59259830897E+02 -0.53345640255E+02  0.15852409424E+03  0.79719755116E+02 0.  0.
          5    1    3    3  501    0 -0.27402073897E+01  0.36643832441E+02 -0.85239171660E+02  0.92941301787E+02  0.47000000000E+01 0. -1.
        -13    1    4    4    0    0  0.74801976184E+02 -0.73781287935E+02 -0.16683296547E+03  0.19716047387E+03  0.00000000000E+00 0.  1.
         14    1    4    4    0    0 -0.38926262276E+01 -0.56052477774E+02 -0.39315106967E+02  0.68576311065E+02  0.00000000000E+00 0. -1.
         -5    1    5    5    0  502  0.43263187602E+02  0.33930102371E+02  0.18752046656E+01  0.55213781259E+02  0.47000000000E+01 0.  1.
         11    1    6    6    0    0 -0.81443239008E+02  0.38586710038E+01 -0.49555716956E+02  0.95413099757E+02  0.00000000000E+00 0. -1.
        -12    1    6    6    0    0 -0.29989091160E+02  0.55401159894E+02 -0.37899232993E+01  0.63110994484E+02  0.00000000000E+00 0.  1.
</event>
<event>
12    1  0.8133506E-002  0.2129725E+03  0.7818608E-02  0.1139588E+00
         21   -1    0    0  501  502  0.00000000000E+00  0.00000000000E+00  0.50534457345E+03  0.50534457345E+03  0.00000000000E+00 0.  1.
         21   -1    0    0  502  503 -0.00000000000E+00 -0.00000000000E+00 -0.90376575987E+02  0.90376575987E+02  0.00000000000E+00 0.  1.
         -6    2    1    2    0  503  0.42750621922E+02  0.11564877157E+03  0.16974798511E+03  0.27092869668E+03  0.17142265369E+03 0.  0.
        -24    2    3    3    0    0  0.47365884938E+02  0.89054429925E+02  0.19517989224E+03  0.23354646079E+03  0.79211996986E+02 0.  0.
          6    2    1    2  501    0 -0.42750621922E+02 -0.11564877157E+03  0.24522001236E+03  0.32479245276E+03  0.17365203387E+03 0.  0.
         24    2    5    5    0    0 -0.57206523605E+02 -0.20655251536E+02  0.18587716846E+03  0.21175969174E+03  0.81194947699E+02 0.  0.
          5    1    5    5  501    0  0.14455901683E+02 -0.94993520030E+02  0.59342843906E+02  0.11303276102E+03  0.47000000000E+01 0. -1.
        -11    1    6    6    0    0 -0.20816951891E+01 -0.84211664928E+01  0.13642389758E+03  0.13669941232E+03  0.00000000000E+00 0.  1.
         12    1    6    6    0    0 -0.55124828416E+02 -0.12234085043E+02  0.49453270881E+02  0.75060279413E+02  0.00000000000E+00 0. -1.
         -5    1    3    3    0  503 -0.46152630164E+01  0.26594341641E+02 -0.25431907135E+02  0.37382235896E+02  0.47000000000E+01 0.  1.
         11    1    4    4    0    0  0.89571855230E+00 -0.75179313427E+01  0.62651955983E+02  0.63107758571E+02  0.00000000000E+00 0. -1.
        -12    1    4    4    0    0  0.46470166386E+02  0.96572361268E+02  0.13252793626E+03  0.17043870222E+03  0.00000000000E+00 0.  1.
</event>
<event>
12    1  0.8133506E-002  0.1957506E+03  0.7818608E-02  0.1153731E+00
         21   -1    0    0  503  502  0.00000000000E+00  0.00000000000E+00  0.62203859039E+02  0.62203859039E+02  0.00000000000E+00 0. -1.
         21   -1    0    0  501  503 -0.00000000000E+00 -0.00000000000E+00 -0.19942866130E+04  0.19942866130E+04  0.00000000000E+00 0. -1.
          6    2    1    2  501    0  0.77324045233E+02  0.22797366566E+02 -0.18236859876E+04  0.18341616268E+04  0.17838039186E+03 0.  0.
         24    2    3    3    0    0  0.74961435565E+02  0.32714693391E+02 -0.18158222728E+04  0.18204553032E+04  0.10078450701E+03 0.  0.
         -6    2    1    2    0  502 -0.77324045233E+02 -0.22797366566E+02 -0.10839676643E+03  0.22232884524E+03  0.17658292262E+03 0.  0.
        -24    2    5    5    0    0 -0.10250608729E+03 -0.50815556855E+02 -0.41938489775E+02  0.14579162054E+03  0.80041495140E+02 0.  0.
          5    1    3    3  501    0  0.23626096676E+01 -0.99173268252E+01 -0.78637148001E+01  0.13706323586E+02  0.47000000000E+01 0. -1.
        -13    1    4    4    0    0  0.42181772780E+00  0.21201429818E+02 -0.11777310622E+04  0.11779219555E+04  0.00000000000E+00 0.  1.
         14    1    4    4    0    0  0.74539617838E+02  0.11513263573E+02 -0.63809121059E+03  0.64253334769E+03  0.00000000000E+00 0. -1.
         -5    1    5    5    0  502  0.25182042060E+02  0.28018190289E+02 -0.66458276650E+02  0.76537224699E+02  0.47000000000E+01 0.  1.
         11    1    6    6    0    0 -0.34966293839E+02 -0.50865823663E+02 -0.47697716295E+02  0.78006703953E+02  0.00000000000E+00 0. -1.
        -12    1    6    6    0    0 -0.67539793454E+02  0.50266808800E-01  0.57592265195E+01  0.67784916586E+02  0.00000000000E+00 0.  1.
</event>
<event>
12    1  0.8133506E-002  0.2073959E+03  0.7818608E-02  0.1143742E+00
         21   -1    0    0  503  502  0.00000000000E+00  0.00000000000E+00  0.25637603644E+03  0.25637603644E+03  0.00000000000E+00 0.  1.
         21   -1    0    0  501  503 -0.00000000000E+00 -0.00000000000E+00 -0.18060319208E+03  0.18060319208E+03  0.00000000000E+00 0. -1.
          6    2    1    2  501    0  0.43842721696E+02 -0.10793907955E+03 -0.21188284711E+02  0.20847540911E+03  0.17158095364E+03 0.  0.
         24    2    3    3    0    0  0.60865773333E+02 -0.13856393271E+03 -0.23268760986E+02  0.17306235643E+03  0.80650717069E+02 0.  0.
         -6    2    1    2    0  502 -0.43842721696E+02  0.10793907955E+03  0.96961129071E+02  0.22850381941E+03  0.17099563092E+03 0.  0.
        -24    2    5    5    0    0  0.27696052902E+02  0.17615623140E+02  0.56771376289E+02  0.10638326718E+03  0.83767707649E+02 0.  0.
          5    1    3    3  501    0 -0.17023051637E+02  0.30624853163E+02  0.20804762749E+01  0.35413052675E+02  0.47000000000E+01 0. -1.
        -13    1    4    4    0    0  0.92495607870E+01 -0.67488329731E+02  0.25327339286E+02  0.72675326899E+02  0.00000000000E+00 0.  1.
         14    1    4    4    0    0  0.51616212546E+02 -0.71075602981E+02 -0.48596100272E+02  0.10038702953E+03  0.00000000000E+00 0. -1.
         -5    1    5    5    0  502 -0.71538774598E+02  0.90323456409E+02  0.40189752781E+02  0.12212055223E+03  0.47000000000E+01 0.  1.
         13    1    6    6    0    0 -0.15630839148E+02 -0.54103507624E+01 -0.13034123220E+02  0.21059045467E+02  0.00000000000E+00 0. -1.
        -14    1    6    6    0    0  0.43326892050E+02  0.23025973902E+02  0.69805499510E+02  0.85324221711E+02  0.00000000000E+00 0.  1.
</event>
<event>
12    1  0.8133506E-002  0.2231302E+03  0.7818608E-02  0.1131662E+00
         21   -1    0    0  503  502  0.00000000000E+00  0.00000000000E+00  0.22215282696E+03  0.22215282696E+03  0.00000000000E+00 0.  1.
         21   -1    0    0  501  503 -0.00000000000E+00 -0.00000000000E+00 -0.28011659451E+03  0.28011659451E+03  0.00000000000E+00 0. -1.
          6    2    1    2  501    0 -0.21658559259E+02  0.14410469591E+03 -0.14174906600E+03  0.26392714501E+03  0.16831364646E+03 0.  0.
         24    2    3    3    0    0  0.25052414159E+02  0.15346957868E+03 -0.10877994573E+03  0.20580082602E+03  0.79626430057E+02 0.  0.
         -6    2    1    2    0  502  0.21658559259E+02 -0.14410469591E+03  0.83785298450E+02  0.23834227647E+03  0.16897280237E+03 0.  0.
        -24    2    5    5    0    0  0.27198696129E+02 -0.17294119275E+03  0.85263639642E+02  0.20856792241E+03  0.74714555423E+02 0.  0.
          5    1    3    3  501    0 -0.46710973419E+02 -0.93648827673E+01 -0.32969120276E+02  0.58126318985E+02  0.47000000000E+01 0. -1.
        -13    1    4    4    0    0  0.63435715183E+00  0.12558398399E+03 -0.47669886901E+02  0.13432854336E+03  0.00000000000E+00 0.  1.
         14    1    4    4    0    0  0.24418057008E+02  0.27885594689E+02 -0.61110058827E+02  0.71472282663E+02  0.00000000000E+00 0. -1.
         -5    1    5    5    0  502 -0.55401368698E+01  0.28836496842E+02 -0.14783411925E+01  0.29774354054E+02  0.47000000000E+01 0.  1.
         11    1    6    6    0    0  0.50161508101E+01 -0.38660098154E+02 -0.12561019851E+02  0.40957834146E+02  0.00000000000E+00 0. -1.
        -12    1    6    6    0    0  0.22182545319E+02 -0.13428109460E+03  0.97824659493E+02  0.16761008827E+03  0.00000000000E+00 0.  1.
</event>
<event>
12    1  0.8133506E-002  0.2255518E+03  0.7818608E-02  0.1129835E+00
         21   -1    0    0  503  502  0.00000000000E+00  0.00000000000E+00  0.12547550707E+04  0.12547550707E+04  0.00000000000E+00 0.  1.
         21   -1    0    0  501  503 -0.00000000000E+00 -0.00000000000E+00 -0.41585103479E+02  0.41585103479E+02  0.00000000000E+00 0. -1.
          6    2    1    2  501    0 -0.14487079179E+03 -0.11326848666E+02  0.71050224357E+03  0.74544421019E+03  0.17250445957E+03 0.  0.
         24    2    3    3    0    0 -0.12034028714E+03 -0.36230732381E+01  0.70406809898E+03  0.71852614877E+03  0.77929629090E+02 0.  0.
         -6    2    1    2    0  502  0.14487079179E+03  0.11326848666E+02  0.50266772365E+03  0.55089596399E+03  0.17232434223E+03 0.  0.
        -24    2    5    5    0    0  0.11112653847E+03  0.60925436327E+02  0.30197624706E+03  0.34137781846E+03  0.96375021682E+02 0.  0.
          5    1    3    3  501    0 -0.24530504652E+02 -0.77037754278E+01  0.64341445944E+01  0.26918061427E+02  0.47000000000E+01 0. -1.
        -11    1    4    4    0    0 -0.61144107112E+02  0.14126329384E+02  0.53215511258E+03  0.53584253177E+03  0.00000000000E+00 0.  1.
         12    1    4    4    0    0 -0.59196180024E+02 -0.17749402622E+02  0.17191298640E+03  0.18268361699E+03  0.00000000000E+00 0. -1.
         -5    1    5    5    0  502  0.33744253314E+02 -0.49598587661E+02  0.20069147659E+03  0.20951814552E+03  0.47000000000E+01 0.  1.
         13    1    6    6    0    0  0.28591717484E+02  0.23503567624E+02  0.20630983620E+03  0.20960356035E+03  0.00000000000E+00 0. -1.
        -14    1    6    6    0    0  0.82534820991E+02  0.37421868703E+02  0.95666410859E+02  0.13177425811E+03  0.00000000000E+00 0.  1.
</event>
<event>
12    1  0.8133506E-002  0.2367673E+03  0.7818608E-02  0.1122213E+00
         21   -1    0    0  503  502  0.00000000000E+00  0.00000000000E+00  0.55132932020E+03  0.55132932020E+03  0.00000000000E+00 0.  1.
         21   -1    0    0  501  503 -0.00000000000E+00 -0.00000000000E+00 -0.10285226140E+03  0.10285226140E+03  0.00000000000E+00 0.  1.
          6    2    1    2  501    0 -0.15429957638E+03  0.44567916351E+02  0.26816509484E+03  0.35773073368E+03  0.17396580495E+03 0.  0.
         24    2    3    3    0    0 -0.14994751236E+03 -0.21179098298E+02  0.20023471196E+03  0.26297717272E+03  0.78295867269E+02 0.  0.
         -6    2    1    2    0  502  0.15429957638E+03 -0.44567916351E+02  0.18031196396E+03  0.29645084791E+03  0.17197686601E+03 0.  0.
        -24    2    5    5    0    0  0.33131899119E+02  0.43299660231E+01  0.12352922345E+03  0.15390619339E+03  0.85505414869E+02 0.  0.
          5    1    3    3  501    0 -0.43520640229E+01  0.65747014649E+02  0.67930382884E+02  0.94753560964E+02  0.47000000000E+01 0. -1.
        -11    1    4    4    0    0 -0.12898540349E+03  0.81038683478E+00  0.11616362031E+03  0.17358536149E+03  0.00000000000E+00 0.  1.
         12    1    4    4    0    0 -0.20962108873E+02 -0.21989485133E+02  0.84071091641E+02  0.89391811228E+02  0.00000000000E+00 0. -1.
         -5    1    5    5    0  502  0.12116767726E+03 -0.48897882374E+02  0.56782740508E+02  0.14254465452E+03  0.47000000000E+01 0.  1.
         13    1    6    6    0    0  0.52855670717E+01  0.12773134766E+02 -0.10116190842E+02  0.17129725864E+02  0.00000000000E+00 0. -1.
        -14    1    6    6    0    0  0.27846332048E+02 -0.84431687430E+01  0.13364541430E+03  0.13677646753E+03  0.00000000000E+00 0.  1.
</event>
<event>
12    1  0.8133506E-002  0.1861721E+03  0.7818608E-02  0.1163722E+00
         21   -1    0    0  503  502  0.00000000000E+00  0.00000000000E+00  0.13194665713E+03  0.13194665713E+03  0.00000000000E+00 0.  1.
         21   -1    0    0  501  503 -0.00000000000E+00 -0.00000000000E+00 -0.25419347486E+03  0.25419347486E+03  0.00000000000E+00 0.  1.
          6    2    1    2  501    0 -0.46428740138E+02  0.30525082522E+01 -0.76632138335E+02  0.19446135540E+03  0.17256241885E+03 0.  0.
         24    2    3    3    0    0 -0.96833361862E+02 -0.98406153347E+01 -0.55572103334E+02  0.13813663967E+03  0.80746113664E+02 0.  0.
         -6    2    1    2    0  502  0.46428740138E+02 -0.30525082522E+01 -0.45614679391E+02  0.19167877660E+03  0.18026399725E+03 0.  0.
        -24    2    5    5    0    0  0.78926736265E+01 -0.69805310887E+02 -0.11168324228E+02  0.10712343102E+03  0.80097579749E+02 0.  0.
          5    1    3    3  501    0  0.50404621724E+02  0.12893123587E+02 -0.21060035002E+02  0.56324715723E+02  0.47000000000E+01 0. -1.
        -13    1    4    4    0    0 -0.34097089958E+02 -0.41017178983E+02 -0.39197398640E+02  0.66192571906E+02  0.00000000000E+00 0.  1.
         14    1    4    4    0    0 -0.62736271904E+02  0.31176563648E+02 -0.16374704694E+02  0.71944067769E+02  0.00000000000E+00 0. -1.
         -5    1    5    5    0  502  0.38536066511E+02  0.66752802635E+02 -0.34446355163E+02  0.84555345578E+02  0.47000000000E+01 0.  1.
         13    1    6    6    0    0 -0.24754199632E+02 -0.15384167890E+02 -0.29090501554E+02  0.41178881745E+02  0.00000000000E+00 0. -1.
        -14    1    6    6    0    0  0.32646873258E+02 -0.54421142997E+02  0.17922177325E+02  0.65944549272E+02  0.00000000000E+00 0.  1.
</event>
<event>
12    1  0.8133506E-002  0.2039528E+03  0.7818608E-02  0.1146914E+00
         21   -1    0    0  503  502  0.00000000000E+00  0.00000000000E+00  0.58266245859E+02  0.58266245859E+02  0.00000000000E+00 0.  1.
         21   -1    0    0  501  503 -0.00000000000E+00 -0.00000000000E+00 -0.13030073356E+04  0.13030073356E+04  0.00000000000E+00 0.  1.
          6    2    1    2  501    0 -0.43389931668E+02  0.10015495621E+03 -0.10811947716E+04  0.10998464707E+04  0.16960667299E+03 0.  0.
         24    2    3    3    0    0  0.20453183923E+02  0.95809022389E+02 -0.86809696007E+03  0.87729850321E+03  0.80390485438E+02 0.  0.
         -6    2    1    2    0  502  0.43389931668E+02 -0.10015495621E+03 -0.16354631810E+03  0.26142711073E+03  0.17228765085E+03 0.  0.
        -24    2    5    5    0    0 -0.11288412592E+02 -0.12046770259E+03 -0.13194810212E+03  0.19492247744E+03  0.77101069572E+02 0.  0.
          5    1    3    3  501    0 -0.63843115591E+02  0.43459338216E+01 -0.21309781154E+03  0.22254796749E+03  0.47000000000E+01 0. -1.
        -13    1    4    4    0    0  0.21990523149E+02  0.10938652486E+03 -0.80803135065E+03  0.81569826441E+03  0.00000000000E+00 0.  1.
         14    1    4    4    0    0 -0.15373392259E+01 -0.13577502470E+02 -0.60065609419E+02  0.61600238799E+02  0.00000000000E+00 0. -1.
         -5    1    5    5    0  502  0.54678344259E+02  0.20312746383E+02 -0.31598215973E+02  0.66504633292E+02  0.47000000000E+01 0.  1.
         13    1    6    6    0    0  0.63229400415E+01 -0.44554278154E+02 -0.10191156999E+03  0.11140480856E+03  0.00000000000E+00 0. -1.
        -14    1    6    6    0    0 -0.17611352633E+02 -0.75913424439E+02 -0.30036532131E+02  0.83517668874E+02  0.00000000000E+00 0.  1.
</event>
<event>
12    1  0.8133506E-002  0.1813629E+03  0.7818608E-02  0.1167323E+00
         21   -1    0    0  501  502  0.00000000000E+00  0.00000000000E+00  0.80305208802E+02  0.80305208802E+02  0.00000000000E+00 0.  1.
         21   -1    0    0  502  503 -0.00000000000E+00 -0.00000000000E+00 -0.79472712892E+03  0.79472712892E+03  0.00000000000E+00 0.  1.
         -6    2    1    2    0  503 -0.40648015883E+02 -0.31246905087E+02 -0.66654544710E+03  0.69077878724E+03  0.17396513897E+03 0.  0.
        -24    2    3    3    0    0 -0.44663271958E+01  0.20692287018E+02 -0.56533022790E+03  0.57130743138E+03  0.79660503095E+02 0.  0.
          6    2    1    2  501    0  0.40648015883E+02  0.31246905087E+02 -0.47876473012E+02  0.18425355048E+03  0.17037776828E+03 0.  0.
         24    2    5    5    0    0  0.60217901862E+01  0.55961657478E+02 -0.83102958382E+02  0.12882080056E+03  0.80751024146E+02 0.  0.
          5    1    5    5  501    0  0.34626225697E+02 -0.24714752391E+02  0.35226485370E+02  0.55432749916E+02  0.47000000000E+01 0. -1.
        -13    1    6    6    0    0 -0.48790075400E+01  0.20146319323E+02  0.13823713736E+02  0.24915335805E+02  0.00000000000E+00 0.  1.
         14    1    6    6    0    0  0.10900797726E+02  0.35815338155E+02 -0.96926672118E+02  0.10390546476E+03  0.00000000000E+00 0. -1.
         -5    1    3    3    0  503 -0.36181688687E+02 -0.51939192105E+02 -0.10121521921E+03  0.11947135586E+03  0.47000000000E+01 0.  1.
         11    1    4    4    0    0  0.26304984120E+02 -0.16355940908E+02 -0.14794688022E+03  0.15115471663E+03  0.00000000000E+00 0. -1.
        -12    1    4    4    0    0 -0.30771311316E+02  0.37048227926E+02 -0.41738334768E+03  0.42015271475E+03  0.00000000000E+00 0.  1.
</event>
<event>
12    1  0.8133506E-002  0.1813903E+03  0.7818608E-02  0.1166531E+00
         21   -1    0    0  501  502  0.00000000000E+00  0.00000000000E+00  0.57125905246E+02  0.57125905246E+02  0.00000000000E+00 0.  1.
         21   -1    0    0  502  503 -0.00000000000E+00 -0.00000000000E+00 -0.62685422144E+03  0.62685422144E+03  0.00000000000E+00 0.  1.
         -6    2    1    2    0  503 -0.86611929054E+01 -0.58162032871E+02 -0.38335539135E+03  0.42410351682E+03  0.17159428480E+03 0.  0.
        -24    2    3    3    0    0  0.11709581354E+02  0.18219525217E+02 -0.29299942731E+03  0.30395610280E+03  0.77920360808E+02 0.  0.
          6    2    1    2  501    0  0.86611929054E+01  0.58162032871E+02 -0.18637292485E+03  0.25987660986E+03  0.17129841479E+03 0.  0.
         24    2    5    5    0    0  0.16546157247E+02  0.65241561069E+02 -0.20960671140E+03  0.23391141740E+03  0.79052774256E+02 0.  0.
          5    1    5    5  501    0 -0.78849643416E+01 -0.70795281987E+01  0.23233786550E+02  0.25965192463E+02  0.47000000000E+01 0. -1.
        -11    1    6    6    0    0  0.27263446199E+02  0.33002433484E+02 -0.32956629519E+02  0.54024027467E+02  0.00000000000E+00 0.  1.
         12    1    6    6    0    0 -0.10717288952E+02  0.32239127586E+02 -0.17665008188E+03  0.17988738993E+03  0.00000000000E+00 0. -1.
         -5    1    3    3    0  503 -0.20370774260E+02 -0.76381558087E+02 -0.90355964038E+02  0.12014741403E+03  0.47000000000E+01 0.  1.
         11    1    4    4    0    0 -0.28008648767E+02  0.18075982886E+02 -0.20105198701E+03  0.20379677879E+03  0.00000000000E+00 0. -1.
        -12    1    4    4    0    0  0.39718230121E+02  0.14354233026E+00 -0.91947440301E+02  0.10015932401E+03  0.00000000000E+00 0.  1.
</event>
<event>
12    1  0.8133506E-002  0.2545116E+03  0.7818608E-02  0.1110513E+00
         21   -1    0    0  503  502  0.00000000000E+00  0.00000000000E+00  0.37704601388E+03  0.37704601388E+03  0.00000000000E+00 0. -1.
         21   -1    0    0  501  503 -0.00000000000E+00 -0.00000000000E+00 -0.23154362644E+03  0.23154362644E+03  0.00000000000E+00 0.  1.
          6    2    1    2  501    0  0.12108782231E+03 -0.14196792189E+03 -0.81950907071E+02  0.26738005402E+03  0.17308665621E+03 0.  0.
         24    2    3    3    0    0  0.92659418543E+02 -0.13181821446E+03 -0.12405086628E+03  0.21536383283E+03  0.70930624950E+02 0.  0.
         -6    2    1    2    0  502 -0.12108782231E+03  0.14196792189E+03  0.22745329450E+03  0.34120958630E+03  0.17283468705E+03 0.  0.
        -24    2    5    5    0    0 -0.72145194057E+02  0.16736317957E+03  0.16986216339E+03  0.26134014061E+03  0.78931309637E+02 0.  0.
          5    1    3    3  501    0  0.28428403763E+02 -0.10149707430E+02  0.42099959209E+02  0.52016221189E+02  0.47000000000E+01 0. -1.
        -11    1    4    4    0    0 -0.10494031521E+02 -0.30590984553E+01 -0.57583715880E+01  0.12354821904E+02  0.00000000000E+00 0.  1.
         12    1    4    4    0    0  0.10315345006E+03 -0.12875911601E+03 -0.11829249469E+03  0.20300901092E+03  0.00000000000E+00 0. -1.
         -5    1    5    5    0  502 -0.48942628249E+02 -0.25395257677E+02  0.57591131111E+02  0.79869445691E+02  0.47000000000E+01 0.  1.
         11    1    6    6    0    0 -0.31125322169E+02  0.64647365169E+01  0.19248384244E+02  0.37162868489E+02  0.00000000000E+00 0. -1.
        -12    1    6    6    0    0 -0.41019871888E+02  0.16089844305E+03  0.15061377915E+03  0.22417727212E+03  0.00000000000E+00 0.  1.
</event>
<event>
12    1  0.8133506E-002  0.1791765E+03  0.7818608E-02  0.1169086E+00
         21   -1    0    0  503  502  0.00000000000E+00  0.00000000000E+00  0.92770238298E+03  0.92770238298E+03  0.00000000000E+00 0. -1.
         21   -1    0    0  501  503 -0.00000000000E+00 -0.00000000000E+00 -0.41436433601E+02  0.41436433601E+02  0.00000000000E+00 0. -1.
          6    2    1    2  501    0  0.38317141935E+02  0.20400775995E+02  0.24302415837E+03  0.30193533053E+03  0.17383845157E+03 0.  0.
         24    2    3    3    0    0  0.43492369143E+02  0.69159254694E+02  0.21804957466E+03  0.24670859739E+03  0.81516417564E+02 0.  0.
         -6    2    1    2    0  502 -0.38317141935E+02 -0.20400775995E+02  0.64324179102E+03  0.66720348606E+03  0.17180248854E+03 0.  0.
        -24    2    5    5    0    0 -0.80525985306E+02  0.16021869002E+02  0.51056262277E+03  0.52321026672E+03  0.79584275083E+02 0.  0.
          5    1    3    3  501    0 -0.51752272076E+01 -0.48758478699E+02  0.24974583703E+02  0.55226733136E+02  0.47000000000E+01 0. -1.
        -11    1    4    4    0    0 -0.27561646736E+01  0.50912510518E+01  0.12286060457E+03  0.12299693263E+03  0.00000000000E+00 0.  1.
         12    1    4    4    0    0  0.46248533816E+02  0.64068003642E+02  0.95188970095E+02  0.12371166476E+03  0.00000000000E+00 0. -1.
         -5    1    5    5    0  502  0.42208843371E+02 -0.36422644997E+02  0.13267916825E+03  0.14399321933E+03  0.47000000000E+01 0.  1.
         13    1    6    6    0    0 -0.53303484036E+02  0.45587398988E+02  0.38612631336E+03  0.39244490343E+03  0.00000000000E+00 0. -1.
        -14    1    6    6    0    0 -0.27222501270E+02 -0.29565529986E+02  0.12443630941E+03  0.13076536329E+03  0.00000000000E+00 0.  1.
</event>
<event>
12    1  0.8133506E-002  0.1936030E+03  0.7818608E-02  0.1155647E+00
         21   -1    0    0  503  502  0.00000000000E+00  0.00000000000E+00  0.27554205018E+02  0.27554205018E+02  0.00000000000E+00 0.  1.
         21   -1    0    0  501  503 -0.00000000000E+00 -0.00000000000E+00 -0.14054538155E+04  0.14054538155E+04  0.00000000000E+00 0.  1.
          6    2    1    2  501    0 -0.46835372155E+02 -0.67714159812E+02 -0.54071939362E+03  0.57373342445E+03  0.17324497156E+03 0.  0.
         24    2    3    3    0    0 -0.98774914429E+02 -0.53623838435E+02 -0.36198620631E+03  0.38701466413E+03  0.78194225668E+02 0.  0.
         -6    2    1    2    0  502  0.46835372155E+02  0.67714159812E+02 -0.83718021687E+03  0.85927459607E+03  0.17522373246E+03 0.  0.
        -24    2    5    5    0    0  0.30058903002E+02  0.27826283603E+02 -0.18012574419E+03  0.20077997753E+03  0.78673222559E+02 0.  0.
          5    1    3    3  501    0  0.51939542274E+02 -0.14090321378E+02 -0.17873318731E+03  0.18671876032E+03  0.47000000000E+01 0. -1.
        -11    1    4    4    0    0 -0.67115461053E+02 -0.21042305283E+02 -0.31042893299E+03  0.31829763770E+03  0.00000000000E+00 0.  1.
         12    1    4    4    0    0 -0.31659453376E+02 -0.32581533152E+02 -0.51557273315E+02  0.68717026436E+02  0.00000000000E+00 0. -1.
         -5    1    5    5    0  502  0.16776469153E+02  0.39887876209E+02 -0.65705447267E+03  0.65849461854E+03  0.47000000000E+01 0.  1.
         11    1    6    6    0    0  0.91842319945E+01 -0.24175974374E+02 -0.25522121416E+02  0.36334646494E+02  0.00000000000E+00 0. -1.
        -12    1    6    6    0    0  0.20874671007E+02  0.52002257977E+02 -0.15460362278E+03  0.16444533104E+03  0.00000000000E+00 0.  1.
</event>
<event>
12    1  0.8133506E-002  0.1852735E+03  0.7818608E-02  0.1162867E+00
         21   -1    0    0  501  502  0.00000000000E+00  0.00000000000E+00  0.63603802329E+02  0.63603802329E+02  0.00000000000E+00 0. -1.
         21   -1    0    0  502  503 -0.00000000000E+00 -0.00000000000E+00 -0.77400092523E+03  0.77400092523E+03  0.00000000000E+00 0. -1.
         -6    2    1    2    0  503  0.47619207155E+01  0.68632866283E+02 -0.58627988633E+03  0.61485800904E+03  0.17202650942E+03 0.  0.
        -24    2    3    3    0    0  0.65938894900E+02  0.69083093461E+02 -0.37001169069E+03  0.39005398924E+03  0.78186006471E+02 0.  0.
          6    2    1    2  501    0 -0.47619207155E+01 -0.68632866283E+02 -0.12411723657E+03  0.22274671852E+03  0.17169119364E+03 0.  0.
         24    2    5    5    0    0  0.36097973474E+02 -0.41282256093E+02 -0.89474433889E+01  0.97432082134E+02  0.80035401722E+02 0.  0.
          5    1    5    5  501    0 -0.40859894189E+02 -0.27350610191E+02 -0.11516979318E+03  0.12531463639E+03  0.47000000000E+01 0. -1.
        -11    1    6    6    0    0  0.30526138627E+02  0.18479624005E+02 -0.11105918034E+02  0.37372223084E+02  0.00000000000E+00 0.  1.
         12    1    6    6    0    0  0.55718348464E+01 -0.59761880098E+02  0.21584746455E+01  0.60059859050E+02  0.00000000000E+00 0. -1.
         -5    1    3    3    0  503 -0.61176974185E+02 -0.45022717740E+00 -0.21626819563E+03  0.22480401980E+03  0.47000000000E+01 0.  1.
         13    1    4    4    0    0  0.41510468310E+02  0.38687343748E+02 -0.83837459172E+02  0.10123511795E+03  0.00000000000E+00 0. -1.
        -14    1    4    4    0    0  0.24428426591E+02  0.30395749713E+02 -0.28617423152E+03  0.28881887129E+03  0.00000000000E+00 0.  1.
</event>
<event>
12    1  0.8133506E-002  0.1979192E+03  0.7818608E-02  0.1151531E+00
         21   -1    0    0  501  502  0.00000000000E+00  0.00000000000E+00  0.20817675375E+03  0.20817675375E+03  0.00000000000E+00 0. -1.
         21   -1    0    0  502  503 -0.00000000000E+00 -0.00000000000E+00 -0.19863904283E+03  0.19863904283E+03  0.00000000000E+00 0. -1.
         -6    2    1    2    0  503 -0.54978212434E+02  0.80590385601E+02 -0.42178283026E+02  0.20236358756E+03  0.17220511002E+03 0.  0.
        -24    2    3    3    0    0  0.76626662196E+01 -0.12719315398E+02 -0.32570303146E+02  0.89469906348E+02  0.81997207618E+02 0.  0.
          6    2    1    2  501    0  0.54978212434E+02 -0.80590385601E+02  0.51715993944E+02  0.20445220903E+03  0.17207192581E+03 0.  0.
         24    2    5    5    0    0  0.45952601556E+02 -0.12410239925E+02 -0.29499241114E+02  0.97925225023E+02  0.80333609558E+02 0.  0.
          5    1    5    5  501    0  0.90256108780E+01 -0.68180145675E+02  0.81215235057E+02  0.10652698401E+03  0.47000000000E+01 0. -1.
        -13    1    6    6    0    0  0.47002274006E+02 -0.42381247889E+02 -0.22108383346E+02  0.67038530328E+02  0.00000000000E+00 0.  1.
         14    1    6    6    0    0 -0.10496724500E+01  0.29971007963E+02 -0.73908577677E+01  0.30886694694E+02  0.00000000000E+00 0. -1.
         -5    1    3    3    0  503 -0.62640878654E+02  0.93309700999E+02 -0.96079798802E+01  0.11289368121E+03  0.47000000000E+01 0.  1.
         13    1    4    4    0    0  0.26348791912E+02  0.24907993045E+02  0.86618630723E-01  0.36258439783E+02  0.00000000000E+00 0. -1.
        -14    1    4    4    0    0 -0.18686125692E+02 -0.37627308443E+02 -0.32656921776E+02  0.53211466565E+02  0.00000000000E+00 0.  1.
</event>
<event>
12    1  0.8133506E-002  0.1736706E+03  0.7818608E-02  0.1174106E+00
         21   -1    0    0  501  502  0.00000000000E+00  0.00000000000E+00  0.52167004575E+02  0.52167004575E+02  0.00000000000E+00 0.  1.
         21   -1    0    0  502  503 -0.00000000000E+00 -0.00000000000E+00 -0.57774913860E+03  0.57774913860E+03  0.00000000000E+00 0.  1.
         -6    2    1    2    0  503 -0.23722222730E+02 -0.12954109732E+02 -0.26166969248E+03  0.31398695053E+03  0.17142410662E+03 0.  0.
        -24    2    3    3    0    0 -0.38272044580E+02 -0.62215804483E+02 -0.10917922678E+03  0.15300917562E+03  0.78461127575E+02 0.  0.
          6    2    1    2  501    0  0.23722222730E+02  0.12954109732E+02 -0.26391244155E+03  0.31592919265E+03  0.17155443787E+03 0.  0.
         24    2    5    5    0    0 -0.26538289774E+02  0.50995778893E+02 -0.21343143867E+03  0.23503599540E+03  0.79900499570E+02 0.  0.
          5    1    5    5  501    0  0.50260512503E+02 -0.38041669161E+02 -0.50481002881E+02  0.80893197251E+02  0.47000000000E+01 0. -1.
        -11    1    6    6    0    0  0.19272099688E+02 -0.70172234761E+01 -0.79031056423E+02  0.81649024067E+02  0.00000000000E+00 0.  1.
         12    1    6    6    0    0 -0.45810389461E+02  0.58013002369E+02 -0.13440038225E+03  0.15338697133E+03  0.00000000000E+00 0. -1.
         -5    1    3    3    0  503  0.14549821850E+02  0.49261694751E+02 -0.15249046569E+03  0.16097777490E+03  0.47000000000E+01 0.  1.
         11    1    4    4    0    0  0.94516972926E+01 -0.49166567025E+02 -0.26474944019E+02  0.56635753333E+02  0.00000000000E+00 0. -1.
        -12    1    4    4    0    0 -0.47723741872E+02 -0.13049237458E+02 -0.82704282765E+02  0.96373422291E+02  0.00000000000E+00 0.  1.
</event>
<event>
12    1  0.8133506E-002  0.1743469E+03  0.7818608E-02  0.1173665E+00
         21   -1    0    0  503  502  0.00000000000E+00  0.00000000000E+00  0.88384915301E+03  0.88384915301E+03  0.00000000000E+00 0. -1.
         21   -1    0    0  501  503 -0.00000000000E+00 -0.00000000000E+00 -0.50602149067E+02  0.50602149067E+02  0.00000000000E+00 0. -1.
          6    2    1    2  501    0 -0.26681894952E+02  0.23010117263E+01  0.15131066706E+03  0.23085009603E+03  0.17227777191E+03 0.  0.
         24    2    3    3    0    0 -0.57103328023E+02  0.32514608749E+02  0.15713870446E+03  0.18732560803E+03  0.77976413946E+02 0.  0.
         -6    2    1    2    0  502  0.26681894952E+02 -0.23010117263E+01  0.68193633688E+03  0.70360120605E+03  0.17117322052E+03 0.  0.
        -24    2    5    5    0    0 -0.26887210382E+01 -0.43982879358E+01  0.66437063395E+03  0.66899375641E+03  0.78343683249E+02 0.  0.
          5    1    3    3  501    0  0.30421433072E+02 -0.30213597023E+02 -0.58280373987E+01  0.43524487994E+02  0.47000000000E+01 0. -1.
        -11    1    4    4    0    0 -0.55086496682E+02  0.13904668912E+00  0.14040648099E+03  0.15082612955E+03  0.00000000000E+00 0.  1.
         12    1    4    4    0    0 -0.20168313407E+01  0.32375562060E+02  0.16732223472E+02  0.36499478485E+02  0.00000000000E+00 0. -1.
         -5    1    5    5    0  502  0.29370615990E+02  0.20972762095E+01  0.17565702934E+02  0.34607449641E+02  0.47000000000E+01 0.  1.
         13    1    6    6    0    0 -0.14694365950E+02  0.30972605222E+02  0.45714278056E+03  0.45842638284E+03  0.00000000000E+00 0. -1.
        -14    1    6    6    0    0  0.12005644912E+02 -0.35370893158E+02  0.20722785339E+03  0.21056737357E+03  0.00000000000E+00 0.  1.
</event>
<event>
12    1  0.8133506E-002  0.2226654E+03  0.7818608E-02  0.1132154E+00
         21   -1    0    0  503  502  0.00000000000E+00  0.00000000000E+00  0.28690475193E+03  0.28690475193E+03  0.00000000000E+00 0. -1.
         21   -1    0    0  501  503 -0.00000000000E+00 -0.00000000000E+00 -0.22877225361E+03  0.22877225361E+03  0.00000000000E+00 0.  1.
          6    2    1    2  501    0 -0.10125727003E+03 -0.96373621929E+02 -0.99552686835E+02  0.24390700241E+03  0.17331756584E+03 0.  0.
         24    2    3    3    0    0 -0.71986732712E+02 -0.70344628740E+02 -0.13631263628E+03  0.18998431029E+03  0.85921166596E+02 0.  0.
         -6    2    1    2    0  502  0.10125727003E+03  0.96373621929E+02  0.15768518516E+03  0.27177000313E+03  0.17161995001E+03 0.  0.
        -24    2    5    5    0    0  0.34958385025E+02  0.45014309441E+02  0.16096519695E+03  0.18770949153E+03  0.77953074619E+02 0.  0.
          5    1    3    3  501    0 -0.29270537323E+02 -0.26028993189E+02  0.36759949446E+02  0.53922692114E+02  0.47000000000E+01 0. -1.
        -13    1    4    4    0    0 -0.20831250573E+02  0.19621210218E+02 -0.25077587363E+02  0.38050207342E+02  0.00000000000E+00 0.  1.
         14    1    4    4    0    0 -0.51155482139E+02 -0.89965838957E+02 -0.11123504892E+03  0.15193410295E+03  0.00000000000E+00 0. -1.
         -5    1    5    5    0  502  0.66298885009E+02  0.51359312488E+02 -0.32800117930E+01  0.84060511598E+02  0.47000000000E+01 0.  1.
         13    1    6    6    0    0  0.47520199010E+02  0.73925322650E+01  0.47847560498E+02  0.67839574680E+02  0.00000000000E+00 0. -1.
        -14    1    6    6    0    0 -0.12561813985E+02  0.37621777176E+02  0.11311763645E+03  0.11986991685E+03  0.00000000000E+00 0.  1.
</event>
<event>
12    1  0.8133506E-002  0.2017796E+03  0.7818608E-02  0.1148426E+00
         21   -1    0    0  503  502  0.00000000000E+00  0.00000000000E+00  0.14458599595E+03  0.14458599595E+03  0.00000000000E+00 0. -1.
         21   -1    0    0  501  503 -0.00000000000E+00 -0.00000000000E+00 -0.30471182416E+03  0.30471182416E+03  0.00000000000E+00 0. -1.
          6    2    1    2  501    0  0.10107143048E+03  0.13311134062E+02 -0.14367831413E+03  0.24770638504E+03  0.17413321019E+03 0.  0.
         24    2    3    3    0    0 -0.25044347569E+01  0.83504792486E+01 -0.11591888033E+03  0.14025758738E+03  0.78479304929E+02 0.  0.
         -6    2    1    2    0  502 -0.10107143048E+03 -0.13311134062E+02 -0.16447514087E+02  0.20159143506E+03  0.17313568558E+03 0.  0.
        -24    2    5    5    0    0 -0.11511793344E+03 -0.42689003452E+02  0.25185396265E+02  0.14852776878E+03  0.79697580247E+02 0.  0.
          5    1    3    3  501    0  0.10357586523E+03  0.49606548134E+01 -0.27759433794E+02  0.10744879767E+03  0.47000000000E+01 0. -1.
        -11    1    4    4    0    0 -0.13300032863E+02  0.39419889063E+02 -0.40880027285E+02  0.58326624784E+02  0.00000000000E+00 0.  1.
         12    1    4    4    0    0  0.10795598106E+02 -0.31069409814E+02 -0.75038853050E+02  0.81930962595E+02  0.00000000000E+00 0. -1.
         -5    1    5    5    0  502  0.14046502964E+02  0.29377869390E+02 -0.41632910352E+02  0.53063666287E+02  0.47000000000E+01 0.  1.
         11    1    6    6    0    0 -0.97405635532E+00  0.15102058588E+02  0.13104484548E+02  0.20018703121E+02  0.00000000000E+00 0. -1.
        -12    1    6    6    0    0 -0.11414387709E+03 -0.57791062040E+02  0.12080911717E+02  0.12850906566E+03  0.00000000000E+00 0.  1.
</event>
<event>
12    1  0.8133506E-002  0.2268510E+03  0.7818608E-02  0.1129082E+00
         21   -1    0    0  501  502  0.00000000000E+00  0.00000000000E+00  0.11465027621E+03  0.11465027621E+03  0.00000000000E+00 0.  1.
         21   -1    0    0  502  503 -0.00000000000E+00 -0.00000000000E+00 -0.73281914425E+03  0.73281914425E+03  0.00000000000E+00 0.  1.
         -6    2    1    2    0  503  0.60589755242E+02 -0.13474884010E+03 -0.57342827797E+03  0.61624849363E+03  0.17062780423E+03 0.  0.
        -24    2    3    3    0    0 -0.30584465291E+02 -0.78543421625E+02 -0.28265959939E+03  0.30634479569E+03  0.82741803938E+02 0.  0.
          6    2    1    2  501    0 -0.60589755242E+02  0.13474884010E+03 -0.44740590065E+02  0.23122092682E+03  0.17214246499E+03 0.  0.
         24    2    5    5    0    0 -0.46048705751E+02  0.27062095101E+02 -0.68370608207E+02  0.11991798470E+03  0.82782502349E+02 0.  0.
          5    1    5    5  501    0 -0.14541049491E+02  0.10768674499E+03  0.23630018143E+02  0.11130294212E+03  0.47000000000E+01 0. -1.
        -13    1    6    6    0    0  0.51788682157E+01  0.33757435206E+02  0.88338019193E-01  0.34152494949E+02  0.00000000000E+00 0.  1.
         14    1    6    6    0    0 -0.51227573967E+02 -0.66953401045E+01 -0.68458946227E+02  0.85765489750E+02  0.00000000000E+00 0. -1.
         -5    1    3    3    0  503  0.91174220533E+02 -0.56205418470E+02 -0.29076867858E+03  0.30990369794E+03  0.47000000000E+01 0.  1.
         13    1    4    4    0    0  0.21837136071E+02  0.15404722822E+01 -0.42316016369E+02  0.47643245145E+02  0.00000000000E+00 0. -1.
        -14    1    4    4    0    0 -0.52421601362E+02 -0.80083893908E+02 -0.24034358302E+03  0.25870155054E+03  0.00000000000E+00 0.  1.
</event>
<event>
12    1  0.8133506E-002  0.2195835E+03  0.7818608E-02  0.1137706E+00
         21   -1    0    0  501  502  0.00000000000E+00  0.00000000000E+00  0.36069166591E+03  0.36069166591E+03  0.00000000000E+00 0.  1.
         21   -1    0    0  502  503 -0.00000000000E+00 -0.00000000000E+00 -0.12325992931E+03  0.12325992931E+03  0.00000000000E+00 0.  1.
         -6    2    1    2    0  503  0.43583207257E+01  0.10683703249E+03  0.10188534395E+03  0.22590170305E+03  0.17093217853E+03 0.  0.
        -24    2    3    3    0    0  0.41585984315E+02  0.29652123778E+02  0.46675720655E+01  0.96222120079E+02  0.81414173383E+02 0.  0.
          6    2    1    2  501    0 -0.43583207257E+01 -0.10683703249E+03  0.13554639264E+03  0.25804989217E+03  0.19179096908E+03 0.  0.
         24    2    5    5    0    0 -0.27145494955E+02 -0.60256054060E+02  0.16549962283E+03  0.19798052511E+03  0.86246699742E+02 0.  0.
          5    1    5    5  501    0  0.22787174230E+02 -0.46580978430E+02 -0.29953230190E+02  0.60069367066E+02  0.47000000000E+01 0. -1.
        -13    1    6    6    0    0  0.37089105493E+01 -0.17203609168E+02  0.13643065736E+03  0.13756105719E+03  0.00000000000E+00 0.  1.
         14    1    6    6    0    0 -0.30854405505E+02 -0.43052444892E+02  0.29068965470E+02  0.60419467920E+02  0.00000000000E+00 0. -1.
         -5    1    3    3    0  503 -0.37227663590E+02  0.77184908712E+02  0.97217771883E+02  0.12967958297E+03  0.47000000000E+01 0.  1.
         13    1    4    4    0    0  0.11869516655E+02 -0.24980066204E+02 -0.14390244087E+02  0.31176405471E+02  0.00000000000E+00 0. -1.
        -14    1    4    4    0    0  0.29716467660E+02  0.54632189982E+02  0.19057816152E+02  0.65045714609E+02  0.00000000000E+00 0.  1.
</event>
<event>
12    1  0.8133506E-002  0.1826339E+03  0.7818608E-02  0.1166271E+00
         21   -1    0    0  501  502  0.00000000000E+00  0.00000000000E+00  0.23177485903E+03  0.23177485903E+03  0.00000000000E+00 0. -1.
         21   -1    0    0  502  503 -0.00000000000E+00 -0.00000000000E+00 -0.22729901967E+03  0.22729901967E+03  0.00000000000E+00 0. -1.
         -6    2    1    2    0  503 -0.18177136879E+02  0.58557176938E+02 -0.13944184026E+03  0.22978068795E+03  0.17203425956E+03 0.  0.
        -24    2    3    3    0    0  0.28123682251E+02  0.90581497724E+02 -0.10559117378E+03  0.16392265430E+03  0.82007264194E+02 0.  0.
          6    2    1    2  501    0  0.18177136879E+02 -0.58557176938E+02  0.14391767961E+03  0.22929319075E+03  0.16764163428E+03 0.  0.
         24    2    5    5    0    0  0.44126949169E+01  0.14472105258E+02  0.17397083466E+02  0.82486218267E+02  0.79198509985E+02 0.  0.
          5    1    5    5  501    0  0.13764441962E+02 -0.73029282196E+02  0.12652059615E+03  0.14680697249E+03  0.47000000000E+01 0. -1.
        -13    1    6    6    0    0  0.33749593794E+02 -0.16735552870E+02  0.58269462673E+01  0.38119117434E+02  0.00000000000E+00 0.  1.
         14    1    6    6    0    0 -0.29336898877E+02  0.31207658128E+02  0.11570137198E+02  0.44367100833E+02  0.00000000000E+00 0. -1.
         -5    1    3    3    0  503 -0.46300819130E+02 -0.32024320786E+02 -0.33850666487E+02  0.65858033645E+02  0.47000000000E+01 0.  1.
         13    1    4    4    0    0 -0.27471314026E+02  0.20196677442E+02 -0.18004937445E+02  0.38558483455E+02  0.00000000000E+00 0. -1.
        -14    1    4    4    0    0  0.55594996277E+02  0.70384820282E+02 -0.87586236332E+02  0.12536417085E+03  0.00000000000E+00 0.  1.
</event>
<event>
12    1  0.8133506E-002  0.2548849E+03  0.7818608E-02  0.1110527E+00
         21   -1    0    0  501  502  0.00000000000E+00  0.00000000000E+00  0.22467646372E+03  0.22467646372E+03  0.00000000000E+00 0.  1.
         21   -1    0    0  502  503 -0.00000000000E+00 -0.00000000000E+00 -0.30693256679E+03  0.30693256679E+03  0.00000000000E+00 0.  1.
         -6    2    1    2    0  503 -0.73799993738E+02  0.16970479932E+03 -0.10843482301E+03  0.27538326157E+03  0.17271847593E+03 0.  0.
        -24    2    3    3    0    0 -0.34883727839E+02  0.17203387275E+03 -0.29369242384E+02  0.18710327305E+03  0.57728282010E+02 0.  0.
          6    2    1    2  501    0  0.73799993738E+02 -0.16970479932E+03  0.26178719941E+02  0.25622576893E+03  0.17527167855E+03 0.  0.
         24    2    5    5    0    0  0.10463502525E+03 -0.89330934474E+02 -0.17772777669E+02  0.15945500134E+03  0.78622652364E+02 0.  0.
          5    1    5    5  501    0 -0.30835031511E+02 -0.80373864841E+02  0.43951497610E+02  0.96770767590E+02  0.47000000000E+01 0. -1.
        -13    1    6    6    0    0  0.92060223929E+01 -0.56605825218E+02 -0.23407188816E+01  0.57397293158E+02  0.00000000000E+00 0.  1.
         14    1    6    6    0    0  0.95429002856E+02 -0.32725109256E+02 -0.15432058787E+02  0.10205770819E+03  0.00000000000E+00 0. -1.
         -5    1    3    3    0  503 -0.38916265899E+02 -0.23290734397E+01 -0.79065580625E+02  0.88279988526E+02  0.47000000000E+01 0.  1.
         11    1    4    4    0    0  0.21837407723E+00  0.12552009893E+03 -0.29012655735E+02  0.12882964378E+03  0.00000000000E+00 0. -1.
        -12    1    4    4    0    0 -0.35102101916E+02  0.46513773822E+02 -0.35658664988E+00  0.58273629268E+02  0.00000000000E+00 0.  1.
</event>
<event>
12    1  0.8133506E-002  0.2246959E+03  0.7818608E-02  0.1130460E+00
         21   -1    0    0  501  502  0.00000000000E+00  0.00000000000E+00  0.11518392404E+03  0.11518392404E+03  0.00000000000E+00 0.  1.
         21   -1    0    0  502  503 -0.00000000000E+00 -0.00000000000E+00 -0.70084661468E+03  0.70084661468E+03  0.00000000000E+00 0.  1.
         -6    2    1    2    0  503  0.69063228006E+02 -0.12739157428E+03 -0.54263496127E+03  0.58725196900E+03  0.17150460998E+03 0.  0.
        -24    2    3    3    0    0  0.86811533855E+02 -0.14734874817E+03 -0.40422012692E+03  0.44620570880E+03  0.80359987301E+02 0.  0.
          6    2    1    2  501    0 -0.69063228006E+02  0.12739157428E+03 -0.43027729368E+02  0.22877856972E+03  0.17172625254E+03 0.  0.
         24    2    5    5    0    0 -0.52524876463E+02  0.14921775824E+03 -0.16828782528E-01  0.17757381460E+03  0.80670052226E+02 0.  0.
          5    1    5    5  501    0 -0.16538351544E+02 -0.21826183962E+02 -0.43010900586E+02  0.51204755124E+02  0.47000000000E+01 0. -1.
        -13    1    6    6    0    0 -0.11234775245E+02  0.36162216496E+02 -0.35693464436E+02  0.52037961914E+02  0.00000000000E+00 0.  1.
         14    1    6    6    0    0 -0.41290101218E+02  0.11305554175E+03  0.35676635653E+02  0.12553585269E+03  0.00000000000E+00 0. -1.
         -5    1    3    3    0  503 -0.17748305849E+02  0.19957173888E+02 -0.13841483435E+03  0.14104626020E+03  0.47000000000E+01 0.  1.
         11    1    4    4    0    0  0.10302490026E+01  0.59673581224E+01 -0.69456728318E+00  0.60953424579E+01  0.00000000000E+00 0. -1.
        -12    1    4    4    0    0  0.85781284852E+02 -0.15331610629E+03 -0.40352555964E+03  0.44011036634E+03  0.00000000000E+00 0.  1.
</event>
<event>
12    1  0.8133506E-002  0.1880961E+03  0.7818608E-02  0.1160525E+00
         21   -1    0    0  503  502  0.00000000000E+00  0.00000000000E+00  0.79064739153E+02  0.79064739153E+02  0.00000000000E+00 0.  1.
         21   -1    0    0  501  503 -0.00000000000E+00 -0.00000000000E+00 -0.48660449736E+03  0.48660449736E+03  0.00000000000E+00 0.  1.
          6    2    1    2  501    0  0.80508496424E+01 -0.74556779458E+02 -0.28672110167E+03  0.34211319557E+03  0.17090616985E+03 0.  0.
         24    2    3    3    0    0  0.14900717884E+02 -0.10229449285E+03 -0.13295702995E+03  0.18564664582E+03  0.78108326250E+02 0.  0.
         -6    2    1    2    0  502 -0.80508496424E+01  0.74556779458E+02 -0.12081865653E+03  0.22355604094E+03  0.17250109024E+03 0.  0.
        -24    2    5    5    0    0  0.12614302966E+02 -0.25488738192E+02 -0.78450476206E+02  0.11286138507E+03  0.75989595403E+02 0.  0.
          5    1    3    3  501    0 -0.68498682414E+01  0.27737713388E+02 -0.15376407172E+03  0.15646654975E+03  0.47000000000E+01 0. -1.
        -11    1    4    4    0    0 -0.26350616531E+02 -0.27980634594E+02 -0.17381909210E+02  0.42182954753E+02  0.00000000000E+00 0.  1.
         12    1    4    4    0    0  0.41251334415E+02 -0.74313858252E+02 -0.11557512074E+03  0.14346369107E+03  0.00000000000E+00 0. -1.
         -5    1    5    5    0  502 -0.20665152609E+02  0.10004551765E+03 -0.42368180328E+02  0.11069465587E+03  0.47000000000E+01 0.  1.
         13    1    6    6    0    0  0.20922748092E+02  0.23229222010E+02 -0.36298844046E+02  0.47905784849E+02  0.00000000000E+00 0. -1.
        -14    1    6    6    0    0 -0.83084451251E+01 -0.48717960202E+02 -0.42151632159E+02  0.64955600223E+02  0.00000000000E+00 0.  1.
</event>
<event>
12    1  0.8133506E-002  0.1891706E+03  0.7818608E-02  0.1162741E+00
         21   -1    0    0  501  502  0.00000000000E+00  0.00000000000E+00  0.48602382524E+03  0.48602382524E+03  0.00000000000E+00 0.  1.
         21   -1    0    0  502  503 -0.00000000000E+00 -0.00000000000E+00 -0.18709850090E+03  0.18709850090E+03  0.00000000000E+00 0.  1.
         -6    2    1    2    0  503 -0.77810778229E+02 -0.61967960647E+01 -0.11681610199E+03  0.22233201442E+03  0.17231542434E+03 0.  0.
        -24    2    3    3    0    0 -0.82707038311E+02  0.53886045768E+02 -0.81760094161E+02  0.15243970490E+03  0.82516607534E+02 0.  0.
          6    2    1    2  501    0  0.77810778229E+02  0.61967960647E+01  0.41574142632E+03  0.45079031171E+03  0.15581416522E+03 0.  0.
         24    2    5    5    0    0  0.45747575098E+02  0.96427662262E+00  0.10970449941E+03  0.14299798093E+03  0.79495753992E+02 0.  0.
          5    1    5    5  501    0  0.32063203130E+02  0.52325194421E+01  0.30603692691E+03  0.30779233078E+03  0.47000000000E+01 0. -1.
        -13    1    6    6    0    0  0.20580348581E+02  0.39529379618E+02  0.65052208768E+02  0.78853740978E+02  0.00000000000E+00 0.  1.
         14    1    6    6    0    0  0.25167226518E+02 -0.38565102995E+02  0.44652290645E+02  0.64144239955E+02  0.00000000000E+00 0. -1.
         -5    1    3    3    0  503  0.48962600825E+01 -0.60082841832E+02 -0.35056007824E+02  0.69892309520E+02  0.47000000000E+01 0.  1.
         13    1    4    4    0    0 -0.77217677973E+01  0.34911328289E+02 -0.63640667802E+02  0.72996994041E+02  0.00000000000E+00 0. -1.
        -14    1    4    4    0    0 -0.74985270514E+02  0.18974717479E+02 -0.18119426359E+02  0.79442710862E+02  0.00000000000E+00 0.  1.
</event>
<event>
12    1  0.8133506E-002  0.1837661E+03  0.7818608E-02  0.1164931E+00
         21   -1    0    0  503  502  0.00000000000E+00  0.00000000000E+00  0.12595276031E+03  0.12595276031E+03  0.00000000000E+00 0. -1.
         21   -1    0    0  501  503 -0.00000000000E+00 -0.00000000000E+00 -0.26409964830E+03  0.26409964830E+03  0.00000000000E+00 0. -1.
          6    2    1    2  501    0 -0.51025692726E+02  0.12535526547E+02 -0.76190991418E+02  0.19612329188E+03  0.17291187843E+03 0.  0.
         24    2    3    3    0    0 -0.11948400147E+02  0.63889696772E+02 -0.80456211323E+02  0.13128065394E+03  0.80850173399E+02 0.  0.
         -6    2    1    2    0  502  0.51025692726E+02 -0.12535526547E+02 -0.61955896568E+02  0.19392911672E+03  0.17609431692E+03 0.  0.
        -24    2    5    5    0    0  0.77600897314E+02  0.17999564469E+02  0.76443522308E+01  0.11327604539E+03  0.80169462727E+02 0.  0.
          5    1    3    3  501    0 -0.39077292578E+02 -0.51354170225E+02  0.42652199049E+01  0.64842637944E+02  0.47000000000E+01 0. -1.
        -11    1    4    4    0    0  0.31082230472E+02  0.17529617164E+02 -0.11006046148E+02  0.37343347210E+02  0.00000000000E+00 0.  1.
         12    1    4    4    0    0 -0.43030630620E+02  0.46360079608E+02 -0.69450165175E+02  0.93937306729E+02  0.00000000000E+00 0. -1.
         -5    1    5    5    0  502 -0.26575204588E+02 -0.30535091016E+02 -0.69600248799E+02  0.80653071331E+02  0.47000000000E+01 0.  1.
         11    1    6    6    0    0  0.27676966319E+01 -0.15295929710E+01  0.32028024524E+02  0.32183756061E+02  0.00000000000E+00 0. -1.
        -12    1    6    6    0    0  0.74833200682E+02  0.19529157440E+02 -0.24383672293E+02  0.81092289332E+02  0.00000000000E+00 0.  1.
</event>
<event>
12    1  0.8133506E-002  0.2209883E+03  0.7818608E-02  0.1133315E+00
         21   -1    0    0  503  502  0.00000000000E+00  0.00000000000E+00  0.28861787542E+04  0.28861787542E+04  0.00000000000E+00 0. -1.
         21   -1    0    0  501  503 -0.00000000000E+00 -0.00000000000E+00 -0.35245416696E+02  0.35245416696E+02  0.00000000000E+00 0.  1.
          6    2    1    2  501    0  0.12192047893E+03 -0.65286531340E+02  0.37162839132E+03  0.43236962937E+03  0.17236270132E+03 0.  0.
         24    2    3    3    0    0  0.48619747985E+02 -0.65600531291E+02  0.10471012041E+03  0.15552933407E+03  0.80980583111E+02 0.  0.
         -6    2    1    2    0  502 -0.12192047893E+03  0.65286531340E+02  0.24793049462E+04  0.24890545415E+04  0.17120911241E+03 0.  0.
        -24    2    5    5    0    0 -0.45311959334E+02 -0.26730702648E+02  0.92831812181E+03  0.93344589665E+03  0.82334698495E+02 0.  0.
          5    1    3    3  501    0  0.73300730947E+02  0.31399995136E+00  0.26691827091E+03  0.27684029530E+03  0.47000000000E+01 0. -1.
        -13    1    4    4    0    0 -0.22843772732E+02 -0.14530683970E+02  0.22086496153E+02  0.34939834595E+02  0.00000000000E+00 0.  1.
         14    1    4    4    0    0  0.71463520717E+02 -0.51069847322E+02  0.82623624259E+02  0.12058949948E+03  0.00000000000E+00 0. -1.
         -5    1    5    5    0  502 -0.76608519598E+02  0.92017233988E+02  0.15509868244E+04  0.15556086449E+04  0.47000000000E+01 0.  1.
         11    1    6    6    0    0 -0.21823090677E+02  0.74449087104E+00  0.79541917940E+03  0.79571884011E+03  0.00000000000E+00 0. -1.
        -12    1    6    6    0    0 -0.23488868658E+02 -0.27475193519E+02  0.13289894241E+03  0.13772705654E+03  0.00000000000E+00 0.  1.
</event>
<event>
12    1  0.8133506E-002  0.2059212E+03  0.7818608E-02  0.1145512E+00
         21   -1    0    0  501  502  0.00000000000E+00  0.00000000000E+00  0.89356851210E+03  0.89356851210E+03  0.00000000000E+00 0.  1.
         21   -1    0    0  502  503 -0.00000000000E+00 -0.00000000000E+00 -0.72168803683E+02  0.72168803683E+02  0.00000000000E+00 0. -1.
         -6    2    1    2    0  503  0.19749503241E+02  0.11028697193E+03  0.12598643050E+03  0.24140444583E+03  0.17277229738E+03 0.  0.
        -24    2    3    3    0    0  0.64912655378E+02  0.56348053409E+02  0.12401723320E+03  0.17087016353E+03  0.80172206543E+02 0.  0.
          6    2    1    2  501    0 -0.19749503241E+02 -0.11028697193E+03  0.69541327792E+03  0.72433286995E+03  0.16883489074E+03 0.  0.
         24    2    5    5    0    0  0.18370667531E+02  0.58416054427E+01  0.31661184440E+03  0.32627306296E+03  0.76416266740E+02 0.  0.
          5    1    5    5  501    0 -0.38120170773E+02 -0.11612857737E+03  0.37880143352E+03  0.39805980699E+03  0.47000000000E+01 0. -1.
        -13    1    6    6    0    0  0.21665287721E+02  0.23253400237E+01  0.31977014596E+03  0.32051168176E+03  0.00000000000E+00 0.  1.
         14    1    6    6    0    0 -0.32946201901E+01  0.35162654190E+01 -0.31583015564E+01  0.57613812072E+01  0.00000000000E+00 0. -1.
         -5    1    3    3    0  503 -0.45163152137E+02  0.53938918522E+02  0.19691972977E+01  0.70534282304E+02  0.47000000000E+01 0.  1.
         13    1    4    4    0    0  0.57916224928E+02  0.42124493419E+02  0.33656731710E+02  0.79129878333E+02  0.00000000000E+00 0. -1.
        -14    1    4    4    0    0  0.69964304501E+01  0.14223559990E+02  0.90360501489E+02  0.91740285193E+02  0.00000000000E+00 0.  1.
</event>
<event>
12    1  0.8133506E-002  0.1726891E+03  0.7818608E-02  0.1175131E+00
         21   -1    0    0  503  502  0.00000000000E+00  0.00000000000E+00  0.31054542199E+03  0.31054542199E+03  0.00000000000E+00 0. -1.
         21   -1    0    0  501  503 -0.00000000000E+00 -0.00000000000E+00 -0.17947428096E+03  0.17947428096E+03  0.00000000000E+00 0. -1.
          6    2    1    2  501    0  0.37256714108E+01  0.31101963367E+01 -0.10168065524E+03  0.20020090736E+03  0.17238878649E+03 0.  0.
         24    2    3    3    0    0  0.52213750672E+02 -0.29776037456E+02 -0.47566059335E+02  0.12030674178E+03  0.92726986099E+02 0.  0.
         -6    2    1    2    0  502 -0.37256714108E+01 -0.31101963367E+01  0.23275179627E+03  0.28981879559E+03  0.17262091897E+03 0.  0.
        -24    2    5    5    0    0  0.14866246087E+02  0.20316307721E+02  0.24416758679E+03  0.25746341332E+03  0.77690675937E+02 0.  0.
          5    1    3    3  501    0 -0.48488079262E+02  0.32886233793E+02 -0.54114595904E+02  0.79894165578E+02  0.47000000000E+01 0. -1.
        -11    1    4    4    0    0  0.19851483177E+02  0.22641614509E+02 -0.50320810506E+02  0.58642203760E+02  0.00000000000E+00 0.  1.
         12    1    4    4    0    0  0.32362267496E+02 -0.52417651965E+02  0.27547511716E+01  0.61664538019E+02  0.00000000000E+00 0. -1.
         -5    1    5    5    0  502 -0.18591917498E+02 -0.23426504058E+02 -0.11415790524E+02  0.32355382271E+02  0.47000000000E+01 0.  1.
         13    1    6    6    0    0 -0.12435300265E+02  0.36168008776E+02  0.19718192767E+03  0.20085684990E+03  0.00000000000E+00 0. -1.
        -14    1    6    6    0    0  0.27301546352E+02 -0.15851701055E+02  0.46985659122E+02  0.56606563424E+02  0.00000000000E+00 0.  1.
</event>
<event>
12    1  0.8133506E-002  0.1853522E+03  0.7818608E-02  0.1163269E+00
         21   -1    0    0  503  502  0.00000000000E+00  0.00000000000E+00  0.16597846966E+03  0.16597846966E+03  0.00000000000E+00 0. -1.
         21   -1    0    0  501  503 -0.00000000000E+00 -0.00000000000E+00 -0.21063392909E+03  0.21063392909E+03  0.00000000000E+00 0. -1.
          6    2    1    2  501    0  0.21409684279E+02 -0.65339787643E+02  0.99581726079E+01  0.18561952044E+03  0.17212721672E+03 0.  0.
         24    2    3    3    0    0 -0.28307670678E+02 -0.63297784706E+02  0.53733555911E+02  0.11917887517E+03  0.80674503335E+02 0.  0.
         -6    2    1    2    0  502 -0.21409684279E+02  0.65339787643E+02 -0.54613632038E+02  0.19099287832E+03  0.16961122703E+03 0.  0.
        -24    2    5    5    0    0 -0.59863064861E+02 -0.88100607857E+00 -0.56877884391E+02  0.11423955371E+03  0.78938071885E+02 0.  0.
          5    1    3    3  501    0  0.49717354957E+02 -0.20420029369E+01 -0.43775383303E+02  0.66440645265E+02  0.47000000000E+01 0. -1.
        -11    1    4    4    0    0 -0.36469552660E+02 -0.27107436824E-01  0.11199471680E+01  0.36486754963E+02  0.00000000000E+00 0.  1.
         12    1    4    4    0    0  0.81618819818E+01 -0.63270677269E+02  0.52613608743E+02  0.82692120209E+02  0.00000000000E+00 0. -1.
         -5    1    5    5    0  502  0.38453380582E+02  0.66220793722E+02  0.22642523535E+01  0.76753324606E+02  0.47000000000E+01 0.  1.
         11    1    6    6    0    0 -0.39118696217E+02 -0.38749855160E+02 -0.24482570488E+02  0.60259604433E+02  0.00000000000E+00 0. -1.
        -12    1    6    6    0    0 -0.20744368644E+02  0.37868849082E+02 -0.32395313903E+02  0.53979949278E+02  0.00000000000E+00 0.  1.
</event>
<event>
12    1  0.8133506E-002  0.2610094E+03  0.7818608E-02  0.1106770E+00
         21   -1    0    0  501  502  0.00000000000E+00  0.00000000000E+00  0.16654454966E+04  0.16654454966E+04  0.00000000000E+00 0. -1.
         21   -1    0    0  502  503 -0.00000000000E+00 -0.00000000000E+00 -0.14857752307E+03  0.14857752307E+03  0.00000000000E+00 0. -1.
         -6    2    1    2    0  503  0.72250925618E+02 -0.18188970296E+03 -0.15173667077E+02  0.25990671808E+03  0.17034436192E+03 0.  0.
        -24    2    3    3    0    0  0.11284060231E+03 -0.16160587277E+03 -0.26112826694E+01  0.21259013406E+03  0.79613357303E+02 0.  0.
          6    2    1    2  501    0 -0.72250925618E+02  0.18188970296E+03  0.15320416406E+04  0.15541163016E+04  0.17268998231E+03 0.  0.
         24    2    5    5    0    0 -0.33107519647E+02  0.91862807261E+02  0.44678752207E+03  0.46442109650E+03  0.80826862981E+02 0.  0.
          5    1    5    5  501    0 -0.39143405971E+02  0.90026895699E+02  0.10852541185E+04  0.10896952051E+04  0.47000000000E+01 0. -1.
        -13    1    6    6    0    0  0.83415819540E+00  0.35566477955E+02  0.45362258958E+02  0.57648978411E+02  0.00000000000E+00 0.  1.
         14    1    6    6    0    0 -0.33941677843E+02  0.56296329306E+02  0.40142526311E+03  0.40677211809E+03  0.00000000000E+00 0. -1.
         -5    1    3    3    0  503 -0.40589676694E+02 -0.20283830195E+02 -0.12562384408E+02  0.47316584022E+02  0.47000000000E+01 0.  1.
         13    1    4    4    0    0  0.11526953754E+02 -0.76934195395E+02  0.15484246369E+02  0.79318995011E+02  0.00000000000E+00 0. -1.
        -14    1    4    4    0    0  0.10131364856E+03 -0.84671677370E+02 -0.18095529039E+02  0.13327113905E+03  0.00000000000E+00 0.  1.
</event>
<event>
12    1  0.8133506E-002  0.1836160E+03  0.7818608E-02  0.1164533E+00
         21   -1    0    0  501  502  0.00000000000E+00  0.00000000000E+00  0.19403720033E+03  0.19403720033E+03  0.00000000000E+00 0. -1.
         21   -1    0    0  502  503 -0.00000000000E+00 -0.00000000000E+00 -0.17301965717E+03  0.17301965717E+03  0.00000000000E+00 0.  1.
         -6    2    1    2    0  503  0.62445959937E+02  0.36648571662E+01  0.10020330425E+02  0.18388924801E+03  0.17263232438E+03 0.  0.
        -24    2    3    3    0    0  0.83304134781E+02 -0.43168569900E+02  0.29856829410E+02  0.12871670012E+03  0.82906298491E+02 0.  0.
          6    2    1    2  501    0 -0.62445959937E+02 -0.36648571662E+01  0.10997212739E+02  0.18316760948E+03  0.17180368269E+03 0.  0.
         24    2    5    5    0    0 -0.47344129310E+01  0.45296479641E+02  0.45858974523E+02  0.99709430768E+02  0.75925880345E+02 0.  0.
          5    1    5    5  501    0 -0.57711547006E+02 -0.48961336807E+02 -0.34861761784E+02  0.83458178715E+02  0.47000000000E+01 0. -1.
        -13    1    6    6    0    0  0.18998627301E+02  0.32774246822E+02 -0.87353896174E+01  0.38876807043E+02  0.00000000000E+00 0.  1.
         14    1    6    6    0    0 -0.23733040232E+02  0.12522232819E+02  0.54594364140E+02  0.60832623725E+02  0.00000000000E+00 0. -1.
         -5    1    3    3    0  503 -0.20858174844E+02  0.46833427066E+02 -0.19836498985E+02  0.55172547889E+02  0.47000000000E+01 0.  1.
         13    1    4    4    0    0  0.58154245807E+02 -0.11896160095E+02  0.55360287640E+02  0.81167705265E+02  0.00000000000E+00 0. -1.
        -14    1    4    4    0    0  0.25149888974E+02 -0.31272409804E+02 -0.25503458230E+02  0.47548994859E+02  0.00000000000E+00 0.  1.
</event>
<event>
12    1  0.8133506E-002  0.1959607E+03  0.7818608E-02  0.1153210E+00
         21   -1    0    0  501  502  0.00000000000E+00  0.00000000000E+00  0.25597778895E+02  0.25597778895E+02  0.00000000000E+00 0. -1.
         21   -1    0    0  502  503 -0.00000000000E+00 -0.00000000000E+00 -0.16089501099E+04  0.16089501099E+04  0.00000000000E+00 0. -1.
         -6    2    1    2    0  503 -0.12694722911E+01  0.94376773369E+02 -0.10049678947E+04  0.10238950406E+04  0.17173234416E+03 0.  0.
        -24    2    3    3    0    0  0.26822635736E+02  0.12193514100E+03 -0.64771262392E+03  0.66444817581E+03  0.79825451803E+02 0.  0.
          6    2    1    2  501    0  0.12694722911E+01 -0.94376773369E+02 -0.57838443633E+03  0.61065284814E+03  0.17163845096E+03 0.  0.
         24    2    5    5    0    0 -0.24336115308E+02 -0.13377356145E+02 -0.20230350771E+03  0.22506821855E+03  0.94645621158E+02 0.  0.
          5    1    5    5  501    0  0.25605587599E+02 -0.80999417224E+02 -0.37608092862E+03  0.38558462959E+03  0.47000000000E+01 0. -1.
        -11    1    6    6    0    0 -0.36325181959E+02 -0.45896227952E+02 -0.88505578904E+02  0.10610947216E+03  0.00000000000E+00 0.  1.
         12    1    6    6    0    0  0.11989066651E+02  0.32518871807E+02 -0.11379792881E+03  0.11895874639E+03  0.00000000000E+00 0. -1.
         -5    1    3    3    0  503 -0.28092108027E+02 -0.27558367634E+02 -0.35725527073E+03  0.35944686482E+03  0.47000000000E+01 0.  1.
         11    1    4    4    0    0  0.16284951718E+02  0.78660759393E+02 -0.21615929866E+03  0.23060259565E+03  0.00000000000E+00 0. -1.
        -12    1    4    4    0    0  0.10537684017E+02  0.43274381610E+02 -0.43155332526E+03  0.43384558017E+03  0.00000000000E+00 0.  1.
</event>
<event>
12    1  0.8133506E-002  0.1971023E+03  0.7818608E-02  0.1152485E+00
         21   -1    0    0  503  502  0.00000000000E+00  0.00000000000E+00  0.79334756700E+02  0.79334756700E+02  0.00000000000E+00 0. -1.
         21   -1    0    0  501  503 -0.00000000000E+00 -0.00000000000E+00 -0.48693428771E+03  0.48693428771E+03  0.00000000000E+00 0.  1.
          6    2    1    2  501    0 -0.75285068258E+02  0.60631555434E+02 -0.21296863492E+03  0.29018092718E+03  0.17177108029E+03 0.  0.
         24    2    3    3    0    0 -0.21738930745E+02  0.10004341376E+03 -0.13549422277E+03  0.18798083933E+03  0.80603013613E+02 0.  0.
         -6    2    1    2    0  502  0.75285068258E+02 -0.60631555434E+02 -0.19463089609E+03  0.27608811723E+03  0.17029220694E+03 0.  0.
        -24    2    5    5    0    0  0.43835430681E+02 -0.82262685616E+01 -0.23804280110E+02  0.94596474106E+02  0.79953941018E+02 0.  0.
          5    1    3    3  501    0 -0.53546137513E+02 -0.39411858328E+02 -0.77474412145E+02  0.10220008785E+03  0.47000000000E+01 0. -1.
        -13    1    4    4    0    0  0.27346815850E+02  0.50404998087E+02 -0.81854459001E+02  0.99943307068E+02  0.00000000000E+00 0.  1.
         14    1    4    4    0    0 -0.49085746594E+02  0.49638415675E+02 -0.53639763772E+02  0.88037532263E+02  0.00000000000E+00 0. -1.
         -5    1    5    5    0  502  0.31449637577E+02 -0.52405286872E+02 -0.17082661598E+03  0.18149164313E+03  0.47000000000E+01 0.  1.
         11    1    6    6    0    0  0.31635096042E+02 -0.36101251794E+02 -0.37806190483E+02  0.61101454332E+02  0.00000000000E+00 0. -1.
        -12    1    6    6    0    0  0.12200334639E+02  0.27874983233E+02  0.14001910373E+02  0.33495019774E+02  0.00000000000E+00 0.  1.
</event>
<event>
12    1  0.8133506E-002  0.2037017E+03  0.7818608E-02  0.1147763E+00
         21   -1    0    0  501  502  0.00000000000E+00  0.00000000000E+00  0.26494075897E+02  0.26494075897E+02  0.00000000000E+00 0. -1.
         21   -1    0    0  502  503 -0.00000000000E+00 -0.00000000000E+00 -0.19941833705E+04  0.19941833705E+04  0.00000000000E+00 0. -1.
         -6    2    1    2    0  503  0.98357820191E+02 -0.22002264614E+02 -0.14636234880E+04  0.14770077704E+04  0.17087971999E+03 0.  0.
        -24    2    3    3    0    0  0.65208825959E+02 -0.60636391654E+02 -0.13021886199E+04  0.13076715420E+04  0.79879265720E+02 0.  0.
          6    2    1    2  501    0 -0.98357820191E+02  0.22002264614E+02 -0.50406580652E+03  0.54366967593E+03  0.17701982596E+03 0.  0.
         24    2    5    5    0    0  0.96832140527E+01  0.40227393191E+02 -0.28893621508E+03  0.30219948832E+03  0.78284012149E+02 0.  0.
          5    1    5    5  501    0 -0.10804103424E+03 -0.18225128577E+02 -0.21512959143E+03  0.24147018761E+03  0.47000000000E+01 0. -1.
        -11    1    6    6    0    0  0.74950428413E+01 -0.23227784559E+02 -0.64814564910E+02  0.69257732183E+02  0.00000000000E+00 0.  1.
         12    1    6    6    0    0  0.21881712113E+01  0.63455177750E+02 -0.22412165017E+03  0.23294175614E+03  0.00000000000E+00 0. -1.
         -5    1    3    3    0  503  0.33148994232E+02  0.38634127041E+02 -0.16143486814E+03  0.16933622838E+03  0.47000000000E+01 0.  1.
         13    1    4    4    0    0  0.24403685508E+02  0.16024113125E+02 -0.20752123964E+03  0.20956473217E+03  0.00000000000E+00 0. -1.
        -14    1    4    4    0    0  0.40805140451E+02 -0.76660504779E+02 -0.10946673803E+04  0.10981068099E+04  0.00000000000E+00 0.  1.
</event>
<event>
12    1  0.8133506E-002  0.2105451E+03  0.7818608E-02  0.1141790E+00
         21   -1    0    0  503  502  0.00000000000E+00  0.00000000000E+00  0.57317721407E+03  0.57317721407E+03  0.00000000000E+00 0.  1.
         21   -1    0    0  501  503 -0.00000000000E+00 -0.00000000000E+00 -0.93760145768E+02  0.93760145768E+02  0.00000000000E+00 0.  1.
          6    2    1    2  501    0 -0.41408533140E+02  0.10524710802E+03  0.96663651726E+02  0.23167454445E+03  0.17758832343E+03 0.  0.
         24    2    3    3    0    0  0.17088524833E+02 -0.24546063149E+01  0.66155178357E+02  0.10528458437E+03  0.80064307341E+02 0.  0.
         -6    2    1    2    0  502  0.41408533140E+02 -0.10524710802E+03  0.38275341658E+03  0.43526281538E+03  0.17367187507E+03 0.  0.
        -24    2    5    5    0    0  0.28626036369E+02 -0.97033445722E+02  0.13294213378E+03  0.18494576946E+03  0.79349777299E+02 0.  0.
          5    1    3    3  501    0 -0.58497057973E+02  0.10770171433E+03  0.30508473369E+02  0.12638996008E+03  0.47000000000E+01 0. -1.
        -13    1    4    4    0    0  0.24007893002E+02 -0.32292601899E+02  0.10227326495E+02  0.41518541292E+02  0.00000000000E+00 0.  1.
         14    1    4    4    0    0 -0.69193681696E+01  0.29837995584E+02  0.55927851861E+02  0.63766043080E+02  0.00000000000E+00 0. -1.
         -5    1    5    5    0  502  0.12782496772E+02 -0.82136622972E+01  0.24981128279E+03  0.25031704593E+03  0.47000000000E+01 0.  1.
         11    1    6    6    0    0  0.39408725980E+01  0.14011874544E+02  0.11531757802E+02  0.18569990390E+02  0.00000000000E+00 0. -1.
        -12    1    6    6    0    0  0.24685163771E+02 -0.11104532027E+03  0.12141037598E+03  0.16637577907E+03  0.00000000000E+00 0.  1.
</event>
<event>
12    1  0.8133506E-002  0.2164932E+03  0.7818608E-02  0.1136737E+00
         21   -1    0    0  501  502  0.00000000000E+00  0.00000000000E+00  0.31601740452E+03  0.31601740452E+03  0.00000000000E+00 0.  1.
         21   -1    0    0  502  503 -0.00000000000E+00 -0.00000000000E+00 -0.17840968382E+03  0.17840968382E+03  0.00000000000E+00 0.  1.
         -6    2    1    2    0  503 -0.11656121470E+02 -0.12958772661E+03  0.17146823296E+03  0.27530190435E+03  0.17164189340E+03 0.  0.
        -24    2    3    3    0    0 -0.58830119372E+02 -0.10345967668E+03  0.16859829626E+03  0.22109500803E+03  0.79326725837E+02 0.  0.
          6    2    1    2  501    0  0.11656121470E+02  0.12958772661E+03 -0.33860512263E+02  0.21912518399E+03  0.17303314108E+03 0.  0.
         24    2    5    5    0    0 -0.21018105189E+02  0.18309868657E+02 -0.56035578825E+02  0.10095500867E+03  0.79214365144E+02 0.  0.
          5    1    5    5  501    0  0.32674226659E+02  0.11127785795E+03  0.22175066563E+02  0.11817017532E+03  0.47000000000E+01 0. -1.
        -11    1    6    6    0    0  0.13171991413E+02 -0.15076666962E+02  0.75653164438E+01  0.21401898452E+02  0.00000000000E+00 0.  1.
         12    1    6    6    0    0 -0.34190096602E+02  0.33386535619E+02 -0.63600895269E+02  0.79553110217E+02  0.00000000000E+00 0. -1.
         -5    1    3    3    0  503  0.47173997902E+02 -0.26128049937E+02  0.28699366958E+01  0.54206896316E+02  0.47000000000E+01 0.  1.
         11    1    4    4    0    0  0.70566772960E+01 -0.64720096206E+02  0.93581900771E+02  0.11400026184E+03  0.00000000000E+00 0. -1.
        -12    1    4    4    0    0 -0.65886796668E+02 -0.38739580470E+02  0.75016395488E+02  0.10709474619E+03  0.00000000000E+00 0.  1.
</event>
<event>
12    1  0.8133506E-002  0.1865701E+03  0.7818608E-02  0.1161981E+00
         21   -1    0    0  501  502  0.00000000000E+00  0.00000000000E+00  0.14084428962E+03  0.14084428962E+03  0.00000000000E+00 0.  1.
         21   -1    0    0  502  503 -0.00000000000E+00 -0.00000000000E+00 -0.38472417122E+03  0.38472417122E+03  0.00000000000E+00 0. -1.
         -6    2    1    2    0  503  0.48874141988E+02  0.51247645998E+02 -0.27999683188E+03  0.33553464627E+03  0.17079306195E+03 0.  0.
        -24    2    3    3    0    0  0.84903959958E+02  0.44211041210E+02 -0.12599460983E+03  0.17714766453E+03  0.79645180397E+02 0.  0.
          6    2    1    2  501    0 -0.48874141988E+02 -0.51247645998E+02  0.36116950279E+02  0.19003381457E+03  0.17260768699E+03 0.  0.
         24    2    5    5    0    0 -0.41509939572E+02 -0.39292252301E+02  0.91727730635E+02  0.13248547135E+03  0.76625500831E+02 0.  0.
          5    1    5    5  501    0 -0.73642024160E+01 -0.11955393697E+02 -0.55610780356E+02  0.57548343221E+02  0.47000000000E+01 0. -1.
        -11    1    6    6    0    0 -0.33005945084E+02  0.17970008874E+02  0.32835843918E+02  0.49904972454E+02  0.00000000000E+00 0.  1.
         12    1    6    6    0    0 -0.85039944880E+01 -0.57262261175E+02  0.58891886717E+02  0.82580498898E+02  0.00000000000E+00 0. -1.
         -5    1    3    3    0  503 -0.36029817971E+02  0.70366047880E+01 -0.15400222205E+03  0.15838698174E+03  0.47000000000E+01 0.  1.
         13    1    4    4    0    0  0.73475419222E+02  0.25911207550E+02 -0.13327507990E+03  0.15437705409E+03  0.00000000000E+00 0. -1.
        -14    1    4    4    0    0  0.11428540736E+02  0.18299833660E+02  0.72804700712E+01  0.22770610440E+02  0.00000000000E+00 0.  1.
</event>
<event>
12    1  0.8133506E-002  0.2030357E+03  0.7818608E-02  0.1147250E+00
         21   -1    0    0  503  502  0.00000000000E+00  0.00000000000E+00  0.21269594316E+03  0.21269594316E+03  0.00000000000E+00 0.  1.
         21   -1    0    0  501  503 -0.00000000000E+00 -0.00000000000E+00 -0.19559946873E+03  0.19559946873E+03  0.00000000000E+00 0. -1.
          6    2    1    2  501    0 -0.10882271295E+03  0.59231854899E+01 -0.12110611733E+02  0.20339660274E+03  0.17130687117E+03 0.  0.
         24    2    3    3    0    0 -0.14251820152E+03  0.12221093859E+02 -0.16102356792E+02  0.16856739620E+03  0.87720512243E+02 0.  0.
         -6    2    1    2    0  502  0.10882271295E+03 -0.59231854899E+01  0.29207086164E+02  0.20489880915E+03  0.17103508742E+03 0.  0.
        -24    2    5    5    0    0  0.14333939301E+03 -0.26458451662E+00  0.36447423062E+02  0.16887196574E+03  0.81505058565E+02 0.  0.
          5    1    3    3  501    0  0.33695488567E+02 -0.62979083692E+01  0.39917450585E+01  0.34829206540E+02  0.47000000000E+01 0. -1.
        -13    1    4    4    0    0 -0.48394505084E+02 -0.19804515478E+02  0.28551500288E+02  0.59577135919E+02  0.00000000000E+00 0.  1.
         14    1    4    4    0    0 -0.94123696431E+02  0.32025609337E+02 -0.44653857080E+02  0.10899026028E+03  0.00000000000E+00 0. -1.
         -5    1    5    5    0  502 -0.34516680064E+02 -0.56586009732E+01 -0.72403368983E+01  0.36026843409E+02  0.47000000000E+01 0.  1.
         11    1    6    6    0    0  0.81164643675E+02  0.25805737906E+02 -0.11779860465E+02  0.85979070734E+02  0.00000000000E+00 0. -1.
        -12    1    6    6    0    0  0.62174749338E+02 -0.26070322423E+02  0.48227283527E+02  0.82892895008E+02  0.00000000000E+00 0.  1.
</event>
<event>
12    1  0.8133506E-002  0.2029299E+03  0.7818608E-02  0.1148254E+00
         21   -1    0    0  503  502  0.00000000000E+00  0.00000000000E+00  0.28551959930E+02  0.28551959930E+02  0.00000000000E+00 0. -1.
         21   -1    0    0  501  503 -0.00000000000E+00 -0.00000000000E+00 -0.24300744116E+04  0.24300744116E+04  0.00000000000E+00 0. -1.
          6    2    1    2  501    0 -0.98413476391E+02 -0.61666812077E+01 -0.19892939433E+04  0.19991561512E+04  0.17208045758E+03 0.  0.
         24    2    3    3    0    0 -0.56162751552E+02  0.71047491805E+01 -0.44137148027E+03  0.45059317346E+03  0.70856843293E+02 0.  0.
         -6    2    1    2    0  502  0.98413476391E+02  0.61666812077E+01 -0.41222850835E+03  0.45947022028E+03  0.17736205888E+03 0.  0.
        -24    2    5    5    0    0  0.10137506397E+02 -0.18959559191E+02 -0.84450444883E+02  0.11905206018E+03  0.81112770083E+02 0.  0.
          5    1    3    3  501    0 -0.42250724840E+02 -0.13271430388E+02 -0.15479224630E+04  0.15485629778E+04  0.47000000000E+01 0. -1.
        -11    1    4    4    0    0  0.15853465898E+02  0.29563944853E+01 -0.47294928849E+02  0.49968819719E+02  0.00000000000E+00 0.  1.
         12    1    4    4    0    0 -0.72016217449E+02  0.41483546952E+01 -0.39407655143E+03  0.40062435374E+03  0.00000000000E+00 0. -1.
         -5    1    5    5    0  502  0.88275969995E+02  0.25126240399E+02 -0.32777806347E+03  0.34041816010E+03  0.47000000000E+01 0.  1.
         11    1    6    6    0    0  0.17415355620E+02 -0.43366383231E+02 -0.22088555314E+02  0.51689864401E+02  0.00000000000E+00 0. -1.
        -12    1    6    6    0    0 -0.72778492235E+01  0.24406824040E+02 -0.62361889569E+02  0.67362195775E+02  0.00000000000E+00 0.  1.
</event>
<event>
12    1  0.8133506E-002  0.1744719E+03  0.7818608E-02  0.1173844E+00
         21   -1    0    0  501  502  0.00000000000E+00  0.00000000000E+00  0.91263393909E+02  0.91263393909E+02  0.00000000000E+00 0. -1.
         21   -1    0    0  502  503 -0.00000000000E+00 -0.00000000000E+00 -0.35199140210E+03  0.35199140210E+03  0.00000000000E+00 0. -1.
         -6    2    1    2    0  503 -0.96531118941E+01 -0.21452656551E+02 -0.18758015629E+03  0.25617723604E+03  0.17287874996E+03 0.  0.
        -24    2    3    3    0    0  0.39241986866E+02 -0.35955055825E+02 -0.18058676903E+03  0.20448538240E+03  0.79812222701E+02 0.  0.
          6    2    1    2  501    0  0.96531118941E+01  0.21452656551E+02 -0.73147851900E+02  0.18707755997E+03  0.17056965194E+03 0.  0.
         24    2    5    5    0    0  0.37473914552E+02 -0.42657596152E+02 -0.18386518323E+02  0.98167407470E+02  0.77941074230E+02 0.  0.
          5    1    5    5  501    0 -0.27820802658E+02  0.64110252703E+02 -0.54761333578E+02  0.88910152499E+02  0.47000000000E+01 0. -1.
        -11    1    6    6    0    0  0.30997430670E+02  0.15739914653E+02 -0.18565766905E+02  0.39411588679E+02  0.00000000000E+00 0.  1.
         12    1    6    6    0    0  0.64764838819E+01 -0.58397510805E+02  0.17924858291E+00  0.58755818791E+02  0.00000000000E+00 0. -1.
         -5    1    3    3    0  503 -0.48895098760E+02  0.14502399274E+02 -0.69933872590E+01  0.51691853641E+02  0.47000000000E+01 0.  1.
         13    1    4    4    0    0  0.17092248402E+02  0.24670418124E+02 -0.74334934460E+02  0.80165185505E+02  0.00000000000E+00 0. -1.
        -14    1    4    4    0    0  0.22149738464E+02 -0.60625473949E+02 -0.10625183457E+03  0.12432019689E+03  0.00000000000E+00 0.  1.
</event>
<event>
12    1  0.8133506E-002  0.1968653E+03  0.7818608E-02  0.1155228E+00
         21   -1    0    0  503  502  0.00000000000E+00  0.00000000000E+00  0.45973424912E+03  0.45973424912E+03  0.00000000000E+00 0. -1.
         21   -1    0    0  501  503 -0.00000000000E+00 -0.00000000000E+00 -0.87288118983E+02  0.87288118983E+02  0.00000000000E+00 0.  1.
          6    2    1    2  501    0 -0.29364885261E+02  0.60531654986E+02  0.96303094198E+02  0.20788976220E+03  0.17151527493E+03 0.  0.
         24    2    3    3    0    0  0.30031562332E+02  0.77073329793E+02  0.31646156549E+02  0.11842370954E+03  0.78616174261E+02 0.  0.
         -6    2    1    2    0  502  0.29364885261E+02 -0.60531654986E+02  0.27614303594E+03  0.33913260590E+03  0.18501235188E+03 0.  0.
        -24    2    5    5    0    0 -0.23988623935E+02 -0.12904888221E+02  0.24867570581E+03  0.26237682384E+03  0.79120166906E+02 0.  0.
          5    1    3    3  501    0 -0.59396447593E+02 -0.16541674807E+02  0.64656937649E+02  0.89466052658E+02  0.47000000000E+01 0. -1.
        -13    1    4    4    0    0  0.23618818848E+02  0.74831077953E+02 -0.73748280511E+01  0.78815778371E+02  0.00000000000E+00 0.  1.
         14    1    4    4    0    0  0.64127434836E+01  0.22422518394E+01  0.39020984600E+02  0.39607931169E+02  0.00000000000E+00 0. -1.
         -5    1    5    5    0  502  0.53353509196E+02 -0.47626766765E+02  0.27467330133E+02  0.76755782067E+02  0.47000000000E+01 0.  1.
         11    1    6    6    0    0  0.11250739955E+02 -0.99495745845E+01  0.20773800768E+03  0.20828022715E+03  0.00000000000E+00 0. -1.
        -12    1    6    6    0    0 -0.35239363890E+02 -0.29553136368E+01  0.40937698121E+02  0.54096596690E+02  0.00000000000E+00 0.  1.
</event>
<event>
12    1  0.8133506E-002  0.1980857E+03  0.7818608E-02  0.1151511E+00
         21   -1    0    0  503  502  0.00000000000E+00  0.00000000000E+00  0.67033025533E+03  0.67033025533E+03  0.00000000000E+00 0.  1.
         21   -1    0    0  501  503 -0.00000000000E+00 -0.00000000000E+00 -0.77832107352E+02  0.77832107352E+02  0.00000000000E+00 0.  1.
          6    2    1    2  501    0  0.95532731347E+02 -0.20225324652E+02  0.10862532624E+03  0.22531356734E+03  0.17155516783E+03 0.  0.
         24    2    3    3    0    0  0.34883585760E+02 -0.72827121472E+02  0.85185828398E+02  0.14154741696E+03  0.79109997548E+02 0.  0.
         -6    2    1    2    0  502 -0.95532731347E+02  0.20225324652E+02  0.48387282174E+03  0.52284879534E+03  0.17234380946E+03 0.  0.
        -24    2    5    5    0    0 -0.39501752049E+02  0.44561998076E+02  0.42961144988E+03  0.44100668643E+03  0.79841965952E+02 0.  0.
          5    1    3    3  501    0  0.60649145588E+02  0.52601796820E+02  0.23439497840E+02  0.83766150373E+02  0.47000000000E+01 0. -1.
        -11    1    4    4    0    0  0.57262015294E+02 -0.65618028909E+02  0.53929035120E+02  0.10243536959E+03  0.00000000000E+00 0.  1.
         12    1    4    4    0    0 -0.22378429535E+02 -0.72090925630E+01  0.31256793277E+02  0.39112047377E+02  0.00000000000E+00 0. -1.
         -5    1    5    5    0  502 -0.56030979298E+02 -0.24336673424E+02  0.54261371861E+02  0.81842108910E+02  0.47000000000E+01 0.  1.
         13    1    6    6    0    0  0.29629863136E+01 -0.12590436866E+02  0.12941656554E+02  0.18297127172E+02  0.00000000000E+00 0. -1.
        -14    1    6    6    0    0 -0.42464738363E+02  0.57152434943E+02  0.41666979332E+03  0.42270955926E+03  0.00000000000E+00 0.  1.
</event>
<event>
12    1  0.8133506E-002  0.1735847E+03  0.7818608E-02  0.1175910E+00
         21   -1    0    0  501  502  0.00000000000E+00  0.00000000000E+00  0.63972782387E+02  0.63972782387E+02  0.00000000000E+00 0.  1.
         21   -1    0    0  502  503 -0.00000000000E+00 -0.00000000000E+00 -0.49056718837E+03  0.49056718837E+03  0.00000000000E+00 0.  1.
         -6    2    1    2    0  503  0.83600430613E+01  0.19325071158E+02 -0.28624495255E+03  0.33131447212E+03  0.16549851322E+03 0.  0.
        -24    2    3    3    0    0 -0.30601703546E+02  0.66957148464E+01 -0.63344089536E+02  0.10463319130E+03  0.77164332342E+02 0.  0.
          6    2    1    2  501    0 -0.83600430613E+01 -0.19325071158E+02 -0.14034945343E+03  0.22322549864E+03  0.17230294678E+03 0.  0.
         24    2    5    5    0    0  0.22661706828E+02 -0.66202893950E+02 -0.52182405706E+02  0.11855746369E+03  0.80227754591E+02 0.  0.
          5    1    5    5  501    0 -0.31021749890E+02  0.46877822791E+02 -0.88167047725E+02  0.10466803495E+03  0.47000000000E+01 0. -1.
        -11    1    6    6    0    0 -0.25365568954E+02 -0.14751300609E+02 -0.35806212165E+02  0.46293604176E+02  0.00000000000E+00 0.  1.
         12    1    6    6    0    0  0.48027275782E+02 -0.51451593341E+02 -0.16376193541E+02  0.72263859509E+02  0.00000000000E+00 0. -1.
         -5    1    3    3    0  503  0.38961746608E+02  0.12629356312E+02 -0.22290086302E+03  0.22668128082E+03  0.47000000000E+01 0.  1.
         11    1    4    4    0    0 -0.20391669100E+02  0.41571643473E+02 -0.29019749058E+02  0.54645837400E+02  0.00000000000E+00 0. -1.
        -12    1    4    4    0    0 -0.10210034446E+02 -0.34875928627E+02 -0.34324340478E+02  0.49987353902E+02  0.00000000000E+00 0.  1.
</event>
<event>
12    1  0.8133506E-002  0.1736688E+03  0.7818608E-02  0.1174125E+00
         21   -1    0    0  503  502  0.00000000000E+00  0.00000000000E+00  0.10709345053E+03  0.10709345053E+03  0.00000000000E+00 0. -1.
         21   -1    0    0  501  503 -0.00000000000E+00 -0.00000000000E+00 -0.47935475729E+03  0.47935475729E+03  0.00000000000E+00 0. -1.
          6    2    1    2  501    0  0.16692925995E+02  0.10672497718E+02 -0.37454217484E+03  0.41276445849E+03  0.17233717379E+03 0.  0.
         24    2    3    3    0    0 -0.22282470156E+02 -0.49209381290E+02 -0.16084119492E+03  0.18738673164E+03  0.79535058495E+02 0.  0.
         -6    2    1    2    0  502 -0.16692925995E+02 -0.10672497718E+02  0.22808680831E+01  0.17368374932E+03  0.17253488469E+03 0.  0.
        -24    2    5    5    0    0 -0.17524036041E+02 -0.26424837951E+02  0.65659452876E+02  0.10820274462E+03  0.79945645855E+02 0.  0.
          5    1    3    3  501    0  0.38975396151E+02  0.59881879008E+02 -0.21370097992E+03  0.22537772685E+03  0.47000000000E+01 0. -1.
        -13    1    4    4    0    0  0.30065650205E+02 -0.18727510513E+02 -0.54399621499E+02  0.64915189220E+02  0.00000000000E+00 0.  1.
         14    1    4    4    0    0 -0.52348120361E+02 -0.30481870777E+02 -0.10644157342E+03  0.12247154243E+03  0.00000000000E+00 0. -1.
         -5    1    5    5    0  502  0.83111004596E+00  0.15752340233E+02 -0.63378584793E+02  0.65481004704E+02  0.47000000000E+01 0.  1.
         13    1    6    6    0    0 -0.12101765475E+02  0.28414823257E+02  0.24462013556E+02  0.39398540779E+02  0.00000000000E+00 0. -1.
        -14    1    6    6    0    0 -0.54222705653E+01 -0.54839661207E+02  0.41197439320E+02  0.68804203839E+02  0.00000000000E+00 0.  1.
</event>
<event>
12    1  0.8133506E-002  0.1829889E+03  0.7818608E-02  0.1166263E+00
         21   -1    0    0  503  502  0.00000000000E+00  0.00000000000E+00  0.24752292455E+03  0.24752292455E+03  0.00000000000E+00 0.  1.
         21   -1    0    0  501  503 -0.00000000000E+00 -0.00000000000E+00 -0.15578725956E+03  0.15578725956E+03  0.00000000000E+00 0.  1.
          6    2    1    2  501    0  0.16517874951E+02 -0.36960558632E+02 -0.33562532031E+02  0.18604135302E+03  0.17845452751E+03 0.  0.
         24    2    3    3    0    0 -0.22669174608E+02  0.18133147426E+01 -0.78796383481E+02  0.11457647055E+03  0.80010736563E+02 0.  0.
         -6    2    1    2    0  502 -0.16517874951E+02  0.36960558632E+02  0.12529819702E+03  0.21726883109E+03  0.17282124782E+03 0.  0.
        -24    2    5    5    0    0  0.35654815962E+02 -0.30514518950E+02  0.47345316943E+02  0.10162447418E+03  0.76704321575E+02 0.  0.
          5    1    3    3  501    0  0.39187049559E+02 -0.38773873375E+02  0.45233851450E+02  0.71464882471E+02  0.47000000000E+01 0. -1.
        -11    1    4    4    0    0 -0.12755890546E+02  0.23288352308E+02 -0.85875641757E+02  0.89887073287E+02  0.00000000000E+00 0.  1.
         12    1    4    4    0    0 -0.99132840615E+01 -0.21475037565E+02  0.70792582761E+01  0.24689397260E+02  0.00000000000E+00 0. -1.
         -5    1    5    5    0  502 -0.52172690914E+02  0.67475077582E+02  0.77952880079E+02  0.11564435691E+03  0.47000000000E+01 0.  1.
         13    1    6    6    0    0  0.11166874987E+02  0.25738884396E+02  0.99239656054E+01  0.29760281589E+02  0.00000000000E+00 0. -1.
        -14    1    6    6    0    0  0.24487940975E+02 -0.56253403345E+02  0.37421351337E+02  0.71864192593E+02  0.00000000000E+00 0.  1.
</event>
<event>
12    1  0.8133506E-002  0.1751245E+03  0.7818608E-02  0.1172643E+00
         21   -1    0    0  501  502  0.00000000000E+00  0.00000000000E+00  0.48490760565E+03  0.48490760565E+03  0.00000000000E+00 0. -1.
         21   -1    0    0  502  503 -0.00000000000E+00 -0.00000000000E+00 -0.63194718417E+02  0.63194718417E+02  0.00000000000E+00 0. -1.
         -6    2    1    2    0  503 -0.28793460318E+02 -0.41202203373E+01  0.21067164045E+03  0.27395464022E+03  0.17269211110E+03 0.  0.
        -24    2    3    3    0    0 -0.65729727154E+02  0.87027056484E+01  0.21014438964E+03  0.23457084619E+03  0.80415690428E+02 0.  0.
          6    2    1    2  501    0  0.28793460318E+02  0.41202203373E+01  0.21104124678E+03  0.27414768385E+03  0.17254710992E+03 0.  0.
         24    2    5    5    0    0 -0.33357709772E+02 -0.13188635469E+02  0.52743459319E+02  0.10314287705E+03  0.81054942341E+02 0.  0.
          5    1    5    5  501    0  0.62151170090E+02  0.17308855807E+02  0.15829778746E+03  0.17100480680E+03  0.47000000000E+01 0. -1.
        -13    1    6    6    0    0 -0.35427883484E+01  0.62790097279E+00  0.67161819284E+02  0.67258126486E+02  0.00000000000E+00 0.  1.
         14    1    6    6    0    0 -0.29814921424E+02 -0.13816536442E+02 -0.14418359965E+02  0.35884750561E+02  0.00000000000E+00 0. -1.
         -5    1    3    3    0  503  0.36936266837E+02 -0.12822925986E+02  0.52725080775E+00  0.39383794029E+02  0.47000000000E+01 0.  1.
         13    1    4    4    0    0 -0.36076224242E+02 -0.31565751092E+02  0.63020624581E+02  0.79180109372E+02  0.00000000000E+00 0. -1.
        -14    1    4    4    0    0 -0.29653502912E+02  0.40268456741E+02  0.14712376506E+03  0.15539073682E+03  0.00000000000E+00 0.  1.
</event>
<event>
12    1  0.8133506E-002  0.1832857E+03  0.7818608E-02  0.1165003E+00
         21   -1    0    0  503  502  0.00000000000E+00  0.00000000000E+00  0.39976653641E+03  0.39976653641E+03  0.00000000000E+00 0. -1.
         21   -1    0    0  501  503 -0.00000000000E+00 -0.00000000000E+00 -0.89275876181E+02  0.89275876181E+02  0.00000000000E+00 0. -1.
          6    2    1    2  501    0  0.52876252481E+02  0.24116164918E+02  0.91791789272E+02  0.20369554749E+03  0.17230396398E+03 0.  0.
         24    2    3    3    0    0 -0.73547699484E+01 -0.38664102754E+02  0.11741033404E+02  0.85376691903E+02  0.74848661793E+02 0.  0.
         -6    2    1    2    0  502 -0.52876252481E+02 -0.24116164918E+02  0.21869887096E+03  0.28534686510E+03  0.17382793153E+03 0.  0.
        -24    2    5    5    0    0 -0.22876319733E+02 -0.69923519944E+02  0.20576780516E+03  0.22888792248E+03  0.68093074321E+02 0.  0.
          5    1    3    3  501    0  0.60231022429E+02  0.62780267671E+02  0.80050755868E+02  0.11831885558E+03  0.47000000000E+01 0. -1.
        -13    1    4    4    0    0 -0.10793392237E+02  0.94393526172E+01  0.30443304940E+02  0.33651055102E+02  0.00000000000E+00 0.  1.
         14    1    4    4    0    0  0.34386222882E+01 -0.48103455371E+02 -0.18702271536E+02  0.51725636801E+02  0.00000000000E+00 0. -1.
         -5    1    5    5    0  502 -0.29999932748E+02  0.45807355026E+02  0.12931065792E+02  0.56458942621E+02  0.47000000000E+01 0.  1.
         11    1    6    6    0    0 -0.14017211279E+02 -0.57455734539E+02  0.67362586249E+02  0.89640178880E+02  0.00000000000E+00 0. -1.
        -12    1    6    6    0    0 -0.88591084547E+01 -0.12467785405E+02  0.13840521892E+03  0.13924774360E+03  0.00000000000E+00 0.  1.
</event>
<event>
12    1  0.8133506E-002  0.2602092E+03  0.7818608E-02  0.1107321E+00
         21   -1    0    0  501  502  0.00000000000E+00  0.00000000000E+00  0.14017306652E+03  0.14017306652E+03  0.00000000000E+00 0.  1.
         21   -1    0    0  502  503 -0.00000000000E+00 -0.00000000000E+00 -0.48962703084E+03  0.48962703084E+03  0.00000000000E+00 0. -1.
         -6    2    1    2    0  503  0.17028421263E+03 -0.89231322960E+02 -0.12834854096E+03  0.28833785660E+03  0.17235553230E+03 0.  0.
        -24    2    3    3    0    0  0.16119052263E+02 -0.64344231761E+02 -0.40312680425E+02  0.10900947982E+03  0.76537248977E+02 0.  0.
          6    2    1    2  501    0 -0.17028421263E+03  0.89231322960E+02 -0.22110542336E+03  0.34146224075E+03  0.17535652698E+03 0.  0.
         24    2    5    5    0    0 -0.11168752550E+03  0.28283291667E+01 -0.65432193737E+02  0.15396479144E+03  0.83316758383E+02 0.  0.
          5    1    5    5  501    0 -0.58596687134E+02  0.86402993794E+02 -0.15567322962E+03  0.18749744932E+03  0.47000000000E+01 0. -1.
        -11    1    6    6    0    0 -0.11669463917E+03  0.10633015922E+02 -0.76184082715E+02  0.13976664229E+03  0.00000000000E+00 0.  1.
         12    1    6    6    0    0  0.50071136680E+01 -0.78046867552E+01  0.10751888978E+02  0.14198149148E+02  0.00000000000E+00 0. -1.
         -5    1    3    3    0  503  0.15416516037E+03 -0.24887091200E+02 -0.88035860536E+02  0.17932837678E+03  0.47000000000E+01 0.  1.
         13    1    4    4    0    0  0.39199139202E+02 -0.12608567252E+02 -0.31129219051E+02  0.51619538559E+02  0.00000000000E+00 0. -1.
        -14    1    4    4    0    0 -0.23080086938E+02 -0.51735664508E+02 -0.91834613741E+01  0.57389941262E+02  0.00000000000E+00 0.  1.
</event>
<event>
12    1  0.8133506E-002  0.2021827E+03  0.7818608E-02  0.1148038E+00
         21   -1    0    0  503  502  0.00000000000E+00  0.00000000000E+00  0.34377664869E+02  0.34377664869E+02  0.00000000000E+00 0. -1.
         21   -1    0    0  501  503 -0.00000000000E+00 -0.00000000000E+00 -0.18114154311E+04  0.18114154311E+04  0.00000000000E+00 0. -1.
          6    2    1    2  501    0  0.10321701738E+03  0.27206551002E+02 -0.14301465342E+04  0.14442817139E+04  0.17098716540E+03 0.  0.
         24    2    3    3    0    0  0.54418791298E+02  0.81321759368E+02 -0.10226206370E+04  0.10302658089E+04  0.78230662327E+02 0.  0.
         -6    2    1    2    0  502 -0.10321701738E+03 -0.27206551002E+02 -0.34689123197E+03  0.40151138201E+03  0.17170880574E+03 0.  0.
        -24    2    5    5    0    0 -0.52594927101E+01  0.14843161431E+02 -0.84278879016E+02  0.11804852222E+03  0.81145193602E+02 0.  0.
          5    1    3    3  501    0  0.48798226085E+02 -0.54115208366E+02 -0.40752589726E+03  0.41401590499E+03  0.47000000000E+01 0. -1.
        -11    1    4    4    0    0 -0.46413900762E+01  0.36521005170E+02 -0.60484742088E+03  0.60596677208E+03  0.00000000000E+00 0.  1.
         12    1    4    4    0    0  0.59060181374E+02  0.44800754198E+02 -0.41777321608E+03  0.42429903685E+03  0.00000000000E+00 0. -1.
         -5    1    5    5    0  502 -0.97957524672E+02 -0.42049712433E+02 -0.26261235296E+03  0.28346285979E+03  0.47000000000E+01 0.  1.
         13    1    6    6    0    0 -0.42350116276E+02  0.20717046502E+01 -0.34452701024E+02  0.54633441376E+02  0.00000000000E+00 0. -1.
        -14    1    6    6    0    0  0.37090623566E+02  0.12771456780E+02 -0.49826177992E+02  0.63415080841E+02  0.00000000000E+00 0.  1.
</event>
<event>
12    1  0.8133506E-002  0.1846407E+03  0.7818608E-02  0.1163571E+00
         21   -1    0    0  501  502  0.00000000000E+00  0.00000000000E+00  0.30996068490E+03  0.30996068490E+03  0.00000000000E+00 0.  1.
         21   -1    0    0  502  503 -0.00000000000E+00 -0.00000000000E+00 -0.11724216097E+03  0.11724216097E+03  0.00000000000E+00 0.  1.
         -6    2    1    2    0  503  0.59232001348E+02 -0.20170426434E+02  0.41345125356E+02  0.18844336409E+03  0.17287627365E+03 0.  0.
        -24    2    3    3    0    0  0.27043682652E+02 -0.75625044140E+02  0.10891150894E+02  0.11730380374E+03  0.84800101014E+02 0.  0.
          6    2    1    2  501    0 -0.59232001348E+02  0.20170426434E+02  0.15137339858E+03  0.23875948178E+03  0.17371502024E+03 0.  0.
         24    2    5    5    0    0 -0.22549602468E+02  0.52530253872E+02  0.16125428585E+03  0.18863484959E+03  0.79449667275E+02 0.  0.
          5    1    5    5  501    0 -0.36682398881E+02 -0.32359827438E+02 -0.98808872723E+01  0.50124632195E+02  0.47000000000E+01 0. -1.
        -13    1    6    6    0    0  0.21109329961E+02 -0.29415759335E+01  0.14479185462E+02  0.25766324767E+02  0.00000000000E+00 0.  1.
         14    1    6    6    0    0 -0.43658932428E+02  0.55471829805E+02  0.14677510039E+03  0.16286852482E+03  0.00000000000E+00 0. -1.
         -5    1    3    3    0  503  0.32188318696E+02  0.55454617706E+02  0.30453974462E+02  0.71139560344E+02  0.47000000000E+01 0.  1.
         13    1    4    4    0    0 -0.11113263143E+01 -0.51804596773E+02 -0.31872230171E+02  0.60834121586E+02  0.00000000000E+00 0. -1.
        -14    1    4    4    0    0  0.28155008967E+02 -0.23820447367E+02  0.42763381066E+02  0.56469682156E+02  0.00000000000E+00 0.  1.
</event>
<event>
12    1  0.8133506E-002  0.2155614E+03  0.7818608E-02  0.1141247E+00
         21   -1    0    0  501  502  0.00000000000E+00  0.00000000000E+00  0.34348920991E+03  0.34348920991E+03  0.00000000000E+00 0.  1.
         21   -1    0    0  502  503 -0.00000000000E+00 -0.00000000000E+00 -0.12431682978E+03  0.12431682978E+03  0.00000000000E+00 0. -1.
         -6    2    1    2    0  503 -0.91877246006E+02  0.14838698952E+02  0.80987855190E+02  0.21175590789E+03  0.17210437682E+03 0.  0.
        -24    2    3    3    0    0 -0.10282459011E+02 -0.43776568650E+02  0.57007720903E+02  0.10836057095E+03  0.80436410713E+02 0.  0.
          6    2    1    2  501    0  0.91877246006E+02 -0.14838698952E+02  0.13818452494E+03  0.25605013180E+03  0.19443531505E+03 0.  0.
         24    2    5    5    0    0  0.12598199927E+03 -0.27420396731E+02  0.15485555481E+03  0.21578294229E+03  0.77192571115E+02 0.  0.
          5    1    5    5  501    0 -0.34104753260E+02  0.12581697779E+02 -0.16671029860E+02  0.40267189504E+02  0.47000000000E+01 0. -1.
        -13    1    6    6    0    0  0.91867025652E+02 -0.20822733650E+02  0.15459785092E+03  0.18103489207E+03  0.00000000000E+00 0.  1.
         14    1    6    6    0    0  0.34114973615E+02 -0.65976630807E+01  0.25770388399E+00  0.34748050221E+02  0.00000000000E+00 0. -1.
         -5    1    3    3    0  503 -0.81594786995E+02  0.58615267602E+02  0.23980134287E+02  0.10339533694E+03  0.47000000000E+01 0.  1.
         11    1    4    4    0    0 -0.23910185348E+02 -0.23784426690E+02 -0.11558241031E+02  0.35650930592E+02  0.00000000000E+00 0. -1.
        -12    1    4    4    0    0  0.13627726337E+02 -0.19992141960E+02  0.68565961935E+02  0.72709640360E+02  0.00000000000E+00 0.  1.
</event>
<event>
12    1  0.8133506E-002  0.2323106E+03  0.7818608E-02  0.1125501E+00
         21   -1    0    0  501  502  0.00000000000E+00  0.00000000000E+00  0.51333777948E+03  0.51333777948E+03  0.00000000000E+00 0. -1.
         21   -1    0    0  502  503 -0.00000000000E+00 -0.00000000000E+00 -0.12734306801E+03  0.12734306801E+03  0.00000000000E+00 0. -1.
         -6    2    1    2    0  503  0.98916698492E+01 -0.15193380545E+03  0.56486386326E+02  0.23907937682E+03  0.17546085093E+03 0.  0.
        -24    2    3    3    0    0 -0.39554982178E+02 -0.13205840593E+03 -0.13056710326E+01  0.16032650515E+03  0.81846589933E+02 0.  0.
          6    2    1    2  501    0 -0.98916698492E+01  0.15193380545E+03  0.32950832514E+03  0.40160147067E+03  0.17183212311E+03 0.  0.
         24    2    5    5    0    0 -0.39933533675E+02  0.79785493136E+02  0.88764176929E+02  0.14844593063E+03  0.78719141185E+02 0.  0.
          5    1    5    5  501    0  0.30041863826E+02  0.72148312317E+02  0.24074414821E+03  0.25315554004E+03  0.47000000000E+01 0. -1.
        -11    1    6    6    0    0 -0.26969553352E+02  0.83322381768E+02  0.98536107415E+02  0.13183072698E+03  0.00000000000E+00 0.  1.
         12    1    6    6    0    0 -0.12963980323E+02 -0.35368886323E+01 -0.97719304858E+01  0.16615203653E+02  0.00000000000E+00 0. -1.
         -5    1    3    3    0  503  0.49446652027E+02 -0.19875399519E+02  0.57792057358E+02  0.78752871671E+02  0.47000000000E+01 0.  1.
         11    1    4    4    0    0  0.19138637060E+02 -0.21716018047E+02 -0.18224013047E+02  0.34205080323E+02  0.00000000000E+00 0. -1.
        -12    1    4    4    0    0 -0.58693619238E+02 -0.11034238789E+03  0.16918342014E+02  0.12612142483E+03  0.00000000000E+00 0.  1.
</event>
<event>
12    1  0.8133506E-002  0.1823971E+03  0.7818608E-02  0.1166452E+00
         21   -1    0    0  501  502  0.00000000000E+00  0.00000000000E+00  0.21678111775E+03  0.21678111775E+03  0.00000000000E+00 0.  1.
         21   -1    0    0  502  503 -0.00000000000E+00 -0.00000000000E+00 -0.11433312150E+04  0.11433312150E+04  0.00000000000E+00 0.  1.
         -6    2    1    2    0  503  0.38857803649E+02  0.42817234842E+02 -0.10964300522E+04  0.11108576625E+04  0.16882725665E+03 0.  0.
        -24    2    3    3    0    0  0.76463669326E+02  0.70190020090E+02 -0.75901259982E+03  0.77021694614E+03  0.79753907738E+02 0.  0.
          6    2    1    2  501    0 -0.38857803649E+02 -0.42817234842E+02  0.16987995493E+03  0.24925467022E+03  0.17298973100E+03 0.  0.
         24    2    5    5    0    0  0.13081974643E+02 -0.84241625719E+02  0.10479251174E+03  0.15613009779E+03  0.78277374473E+02 0.  0.
          5    1    5    5  501    0 -0.51939778292E+02  0.41424390877E+02  0.65087443192E+02  0.93124572428E+02  0.47000000000E+01 0. -1.
        -11    1    6    6    0    0 -0.29374382389E+02 -0.27576163588E+02  0.18024770272E+02  0.44138322151E+02  0.00000000000E+00 0.  1.
         12    1    6    6    0    0  0.42456357032E+02 -0.56665462131E+02  0.86767741469E+02  0.11199177564E+03  0.00000000000E+00 0. -1.
         -5    1    3    3    0  503 -0.37605865676E+02 -0.27372785248E+02 -0.33741745234E+03  0.34064071637E+03  0.47000000000E+01 0.  1.
         11    1    4    4    0    0 -0.13584577044E+02  0.28614466010E+02 -0.17580024495E+03  0.17863105700E+03  0.00000000000E+00 0. -1.
        -12    1    4    4    0    0  0.90048246369E+02  0.41575554080E+02 -0.58321235486E+03  0.59158588914E+03  0.00000000000E+00 0.  1.
</event>
<event>
12    1  0.8133506E-002  0.1941794E+03  0.7818608E-02  0.1155517E+00
         21   -1    0    0  501  502  0.00000000000E+00  0.00000000000E+00  0.59429463644E+03  0.59429463644E+03  0.00000000000E+00 0.  1.
         21   -1    0    0  502  503 -0.00000000000E+00 -0.00000000000E+00 -0.67131943447E+02  0.67131943447E+02  0.00000000000E+00 0.  1.
         -6    2    1    2    0  503 -0.80661986638E+02 -0.75636633776E+01  0.17718315872E+03  0.26286786063E+03  0.17647117421E+03 0.  0.
        -24    2    3    3    0    0 -0.38668217590E+02 -0.36676917300E+02  0.18566477704E+03  0.21085741896E+03  0.84551844361E+02 0.  0.
          6    2    1    2  501    0  0.80661986638E+02  0.75636633776E+01  0.34997953427E+03  0.39855871926E+03  0.17262622394E+03 0.  0.
         24    2    5    5    0    0 -0.17500038068E+01  0.50692956897E+02  0.14196054613E+03  0.17064237154E+03  0.79957388116E+02 0.  0.
          5    1    5    5  501    0  0.82411990445E+02 -0.43129293520E+02  0.20801898815E+03  0.22791634772E+03  0.47000000000E+01 0. -1.
        -13    1    6    6    0    0  0.22955997293E+02  0.50458094411E+02  0.47492471283E+02  0.72996793983E+02  0.00000000000E+00 0.  1.
         14    1    6    6    0    0 -0.24706001100E+02  0.23486248619E+00  0.94468074845E+02  0.97645577553E+02  0.00000000000E+00 0. -1.
         -5    1    3    3    0  503 -0.41993769048E+02  0.29113253923E+02 -0.84816183224E+01  0.52010441665E+02  0.47000000000E+01 0.  1.
         13    1    4    4    0    0 -0.38631995176E+01  0.26666416820E+02  0.39724033492E+02  0.48000218056E+02  0.00000000000E+00 0. -1.
        -14    1    4    4    0    0 -0.34805018073E+02 -0.63343334121E+02  0.14594074355E+03  0.16285720091E+03  0.00000000000E+00 0.  1.
</event>
<event>
12    1  0.8133506E-002  0.1710448E+03  0.7818608E-02  0.1176988E+00
         21   -1    0    0  503  502  0.00000000000E+00  0.00000000000E+00  0.32981759692E+02  0.32981759692E+02  0.00000000000E+00 0.  1.
         21   -1    0    0  501  503 -0.00000000000E+00 -0.00000000000E+00 -0.11968231826E+04  0.11968231826E+04  0.00000000000E+00 0.  1.
          6    2    1    2  501    0 -0.27164175532E+02  0.11676601091E+02 -0.26791392402E+03  0.31785876493E+03  0.16846984393E+03 0.  0.
         24    2    3    3    0    0  0.35126222480E+02  0.39894799177E+02 -0.19825354959E+03  0.22012945432E+03  0.79542820071E+02 0.  0.
         -6    2    1    2    0  502  0.27164175532E+02 -0.11676601091E+02 -0.89592749892E+03  0.91194617739E+03  0.16758732557E+03 0.  0.
        -24    2    5    5    0    0 -0.13453350240E+02  0.50254710662E+02 -0.43770158952E+03  0.44774972671E+03  0.78680415152E+02 0.  0.
          5    1    3    3  501    0 -0.62290398012E+02 -0.28218198086E+02 -0.69660374424E+02  0.97729310612E+02  0.47000000000E+01 0. -1.
        -11    1    4    4    0    0 -0.11020570813E+02 -0.21061471714E+01 -0.11770692791E+03  0.11824047410E+03  0.00000000000E+00 0.  1.
         12    1    4    4    0    0  0.46146793293E+02  0.42000946348E+02 -0.80546621678E+02  0.10188898021E+03  0.00000000000E+00 0. -1.
         -5    1    5    5    0  502  0.40617525773E+02 -0.61931311753E+02 -0.45822590941E+03  0.46419645068E+03  0.47000000000E+01 0.  1.
         13    1    6    6    0    0 -0.27878932402E+02 -0.12036811714E+02 -0.14507259884E+03  0.14821666115E+03  0.00000000000E+00 0. -1.
        -14    1    6    6    0    0  0.14425582162E+02  0.62291522376E+02 -0.29262899068E+03  0.29953306556E+03  0.00000000000E+00 0.  1.
</event>
<event>
12    1  0.8133506E-002  0.2637126E+03  0.7818608E-02  0.1104970E+00
         21   -1    0    0  501  502  0.00000000000E+00  0.00000000000E+00  0.43833576157E+03  0.43833576157E+03  0.00000000000E+00 0. -1.
         21   -1    0    0  502  503 -0.00000000000E+00 -0.00000000000E+00 -0.15850489044E+03  0.15850489044E+03  0.00000000000E+00 0.  1.
         -6    2    1    2    0  503 -0.19954283822E+03 -0.19260002306E+02  0.14019734266E+03  0.29844187021E+03  0.17095017705E+03 0.  0.
        -24    2    3    3    0    0 -0.29285385130E+02  0.75250150908E+01  0.65923173070E+02  0.11070860263E+03  0.83643710548E+02 0.  0.
          6    2    1    2  501    0  0.19954283822E+03  0.19260002306E+02  0.13963352847E+03  0.29839878179E+03  0.17133598201E+03 0.  0.
         24    2    5    5    0    0  0.36141291305E+02 -0.13003202828E+02  0.24980559686E+02  0.96140597311E+02  0.84520470113E+02 0.  0.
          5    1    5    5  501    0  0.16340154692E+03  0.32263205134E+02  0.11465296878E+03  0.20225818448E+03  0.47000000000E+01 0. -1.
        -11    1    6    6    0    0  0.62316688400E+02  0.23417603395E+01  0.19234134726E+02  0.65259523698E+02  0.00000000000E+00 0.  1.
         12    1    6    6    0    0 -0.26175397095E+02 -0.15344963168E+02  0.57464249598E+01  0.30881073613E+02  0.00000000000E+00 0. -1.
         -5    1    3    3    0  503 -0.17025745309E+03 -0.26785017396E+02  0.74274169588E+02  0.18773326758E+03  0.47000000000E+01 0.  1.
         13    1    4    4    0    0 -0.27873139447E+02  0.63580325145E+01  0.85959328410E+02  0.90588865876E+02  0.00000000000E+00 0. -1.
        -14    1    4    4    0    0 -0.14122456832E+01  0.11669825763E+01 -0.20036155340E+02  0.20119736753E+02  0.00000000000E+00 0.  1.
</event>
<event>
12    1  0.8133506E-002  0.2910942E+03  0.7818608E-02  0.1089968E+00
         21   -1    0    0  501  502  0.00000000000E+00  0.00000000000E+00  0.50874416774E+03  0.50874416774E+03  0.00000000000E+00 0.  1.
         21   -1    0    0  502  503 -0.00000000000E+00 -0.00000000000E+00 -0.26786563931E+03  0.26786563931E+03  0.00000000000E+00 0. -1.
         -6    2    1    2    0  503  0.26116661817E+02  0.23071179420E+03 -0.11914659108E+03  0.31453420112E+03  0.17557289512E+03 0.  0.
        -24    2    3    3    0    0  0.47391149359E+02  0.24231809307E+03 -0.12651966442E+03  0.28877061822E+03  0.80107834790E+02 0.  0.
          6    2    1    2  501    0 -0.26116661817E+02 -0.23071179420E+03  0.36002511951E+03  0.46207560594E+03  0.17316398851E+03 0.  0.
         24    2    5    5    0    0 -0.26227325776E+02 -0.31098271599E+02  0.10280692439E+03  0.13645487479E+03  0.79973083209E+02 0.  0.
          5    1    5    5  501    0  0.11066395941E+00 -0.19961352260E+03  0.25721819513E+03  0.32562073115E+03  0.47000000000E+01 0. -1.
        -13    1    6    6    0    0 -0.17402619736E+01 -0.37838887982E+02  0.10434785801E+03  0.11101029424E+03  0.00000000000E+00 0.  1.
         14    1    6    6    0    0 -0.24487063802E+02  0.67406163833E+01 -0.15409336252E+01  0.25444580549E+02  0.00000000000E+00 0. -1.
         -5    1    3    3    0  503 -0.21274487542E+02 -0.11606298865E+02  0.73730733405E+01  0.25763582903E+02  0.47000000000E+01 0.  1.
         11    1    4    4    0    0  0.37354492596E+02  0.23961948393E+03 -0.10381438222E+03  0.26379969892E+03  0.00000000000E+00 0. -1.
        -12    1    4    4    0    0  0.10036656762E+02  0.26986091322E+01 -0.22705282206E+02  0.24970919291E+02  0.00000000000E+00 0.  1.
</event>
<event>
12    1  0.8133506E-002  0.2071515E+03  0.7818608E-02  0.1143864E+00
         21   -1    0    0  503  502  0.00000000000E+00  0.00000000000E+00  0.78641105055E+03  0.78641105055E+03  0.00000000000E+00 0. -1.
         21   -1    0    0  501  503 -0.00000000000E+00 -0.00000000000E+00 -0.40090217866E+03  0.40090217866E+03  0.00000000000E+00 0. -1.
          6    2    1    2  501    0  0.89947286310E+02 -0.73404623203E+02 -0.35905436868E+03  0.41447031917E+03  0.17142593964E+03 0.  0.
         24    2    3    3    0    0  0.44688094781E+02 -0.11085917607E+02 -0.71369072718E+02  0.11661643721E+03  0.79911985975E+02 0.  0.
         -6    2    1    2    0  502 -0.89947286310E+02  0.73404623203E+02  0.74456324057E+03  0.77284291003E+03  0.17156045975E+03 0.  0.
        -24    2    5    5    0    0 -0.42041803060E+02 -0.17732958002E+02  0.50944778195E+03  0.51612835470E+03  0.69061313280E+02 0.  0.
          5    1    3    3  501    0  0.45259191529E+02 -0.62318705595E+02 -0.28768529597E+03  0.29785388196E+03  0.47000000000E+01 0. -1.
        -11    1    4    4    0    0  0.62585709827E+01 -0.46041487446E+01 -0.76866599682E+02  0.77258281388E+02  0.00000000000E+00 0.  1.
         12    1    4    4    0    0  0.38429523798E+02 -0.64817688628E+01  0.54975269640E+01  0.39358155821E+02  0.00000000000E+00 0. -1.
         -5    1    5    5    0  502 -0.47905483250E+02  0.91137581204E+02  0.23511545863E+03  0.25671455533E+03  0.47000000000E+01 0.  1.
         13    1    6    6    0    0 -0.38768392463E+02  0.11997988887E+02  0.41682254826E+03  0.41879347742E+03  0.00000000000E+00 0. -1.
        -14    1    6    6    0    0 -0.32734105971E+01 -0.29730946889E+02  0.92625233690E+02  0.97334877284E+02  0.00000000000E+00 0.  1.
</event>
<event>
12    1  0.8133506E-002  0.1759070E+03  0.7818608E-02  0.1171970E+00
         21   -1    0    0  501  502  0.00000000000E+00  0.00000000000E+00  0.16473602236E+04  0.16473602236E+04  0.00000000000E+00 0.  1.
         21   -1    0    0  502  503 -0.00000000000E+00 -0.00000000000E+00 -0.10309013297E+03  0.10309013297E+03  0.00000000000E+00 0. -1.
         -6    2    1    2    0  503 -0.35693680346E+02 -0.51257025111E+01 -0.19874606329E+02  0.17644530756E+03  0.17157399261E+03 0.  0.
        -24    2    3    3    0    0  0.31855602120E+02  0.31814343273E+02 -0.12308567016E+02  0.98941710899E+02  0.87241214511E+02 0.  0.
          6    2    1    2  501    0  0.35693680346E+02  0.51257025111E+01  0.15641446969E+04  0.15740050490E+04  0.17217128001E+03 0.  0.
         24    2    5    5    0    0  0.62276969410E+02 -0.29552356901E+01  0.54190541598E+03  0.55137744798E+03  0.80426711594E+02 0.  0.
          5    1    5    5  501    0 -0.26583289064E+02  0.80809382012E+01  0.10222392809E+04  0.10226276010E+04  0.47000000000E+01 0. -1.
        -11    1    6    6    0    0 -0.25143912711E+00 -0.22973332293E+02  0.29495812015E+03  0.29585153348E+03  0.00000000000E+00 0.  1.
         12    1    6    6    0    0  0.62528408538E+02  0.20018096603E+02  0.24694729582E+03  0.25552591450E+03  0.00000000000E+00 0. -1.
         -5    1    3    3    0  503 -0.67549282466E+02 -0.36940045784E+02 -0.75660393127E+01  0.77503596659E+02  0.47000000000E+01 0.  1.
         11    1    4    4    0    0  0.15391780857E+02  0.17950026256E+02 -0.50128783688E+02  0.55425673786E+02  0.00000000000E+00 0. -1.
        -12    1    4    4    0    0  0.16463821262E+02  0.13864317017E+02  0.37820216672E+02  0.43516037113E+02  0.00000000000E+00 0.  1.
</event>
<event>
12    1  0.8133506E-002  0.1763594E+03  0.7818608E-02  0.1171593E+00
         21   -1    0    0  503  502  0.00000000000E+00  0.00000000000E+00  0.14547334669E+03  0.14547334669E+03  0.00000000000E+00 0.  1.
         21   -1    0    0  501  503 -0.00000000000E+00 -0.00000000000E+00 -0.21648241217E+03  0.21648241217E+03  0.00000000000E+00 0.  1.
          6    2    1    2  501    0 -0.15941477181E+02 -0.34404125221E+02 -0.11780518811E+02  0.17675240830E+03  0.17223489393E+03 0.  0.
         24    2    3    3    0    0  0.16607535378E+02 -0.70619606768E+02  0.29531618489E+02  0.11272286816E+03  0.81064106874E+02 0.  0.
         -6    2    1    2    0  502  0.15941477181E+02  0.34404125221E+02 -0.59228546667E+02  0.18520335056E+03  0.17133150846E+03 0.  0.
        -24    2    5    5    0    0  0.45855577402E+02 -0.34501242300E+02 -0.21283824089E+02  0.10091399751E+03  0.80234431682E+02 0.  0.
          5    1    3    3  501    0 -0.32549012559E+02  0.36215481547E+02 -0.41312137300E+02  0.64029540140E+02  0.47000000000E+01 0. -1.
        -13    1    4    4    0    0 -0.26573434464E+02 -0.53793987292E+02  0.47945093295E+01  0.60190761813E+02  0.00000000000E+00 0.  1.
         14    1    4    4    0    0  0.43180969842E+02 -0.16825619476E+02  0.24737109160E+02  0.52532106343E+02  0.00000000000E+00 0. -1.
         -5    1    5    5    0  502 -0.29914100220E+02  0.68905367521E+02 -0.37944722579E+02  0.84289353045E+02  0.47000000000E+01 0.  1.
         13    1    6    6    0    0  0.36382405422E+02 -0.18890009037E+02  0.27138387674E+02  0.49163034398E+02  0.00000000000E+00 0. -1.
        -14    1    6    6    0    0  0.94731719799E+01 -0.15611233263E+02 -0.48422211763E+02  0.51750963115E+02  0.00000000000E+00 0.  1.
</event>
<event>
12    1  0.8133506E-002  0.2372587E+03  0.7818608E-02  0.1121678E+00
         21   -1    0    0  503  502  0.00000000000E+00  0.00000000000E+00  0.88863051953E+03  0.88863051953E+03  0.00000000000E+00 0. -1.
         21   -1    0    0  501  503 -0.00000000000E+00 -0.00000000000E+00 -0.64992095952E+02  0.64992095952E+02  0.00000000000E+00 0.  1.
          6    2    1    2  501    0  0.16295113648E+03  0.13786798697E+02  0.48953216542E+03  0.54399762494E+03  0.17189684774E+03 0.  0.
         24    2    3    3    0    0  0.42609744083E+02  0.60115535814E+02  0.24672058254E+03  0.26902861325E+03  0.77947937520E+02 0.  0.
         -6    2    1    2    0  502 -0.16295113648E+03 -0.13786798697E+02  0.33410625816E+03  0.40962499054E+03  0.17152985873E+03 0.  0.
        -24    2    5    5    0    0 -0.11984426213E+03 -0.60928290611E+02  0.15867913107E+03  0.22287036598E+03  0.80107612821E+02 0.  0.
          5    1    3    3  501    0  0.12034139240E+03 -0.46328737118E+02  0.24281158288E+03  0.27496901169E+03  0.47000000000E+01 0. -1.
        -11    1    4    4    0    0  0.54015931216E+02  0.12221334919E+02  0.15991180038E+03  0.16923021525E+03  0.00000000000E+00 0.  1.
         12    1    4    4    0    0 -0.11406187133E+02  0.47894200895E+02  0.86808782156E+02  0.99798398002E+02  0.00000000000E+00 0. -1.
         -5    1    5    5    0  502 -0.43106874355E+02  0.47141491914E+02  0.17542712709E+03  0.18675462456E+03  0.47000000000E+01 0.  1.
         11    1    6    6    0    0 -0.77587098401E+02 -0.47446089136E+01  0.11901745466E+03  0.14215281800E+03  0.00000000000E+00 0. -1.
        -12    1    6    6    0    0 -0.42257163728E+02 -0.56183681698E+02  0.39661676405E+02  0.80717547973E+02  0.00000000000E+00 0.  1.
</event>
<event>
12    1  0.8133506E-002  0.2093990E+03  0.7818608E-02  0.1142197E+00
         21   -1    0    0  503  502  0.00000000000E+00  0.00000000000E+00  0.12907667650E+04  0.12907667650E+04  0.00000000000E+00 0.  1.
         21   -1    0    0  501  503 -0.00000000000E+00 -0.00000000000E+00 -0.12683111297E+03  0.12683111297E+03  0.00000000000E+00 0.  1.
          6    2    1    2  501    0 -0.10930738561E+03 -0.45189406581E+02 -0.25220845241E+02  0.21014555238E+03  0.17185713583E+03 0.  0.
         24    2    3    3    0    0  0.21527268811E+01  0.33900072168E+01  0.38354794438E+02  0.72860199626E+02  0.61817408966E+02 0.  0.
         -6    2    1    2    0  502  0.10930738561E+03  0.45189406581E+02  0.11891564973E+04  0.12074523256E+04  0.17279397133E+03 0.  0.
        -24    2    5    5    0    0 -0.10660511113E+02  0.18724056879E+02  0.36888537163E+03  0.37801907297E+03  0.79735596322E+02 0.  0.
          5    1    3    3  501    0 -0.11146011249E+03 -0.48579413798E+02 -0.63575639679E+02  0.13728535275E+03  0.47000000000E+01 0. -1.
        -11    1    4    4    0    0 -0.18482824837E+02  0.23494132053E+01 -0.93698233073E+01  0.20854930956E+02  0.00000000000E+00 0.  1.
         12    1    4    4    0    0  0.20635551718E+02  0.10405940115E+01  0.47724617745E+02  0.52005268671E+02  0.00000000000E+00 0. -1.
         -5    1    5    5    0  502  0.11996789672E+03  0.26465349703E+02  0.82027112563E+03  0.82943325260E+03  0.47000000000E+01 0.  1.
         13    1    6    6    0    0 -0.23771791082E+01 -0.25343141270E+02  0.24407484557E+03  0.24539856567E+03  0.00000000000E+00 0. -1.
        -14    1    6    6    0    0 -0.82833320051E+01  0.44067198149E+02  0.12481052606E+03  0.13262050730E+03  0.00000000000E+00 0.  1.
</event>
<event>
12    1  0.8133506E-002  0.2616687E+03  0.7818608E-02  0.1106271E+00
         21   -1    0    0  503  502  0.00000000000E+00  0.00000000000E+00  0.48413116915E+03  0.48413116915E+03  0.00000000000E+00 0.  1.
         21   -1    0    0  501  503 -0.00000000000E+00 -0.00000000000E+00 -0.14811676242E+03  0.14811676242E+03  0.00000000000E+00 0. -1.
          6    2    1    2  501    0 -0.19471674217E+03  0.24714852268E+02  0.98320813292E+02  0.27873876236E+03  0.17176402916E+03 0.  0.
         24    2    3    3    0    0 -0.19399044453E+03  0.17382016357E+02  0.12893792610E+03  0.24689860552E+03  0.79996909681E+02 0.  0.
         -6    2    1    2    0  502  0.19471674217E+03 -0.24714852268E+02  0.23769359343E+03  0.35350916922E+03  0.17304639482E+03 0.  0.
        -24    2    5    5    0    0  0.21741802291E+03 -0.51873126584E+01  0.20993247442E+03  0.31240633866E+03  0.78921300831E+02 0.  0.
          5    1    3    3  501    0 -0.72629763352E+00  0.73328359105E+01 -0.30617112808E+02  0.31840156837E+02  0.47000000000E+01 0. -1.
        -13    1    4    4    0    0 -0.95433229838E+02  0.48463238838E+02  0.70710539003E+02  0.12828159339E+03  0.00000000000E+00 0.  1.
         14    1    4    4    0    0 -0.98557214694E+02 -0.31081222481E+02  0.58227387096E+02  0.11861701213E+03  0.00000000000E+00 0. -1.
         -5    1    5    5    0  502 -0.22701280741E+02 -0.19527539609E+02  0.27761119015E+02  0.41102830553E+02  0.47000000000E+01 0.  1.
         11    1    6    6    0    0  0.16672069187E+03 -0.37113355892E+02  0.14492235082E+03  0.22399928136E+03  0.00000000000E+00 0. -1.
        -12    1    6    6    0    0  0.50697331038E+02  0.31926043233E+02  0.65010123595E+02  0.88407057301E+02  0.00000000000E+00 0.  1.
</event>
<event>
12    1  0.8133506E-002  0.2037572E+03  0.7818608E-02  0.1146632E+00
         21   -1    0    0  501  502  0.00000000000E+00  0.00000000000E+00  0.16706172088E+03  0.16706172088E+03  0.00000000000E+00 0. -1.
         21   -1    0    0  502  503 -0.00000000000E+00 -0.00000000000E+00 -0.24873498540E+03  0.24873498540E+03  0.00000000000E+00 0.  1.
         -6    2    1    2    0  503  0.53409593451E+02  0.94875663759E+02 -0.32875725298E+02  0.20639233779E+03  0.17222951994E+03 0.  0.
        -24    2    3    3    0    0  0.91352667630E+02  0.31077743029E+02  0.69578886931E+00  0.12478971448E+03  0.79125550388E+02 0.  0.
          6    2    1    2  501    0 -0.53409593451E+02 -0.94875663759E+02 -0.48797539228E+02  0.20940436848E+03  0.17209013179E+03 0.  0.
         24    2    5    5    0    0 -0.42119629721E+02 -0.55921187081E+02  0.38405187930E+02  0.11311667375E+03  0.80119791856E+02 0.  0.
          5    1    5    5  501    0 -0.11289963730E+02 -0.38954476678E+02 -0.87202727158E+02  0.96287694738E+02  0.47000000000E+01 0. -1.
        -11    1    6    6    0    0 -0.29175056258E+02 -0.66223401755E+02  0.54069182703E+02  0.90333821827E+02  0.00000000000E+00 0.  1.
         12    1    6    6    0    0 -0.12944573463E+02  0.10302214674E+02 -0.15663994773E+02  0.22782851919E+02  0.00000000000E+00 0. -1.
         -5    1    3    3    0  503 -0.37943074179E+02  0.63797920729E+02 -0.33571514168E+02  0.81602623310E+02  0.47000000000E+01 0.  1.
         13    1    4    4    0    0  0.63077697505E+01  0.25058748717E+02 -0.24785451584E+02  0.35805690284E+02  0.00000000000E+00 0. -1.
        -14    1    4    4    0    0  0.85044897879E+02  0.60189943121E+01  0.25481240454E+02  0.88984024200E+02  0.00000000000E+00 0.  1.
</event>
<event>
12    1  0.8133506E-002  0.3922672E+03  0.7818608E-02  0.1046492E+00
         21   -1    0    0  501  502  0.00000000000E+00  0.00000000000E+00  0.34415632565E+03  0.34415632565E+03  0.00000000000E+00 0.  1.
         21   -1    0    0  502  503 -0.00000000000E+00 -0.00000000000E+00 -0.51380747050E+03  0.51380747050E+03  0.00000000000E+00 0. -1.
         -6    2    1    2    0  503 -0.26742998774E+03 -0.23042437959E+03 -0.23941612204E+03  0.45955810648E+03  0.17105373626E+03 0.  0.
        -24    2    3    3    0    0 -0.26921188041E+03 -0.24181461566E+03 -0.20592240454E+03  0.42382532418E+03  0.79211891930E+02 0.  0.
          6    2    1    2  501    0  0.26742998774E+03  0.23042437959E+03  0.69764977182E+02  0.39840568967E+03  0.17101388384E+03 0.  0.
         24    2    5    5    0    0  0.11669888556E+03  0.43978426244E+02 -0.98203798145E+01  0.14574410230E+03  0.74780823939E+02 0.  0.
          5    1    5    5  501    0  0.15073110218E+03  0.18644595334E+03  0.79585356997E+02  0.25266158737E+03  0.47000000000E+01 0. -1.
        -11    1    6    6    0    0  0.17660402896E+02 -0.20106600617E+02  0.36678339853E+01  0.27011446184E+02  0.00000000000E+00 0.  1.
         12    1    6    6    0    0  0.99038482667E+02  0.64085026861E+02 -0.13488213800E+02  0.11873265612E+03  0.00000000000E+00 0. -1.
         -5    1    3    3    0  503  0.17818926682E+01  0.11390236070E+02 -0.33493717497E+02  0.35732782301E+02  0.47000000000E+01 0.  1.
         13    1    4    4    0    0 -0.25580403563E+02 -0.56500438072E+02 -0.53339283361E+02  0.81803029884E+02  0.00000000000E+00 0. -1.
        -14    1    4    4    0    0 -0.24363147685E+03 -0.18531417759E+03 -0.15258312118E+03  0.34202229430E+03  0.00000000000E+00 0.  1.
</event>
<event>
12    1  0.8133506E-002  0.3276774E+03  0.7818608E-02  0.1072209E+00
         21   -1    0    0  501  502  0.00000000000E+00  0.00000000000E+00  0.28775307981E+03  0.28775307981E+03  0.00000000000E+00 0. -1.
         21   -1    0    0  502  503 -0.00000000000E+00 -0.00000000000E+00 -0.39849053413E+03  0.39849053413E+03  0.00000000000E+00 0. -1.
         -6    2    1    2    0  503  0.19011377059E+03 -0.20410156914E+03 -0.14257905235E+03  0.35702281333E+03  0.17127698847E+03 0.  0.
        -24    2    3    3    0    0  0.10299936612E+03 -0.13499138815E+03 -0.15896820227E+03  0.24452467637E+03  0.75431317955E+02 0.  0.
          6    2    1    2  501    0 -0.19011377059E+03  0.20410156914E+03  0.31841598019E+02  0.32922080061E+03  0.17196439136E+03 0.  0.
         24    2    5    5    0    0 -0.14913371110E+03  0.18254463213E+03 -0.30815404517E+02  0.25116917170E+03  0.81073775959E+02 0.  0.
          5    1    5    5  501    0 -0.40980059490E+02  0.21556937004E+02  0.62657002536E+02  0.78051628911E+02  0.47000000000E+01 0. -1.
        -11    1    6    6    0    0 -0.13626655970E+02  0.14439320536E+02 -0.29117618044E+02  0.35242239018E+02  0.00000000000E+00 0.  1.
         12    1    6    6    0    0 -0.13550705513E+03  0.16810531160E+03 -0.16977864734E+01  0.21592693268E+03  0.00000000000E+00 0. -1.
         -5    1    3    3    0  503  0.87114404474E+02 -0.69110180991E+02  0.16389149924E+02  0.11249813696E+03  0.47000000000E+01 0.  1.
         13    1    4    4    0    0  0.44360165776E+02 -0.11594926378E+03 -0.10592684988E+03  0.16319483326E+03  0.00000000000E+00 0. -1.
        -14    1    4    4    0    0  0.58639200341E+02 -0.19042124370E+02 -0.53041352395E+02  0.81329843114E+02  0.00000000000E+00 0.  1.
</event>
<event>
12    1  0.8133506E-002  0.2425955E+03  0.7818608E-02  0.1118189E+00
         21   -1    0    0  503  502  0.00000000000E+00  0.00000000000E+00  0.27970109112E+03  0.27970109112E+03  0.00000000000E+00 0.  1.
         21   -1    0    0  501  503 -0.00000000000E+00 -0.00000000000E+00 -0.22024121285E+03  0.22024121285E+03  0.00000000000E+00 0.  1.
          6    2    1    2  501    0  0.15910459141E+03  0.62489731098E+02 -0.24691363300E+02  0.24316613576E+03  0.17117496505E+03 0.  0.
         24    2    3    3    0    0  0.61465987794E+02  0.77333574056E+02 -0.56113126358E+02  0.13942099716E+03  0.80814492312E+02 0.  0.
         -6    2    1    2    0  502 -0.15910459141E+03 -0.62489731098E+02  0.84151241569E+02  0.25677616821E+03  0.17214334609E+03 0.  0.
        -24    2    5    5    0    0 -0.11650047485E+03 -0.12537029837E+02  0.11731323854E+03  0.18307276833E+03  0.77612529989E+02 0.  0.
          5    1    3    3  501    0  0.97638603617E+02 -0.14843842958E+02  0.31421763058E+02  0.10374513860E+03  0.47000000000E+01 0. -1.
        -13    1    4    4    0    0  0.76282801773E+02  0.81886940001E+02 -0.51875225201E+02  0.12335143201E+03  0.00000000000E+00 0.  1.
         14    1    4    4    0    0 -0.14816813979E+02 -0.45533659450E+01 -0.42379011567E+01  0.16069565151E+02  0.00000000000E+00 0. -1.
         -5    1    5    5    0  502 -0.42604116556E+02 -0.49952701262E+02 -0.33161996967E+02  0.73703399879E+02  0.47000000000E+01 0.  1.
         11    1    6    6    0    0  0.24451531650E+00 -0.27721388472E-01 -0.99310742167E+01  0.99341225739E+01  0.00000000000E+00 0. -1.
        -12    1    6    6    0    0 -0.11674499017E+03 -0.12509308448E+02  0.12724431275E+03  0.17313864576E+03  0.00000000000E+00 0.  1.
</event>
<event>
12    1  0.8133506E-002  0.2121595E+03  0.7818608E-02  0.1140054E+00
         21   -1    0    0  501  502  0.00000000000E+00  0.00000000000E+00  0.93410138503E+03  0.93410138503E+03  0.00000000000E+00 0. -1.
         21   -1    0    0  502  503 -0.00000000000E+00 -0.00000000000E+00 -0.21423183601E+03  0.21423183601E+03  0.00000000000E+00 0. -1.
         -6    2    1    2    0  503 -0.10292600390E+03 -0.66351699792E+02 -0.14569763713E+03  0.25737029036E+03  0.17324939986E+03 0.  0.
        -24    2    3    3    0    0 -0.26256608344E+02  0.59557696366E+01 -0.12275107920E+03  0.14941103475E+03  0.80814288266E+02 0.  0.
          6    2    1    2  501    0  0.10292600390E+03  0.66351699792E+02  0.86556718614E+03  0.89096293068E+03  0.17208160794E+03 0.  0.
         24    2    5    5    0    0 -0.89001948071E+00  0.71151031036E+02  0.46593736007E+03  0.47801391667E+03  0.79601631080E+02 0.  0.
          5    1    5    5  501    0  0.10381602338E+03 -0.47993312436E+01  0.39962982607E+03  0.41294901401E+03  0.47000000000E+01 0. -1.
        -13    1    6    6    0    0  0.13031627612E+02  0.85314059104E+02  0.35721924002E+03  0.36749679923E+03  0.00000000000E+00 0.  1.
         14    1    6    6    0    0 -0.13921647092E+02 -0.14163028068E+02  0.10871812005E+03  0.11051711745E+03  0.00000000000E+00 0. -1.
         -5    1    3    3    0  503 -0.76669395553E+02 -0.72307469429E+02 -0.22946557929E+02  0.10795925560E+03  0.47000000000E+01 0.  1.
         11    1    4    4    0    0 -0.20220828365E+02 -0.21814123152E+02 -0.11660077715E+03  0.12033486236E+03  0.00000000000E+00 0. -1.
        -12    1    4    4    0    0 -0.60357799794E+01  0.27769892788E+02 -0.61503020487E+01  0.29076172388E+02  0.00000000000E+00 0.  1.
</event>
<event>
12    1  0.8133506E-002  0.2145560E+03  0.7818608E-02  0.1138274E+00
         21   -1    0    0  503  502  0.00000000000E+00  0.00000000000E+00  0.17472717595E+03  0.17472717595E+03  0.00000000000E+00 0.  1.
         21   -1    0    0  501  503 -0.00000000000E+00 -0.00000000000E+00 -0.37838767421E+03  0.37838767421E+03  0.00000000000E+00 0.  1.
          6    2    1    2  501    0  0.72567074975E+02  0.10477622813E+03 -0.25558490744E+03  0.33370337475E+03  0.17259854883E+03 0.  0.
         24    2    3    3    0    0  0.30179264006E+02  0.12581922222E+03 -0.13125993753E+03  0.20059318633E+03  0.79165589403E+02 0.  0.
         -6    2    1    2    0  502 -0.72567074975E+02 -0.10477622813E+03  0.51924409179E+02  0.21941147541E+03  0.17088362392E+03 0.  0.
        -24    2    5    5    0    0  0.12420069752E+02 -0.12052556553E+02 -0.49474269609E+01  0.81291998924E+02  0.79274143348E+02 0.  0.
          5    1    3    3  501    0  0.42387810968E+02 -0.21042994088E+02 -0.12432496991E+03  0.13311018842E+03  0.47000000000E+01 0. -1.
        -13    1    4    4    0    0 -0.72433869941E+01  0.10815275854E+03 -0.10848342069E+03  0.15335624669E+03  0.00000000000E+00 0.  1.
         14    1    4    4    0    0  0.37422651001E+02  0.17666463679E+02 -0.22776516836E+02  0.47236939634E+02  0.00000000000E+00 0. -1.
         -5    1    5    5    0  502 -0.84987144727E+02 -0.92723671575E+02  0.56871836140E+02  0.13811947649E+03  0.47000000000E+01 0.  1.
         13    1    6    6    0    0  0.12599997415E+02  0.28766208162E+02 -0.20618189157E+02  0.37568129990E+02  0.00000000000E+00 0. -1.
        -14    1    6    6    0    0 -0.17992766306E+00 -0.40818764714E+02  0.15670762196E+02  0.43723868934E+02  0.00000000000E+00 0.  1.
</event>
<event>
12    1  0.8133506E-002  0.1999124E+03  0.7818608E-02  0.1150077E+00
         21   -1    0    0  501  502  0.00000000000E+00  0.00000000000E+00  0.51197822783E+02  0.51197822783E+02  0.00000000000E+00 0.  1.
         21   -1    0    0  502  503 -0.00000000000E+00 -0.00000000000E+00 -0.90843620733E+03  0.90843620733E+03  0.00000000000E+00 0. -1.
         -6    2    1    2    0  503  0.81932203235E+02 -0.57510661618E+02 -0.61085833513E+03  0.64235167511E+03  0.17160246734E+03 0.  0.
        -24    2    3    3    0    0  0.21753258000E+02  0.10442351912E+02 -0.44614290279E+03  0.45422304586E+03  0.81809771579E+02 0.  0.
          6    2    1    2  501    0 -0.81932203235E+02  0.57510661618E+02 -0.24638004942E+03  0.31728235500E+03  0.17304508637E+03 0.  0.
         24    2    5    5    0    0 -0.40871075286E+02  0.10371044177E+03 -0.15744773886E+03  0.20887810335E+03  0.80087271512E+02 0.  0.
          5    1    5    5  501    0 -0.41061127949E+02 -0.46199780156E+02 -0.88932310567E+02  0.10840425166E+03  0.47000000000E+01 0. -1.
        -13    1    6    6    0    0  0.11447286627E+02  0.52867435596E+02 -0.29552823530E+02  0.61639074427E+02  0.00000000000E+00 0.  1.
         14    1    6    6    0    0 -0.52318361914E+02  0.50843006178E+02 -0.12789491533E+03  0.14723902892E+03  0.00000000000E+00 0. -1.
         -5    1    3    3    0  503  0.60178945235E+02 -0.67953013529E+02 -0.16471543233E+03  0.18812862926E+03  0.47000000000E+01 0.  1.
         13    1    4    4    0    0  0.25986899705E+02  0.11922485641E+01 -0.38568525862E+02  0.46521732557E+02  0.00000000000E+00 0. -1.
        -14    1    4    4    0    0 -0.42336417052E+01  0.92501033476E+01 -0.40757437693E+03  0.40770131330E+03  0.00000000000E+00 0.  1.
</event>
<event>
12    1  0.8133506E-002  0.2315559E+03  0.7818608E-02  0.1126028E+00
         21   -1    0    0  501  502  0.00000000000E+00  0.00000000000E+00  0.55255831582E+03  0.55255831582E+03  0.00000000000E+00 0. -1.
         21   -1    0    0  502  503 -0.00000000000E+00 -0.00000000000E+00 -0.10791606431E+03  0.10791606431E+03  0.00000000000E+00 0. -1.
         -6    2    1    2    0  503 -0.50138357947E+02 -0.14693456882E+03  0.11094940796E+03  0.25431054901E+03  0.16810848212E+03 0.  0.
        -24    2    3    3    0    0 -0.75955603476E+02 -0.40527999894E+02  0.48015081549E+02  0.12793132794E+03  0.81542652263E+02 0.  0.
          6    2    1    2  501    0  0.50138357947E+02  0.14693456882E+03  0.33369284355E+03  0.40616383112E+03  0.17179790867E+03 0.  0.
         24    2    5    5    0    0  0.61145245050E+02  0.19030839254E+02  0.16381877554E+03  0.19318541770E+03  0.79894308672E+02 0.  0.
          5    1    5    5  501    0 -0.11006887102E+02  0.12790372956E+03  0.16987406801E+03  0.21297841342E+03  0.47000000000E+01 0. -1.
        -11    1    6    6    0    0 -0.12530366165E+02 -0.16216767621E+02  0.27947455080E+02  0.34656224170E+02  0.00000000000E+00 0.  1.
         12    1    6    6    0    0  0.73675611214E+02  0.35247606874E+02  0.13587132046E+03  0.15852919353E+03  0.00000000000E+00 0. -1.
         -5    1    3    3    0  503  0.25817245528E+02 -0.10640656892E+03  0.62934326413E+02  0.12637922107E+03  0.47000000000E+01 0.  1.
         11    1    4    4    0    0 -0.33113906116E+02  0.22688423017E+02  0.28138790980E+02  0.49021290018E+02  0.00000000000E+00 0. -1.
        -12    1    4    4    0    0 -0.42841697360E+02 -0.63216422911E+02  0.19876290570E+02  0.78910037924E+02  0.00000000000E+00 0.  1.
</event>
<event>
12    1  0.8133506E-002  0.2238949E+03  0.7818608E-02  0.1131339E+00
         21   -1    0    0  503  502  0.00000000000E+00  0.00000000000E+00  0.83199516244E+03  0.83199516244E+03  0.00000000000E+00 0.  1.
         21   -1    0    0  501  503 -0.00000000000E+00 -0.00000000000E+00 -0.10067130395E+03  0.10067130395E+03  0.00000000000E+00 0.  1.
          6    2    1    2  501    0  0.52918782215E+02  0.13376840830E+03  0.67555174153E+02  0.23215395198E+03  0.16922579973E+03 0.  0.
         24    2    3    3    0    0  0.56857933019E+00  0.12736662164E+03  0.59740610272E+01  0.15093911277E+03  0.80773428591E+02 0.  0.
         -6    2    1    2    0  502 -0.52918782215E+02 -0.13376840830E+03  0.66376868434E+03  0.70051251441E+03  0.17156494971E+03 0.  0.
        -24    2    5    5    0    0 -0.76586908092E+02 -0.58994476997E+02  0.53812700794E+03  0.55232600411E+03  0.78341785412E+02 0.  0.
          5    1    3    3  501    0  0.52350202885E+02  0.64017866572E+01  0.61581113126E+02  0.81214839213E+02  0.47000000000E+01 0. -1.
        -11    1    4    4    0    0 -0.66252591721E+01  0.13713872930E+03  0.11141923896E+02  0.13775001852E+03  0.00000000000E+00 0.  1.
         12    1    4    4    0    0  0.71938385023E+01 -0.97721076582E+01 -0.51678628683E+01  0.13189094249E+02  0.00000000000E+00 0. -1.
         -5    1    5    5    0  502  0.23668125877E+02 -0.74773931303E+02  0.12564167640E+03  0.14818651030E+03  0.47000000000E+01 0.  1.
         11    1    6    6    0    0 -0.85542270882E+02 -0.69063210070E+02  0.45371855335E+03  0.46684872576E+03  0.00000000000E+00 0. -1.
        -12    1    6    6    0    0  0.89553627901E+01  0.10068733073E+02  0.84408454589E+02  0.85477278352E+02  0.00000000000E+00 0.  1.
</event>
<event>
12    1  0.8133506E-002  0.1961653E+03  0.7818608E-02  0.1153417E+00
         21   -1    0    0  503  502  0.00000000000E+00  0.00000000000E+00  0.58232114955E+03  0.58232114955E+03  0.00000000000E+00 0. -1.
         21   -1    0    0  501  503 -0.00000000000E+00 -0.00000000000E+00 -0.65487518718E+02  0.65487518718E+02  0.00000000000E+00 0. -1.
          6    2    1    2  501    0  0.25351251814E+02 -0.89875750318E+02  0.25317220740E+03  0.32027640379E+03  0.17251223656E+03 0.  0.
         24    2    3    3    0    0  0.83631475802E+02 -0.57818878416E+02  0.17377668449E+03  0.21659435808E+03  0.79859460519E+02 0.  0.
         -6    2    1    2    0  502 -0.25351251814E+02  0.89875750318E+02  0.26366142343E+03  0.32753226448E+03  0.17041039171E+03 0.  0.
        -24    2    5    5    0    0 -0.11587576978E+02  0.11021088580E+03  0.26998734163E+03  0.30174343509E+03  0.76650014299E+02 0.  0.
          5    1    3    3  501    0 -0.58280223989E+02 -0.32056871902E+02  0.79395522912E+02  0.10368204571E+03  0.47000000000E+01 0. -1.
        -11    1    4    4    0    0  0.16643295367E+02  0.17808990675E+02  0.58124363125E+02  0.63028573030E+02  0.00000000000E+00 0.  1.
         12    1    4    4    0    0  0.66988180436E+02 -0.75627869091E+02  0.11565232136E+03  0.15356578505E+03  0.00000000000E+00 0. -1.
         -5    1    5    5    0  502 -0.13763674836E+02 -0.20335135484E+02 -0.63259181952E+01  0.25788829387E+02  0.47000000000E+01 0.  1.
         11    1    6    6    0    0 -0.87159774894E+01  0.10354991768E+03  0.15549802543E+03  0.18702456958E+03  0.00000000000E+00 0. -1.
        -12    1    6    6    0    0 -0.28715994884E+01  0.66609681212E+01  0.11448931620E+03  0.11471886551E+03  0.00000000000E+00 0.  1.
</event>
<event>
12    1  0.8133506E-002  0.2165683E+03  0.7818608E-02  0.1136893E+00
         21   -1    0    0  501  502  0.00000000000E+00  0.00000000000E+00  0.11949026279E+03  0.11949026279E+03  0.00000000000E+00 0. -1.
         21   -1    0    0  502  503 -0.00000000000E+00 -0.00000000000E+00 -0.41501742002E+03  0.41501742002E+03  0.00000000000E+00 0.  1.
         -6    2    1    2    0  503 -0.45677402051E+02  0.12363787582E+03 -0.79484393983E+02  0.22860522863E+03  0.16902612897E+03 0.  0.
        -24    2    3    3    0    0  0.24766277832E+02  0.51409349988E+02 -0.81186936589E+02  0.12758908818E+03  0.80195803926E+02 0.  0.
          6    2    1    2  501    0  0.45677402051E+02 -0.12363787582E+03 -0.21604276324E+03  0.30590245418E+03  0.17184029368E+03 0.  0.
         24    2    5    5    0    0  0.73847919783E+02 -0.11571773884E+03 -0.98553167201E+02  0.18473231836E+03  0.74627021523E+02 0.  0.
          5    1    5    5  501    0 -0.28170517732E+02 -0.79201369770E+01 -0.11748959604E+03  0.12117013583E+03  0.47000000000E+01 0. -1.
        -13    1    6    6    0    0  0.45125905310E+02 -0.90594695095E+02 -0.10521842619E+03  0.14599542225E+03  0.00000000000E+00 0.  1.
         14    1    6    6    0    0  0.28722014473E+02 -0.25123043745E+02  0.66652589860E+01  0.38736896104E+02  0.00000000000E+00 0. -1.
         -5    1    3    3    0  503 -0.70443679883E+02  0.72228525828E+02  0.17025426057E+01  0.10101614044E+03  0.47000000000E+01 0.  1.
         11    1    4    4    0    0  0.10447243302E+02 -0.15836380307E+02  0.26603454683E+01  0.19157590450E+02  0.00000000000E+00 0. -1.
        -12    1    4    4    0    0  0.14319034529E+02  0.67245730295E+02 -0.83847282057E+02  0.10843149774E+03  0.00000000000E+00 0.  1.
</event>
<event>
12    1  0.8133506E-002  0.1819501E+03  0.7818608E-02  0.1166604E+00
         21   -1    0    0  503  502  0.00000000000E+00  0.00000000000E+00  0.86949979965E+03  0.86949979965E+03  0.00000000000E+00 0.  1.
         21   -1    0    0  501  503 -0.00000000000E+00 -0.00000000000E+00 -0.44719394965E+02  0.44719394965E+02  0.00000000000E+00 0.  1.
          6    2    1    2  501    0 -0.42915192388E+02  0.35127607840E+02  0.59349339151E+03  0.61994120832E+03  0.17034386819E+03 0.  0.
         24    2    3    3    0    0 -0.82372522713E+02  0.21506810811E+02  0.26277466453E+03  0.28656548424E+03  0.76298604371E+02 0.  0.
         -6    2    1    2    0  502  0.42915192388E+02 -0.35127607840E+02  0.23128701318E+03  0.29427798630E+03  0.17329220464E+03 0.  0.
        -24    2    5    5    0    0  0.92946259404E+02 -0.43600282779E+02  0.15017826975E+03  0.19848857067E+03  0.79399043982E+02 0.  0.
          5    1    3    3  501    0  0.39457330325E+02  0.13620797029E+02  0.33071872698E+03  0.33337572407E+03  0.47000000000E+01 0. -1.
        -13    1    4    4    0    0 -0.43276869993E+01  0.32615122224E+02  0.52032409511E+02  0.61561730905E+02  0.00000000000E+00 0.  1.
         14    1    4    4    0    0 -0.78044835713E+02 -0.11108311413E+02  0.21074225502E+03  0.22500375334E+03  0.00000000000E+00 0. -1.
         -5    1    5    5    0  502 -0.50031067016E+02  0.84726749389E+01  0.81108743425E+02  0.95789415634E+02  0.47000000000E+01 0.  1.
         11    1    6    6    0    0  0.71223401504E+01  0.19000776415E+02  0.43194069685E+02  0.47723001682E+02  0.00000000000E+00 0. -1.
        -12    1    6    6    0    0  0.85823919254E+02 -0.62601059194E+02  0.10698420007E+03  0.15076556899E+03  0.00000000000E+00 0.  1.
</event>
<event>
12    1  0.8133506E-002  0.1871665E+03  0.7818608E-02  0.1161100E+00
         21   -1    0    0  503  502  0.00000000000E+00  0.00000000000E+00  0.12868177555E+03  0.12868177555E+03  0.00000000000E+00 0. -1.
         21   -1    0    0  501  503 -0.00000000000E+00 -0.00000000000E+00 -0.27186768514E+03  0.27186768514E+03  0.00000000000E+00 0. -1.
          6    2    1    2  501    0  0.40819779215E+02  0.57519097208E+02 -0.71861594473E+02  0.20048786260E+03  0.17336837477E+03 0.  0.
         24    2    3    3    0    0  0.22099531926E+02 -0.14671544202E+02  0.14115683802E+02  0.86575094460E+02  0.81193293633E+02 0.  0.
         -6    2    1    2    0  502 -0.40819779215E+02 -0.57519097208E+02 -0.71324315117E+02  0.20006159808E+03  0.17309761461E+03 0.  0.
        -24    2    5    5    0    0 -0.54745790558E+02  0.26370903725E+02 -0.50310105924E+02  0.11233957670E+03  0.79978419508E+02 0.  0.
          5    1    3    3  501    0  0.18720247289E+02  0.72190641410E+02 -0.85977278275E+02  0.11391276814E+03  0.47000000000E+01 0. -1.
        -13    1    4    4    0    0 -0.14781580500E+02 -0.38344208541E+02  0.21725186561E+01  0.41152075137E+02  0.00000000000E+00 0.  1.
         14    1    4    4    0    0  0.36881112427E+02  0.23672664340E+02  0.11943165146E+02  0.45423019324E+02  0.00000000000E+00 0. -1.
         -5    1    5    5    0  502  0.13926011343E+02 -0.83890000933E+02 -0.21014209193E+02  0.87722021388E+02  0.47000000000E+01 0.  1.
         11    1    6    6    0    0 -0.51888324865E+02 -0.18795192796E+02 -0.27820103700E+02  0.61803039565E+02  0.00000000000E+00 0. -1.
        -12    1    6    6    0    0 -0.28574656929E+01  0.45166096521E+02 -0.22490002223E+02  0.50536537130E+02  0.00000000000E+00 0.  1.
</event>
<event>
12    1  0.8133506E-002  0.2172135E+03  0.7818608E-02  0.1136473E+00
         21   -1    0    0  501  502  0.00000000000E+00  0.00000000000E+00  0.44856017942E+03  0.44856017942E+03  0.00000000000E+00 0.  1.
         21   -1    0    0  502  503 -0.00000000000E+00 -0.00000000000E+00 -0.17629011680E+03  0.17629011680E+03  0.00000000000E+00 0.  1.
         -6    2    1    2    0  503 -0.16478559019E+02  0.12648871800E+03 -0.63541356119E+02  0.22631661826E+03  0.17581458720E+03 0.  0.
        -24    2    3    3    0    0  0.29740960842E+01  0.23618730256E+02 -0.87781395756E+02  0.11875124423E+03  0.76351783858E+02 0.  0.
          6    2    1    2  501    0  0.16478559019E+02 -0.12648871800E+03  0.33581141874E+03  0.39853367796E+03  0.17259445189E+03 0.  0.
         24    2    5    5    0    0  0.14578476590E+02 -0.15708303403E+03  0.31522408218E+03  0.36131068892E+03  0.79319482991E+02 0.  0.
          5    1    5    5  501    0  0.19000824289E+01  0.30594316027E+02  0.20587336555E+02  0.37222989036E+02  0.47000000000E+01 0. -1.
        -11    1    6    6    0    0  0.44454377164E+02 -0.66994536863E+02  0.12327058610E+03  0.14717369675E+03  0.00000000000E+00 0.  1.
         12    1    6    6    0    0 -0.29875900574E+02 -0.90088497163E+02  0.19195349608E+03  0.21413699217E+03  0.00000000000E+00 0. -1.
         -5    1    3    3    0  503 -0.19452655103E+02  0.10286998774E+03  0.24240039637E+02  0.10756537403E+03  0.47000000000E+01 0.  1.
         11    1    4    4    0    0  0.28689148333E+02 -0.15582888005E+02 -0.42281096385E+02  0.53418954896E+02  0.00000000000E+00 0. -1.
        -12    1    4    4    0    0 -0.25715052249E+02  0.39201618261E+02 -0.45500299371E+02  0.65332289332E+02  0.00000000000E+00 0.  1.
</event>
<event>
12    1  0.8133506E-002  0.2231853E+03  0.7818608E-02  0.1131603E+00
         21   -1    0    0  503  502  0.00000000000E+00  0.00000000000E+00  0.27207204300E+04  0.27207204300E+04  0.00000000000E+00 0.  1.
         21   -1    0    0  501  503 -0.00000000000E+00 -0.00000000000E+00 -0.35068823631E+02  0.35068823631E+02  0.00000000000E+00 0.  1.
          6    2    1    2  501    0 -0.13670854406E+03  0.29887653568E+02  0.38994856294E+03  0.44930117630E+03  0.17386537155E+03 0.  0.
         24    2    3    3    0    0 -0.34684296830E+02  0.98243653650E+01  0.66887247545E+02  0.10988670097E+03  0.79383024405E+02 0.  0.
         -6    2    1    2    0  502  0.13670854406E+03 -0.29887653568E+02  0.22957030434E+04  0.23064880773E+04  0.17335596165E+03 0.  0.
        -24    2    5    5    0    0  0.44138435012E+02  0.14539081039E+02  0.53853787330E+03  0.54631919767E+03  0.79259311390E+02 0.  0.
          5    1    3    3  501    0 -0.10202424723E+03  0.20063288203E+02  0.32306131540E+03  0.33941447533E+03  0.47000000000E+01 0. -1.
        -13    1    4    4    0    0 -0.39386985183E+02 -0.28427608278E+02  0.39483937873E+02  0.62597482890E+02  0.00000000000E+00 0.  1.
         14    1    4    4    0    0  0.47026883526E+01  0.38251973643E+02  0.27403309671E+02  0.47289218076E+02  0.00000000000E+00 0. -1.
         -5    1    5    5    0  502  0.92570109047E+02 -0.44426734607E+02  0.17571651701E+04  0.17601688796E+04  0.47000000000E+01 0.  1.
         11    1    6    6    0    0  0.53648122670E+01  0.32200265417E+02  0.40115967402E+03  0.40248567970E+03  0.00000000000E+00 0. -1.
        -12    1    6    6    0    0  0.38773622745E+02 -0.17661184378E+02  0.13737819928E+03  0.14383351797E+03  0.00000000000E+00 0.  1.
</event>
<event>
12    1  0.8133506E-002  0.1776263E+03  0.7818608E-02  0.1170540E+00
         21   -1    0    0  501  502  0.00000000000E+00  0.00000000000E+00  0.95152018310E+02  0.95152018310E+02  0.00000000000E+00 0. -1.
         21   -1    0    0  502  503 -0.00000000000E+00 -0.00000000000E+00 -0.13285718421E+04  0.13285718421E+04  0.00000000000E+00 0.  1.
         -6    2    1    2    0  503  0.38452460045E+02 -0.98085333513E+01 -0.12336152871E+04  0.12460974032E+04  0.17139796633E+03 0.  0.
        -24    2    3    3    0    0 -0.31609397508E+02 -0.54774503333E+01 -0.39167355978E+03  0.40122144529E+03  0.80878391802E+02 0.  0.
          6    2    1    2  501    0 -0.38452460045E+02  0.98085333513E+01  0.19546322674E+00  0.17762645722E+03  0.17313671214E+03 0.  0.
         24    2    5    5    0    0 -0.53510019796E+02  0.22632045719E+02  0.52642343994E+02  0.12137756499E+03  0.92659404218E+02 0.  0.
          5    1    5    5  501    0  0.15057559751E+02 -0.12823512368E+02 -0.52446880767E+02  0.56248892232E+02  0.47000000000E+01 0. -1.
        -11    1    6    6    0    0 -0.71968637198E+02  0.13470564361E+02  0.98449565182E+01  0.73877357920E+02  0.00000000000E+00 0.  1.
         12    1    6    6    0    0  0.18458617402E+02  0.91614813581E+01  0.42797387476E+02  0.47500207071E+02  0.00000000000E+00 0. -1.
         -5    1    3    3    0  503  0.70061857552E+02 -0.43310830179E+01 -0.84194172729E+03  0.84487595795E+03  0.47000000000E+01 0.  1.
         13    1    4    4    0    0  0.60108763006E+01 -0.35837798836E+02 -0.12389370062E+03  0.12911284797E+03  0.00000000000E+00 0. -1.
        -14    1    4    4    0    0 -0.37620273808E+02  0.30360348502E+02 -0.26777985916E+03  0.27210859732E+03  0.00000000000E+00 0.  1.
</event>
<event>
12    1  0.8133506E-002  0.1917406E+03  0.7818608E-02  0.1157712E+00
         21   -1    0    0  503  502  0.00000000000E+00  0.00000000000E+00  0.49922154232E+02  0.49922154232E+02  0.00000000000E+00 0.  1.
         21   -1    0    0  501  503 -0.00000000000E+00 -0.00000000000E+00 -0.74130925375E+03  0.74130925375E+03  0.00000000000E+00 0. -1.
          6    2    1    2  501    0  0.77795276494E+02  0.22297977509E+02 -0.41163594052E+03  0.45410198667E+03  0.17382509001E+03 0.  0.
         24    2    3    3    0    0  0.11979808976E+02  0.58948332989E+02 -0.32001729816E+03  0.33539651102E+03  0.80382377999E+02 0.  0.
         -6    2    1    2    0  502 -0.77795276494E+02 -0.22297977509E+02 -0.27975115900E+03  0.33712942132E+03  0.16984178200E+03 0.  0.
        -24    2    5    5    0    0 -0.11764834065E+03 -0.34536031396E+02 -0.20917084512E+03  0.25502152040E+03  0.79054815781E+02 0.  0.
          5    1    3    3  501    0  0.65815467517E+02 -0.36650355480E+02 -0.91618642360E+02  0.11870547565E+03  0.47000000000E+01 0. -1.
        -13    1    4    4    0    0 -0.63741247495E+00 -0.17563121379E+02 -0.26421358946E+02  0.31732597369E+02  0.00000000000E+00 0.  1.
         14    1    4    4    0    0  0.12617221451E+02  0.76511454367E+02 -0.29359593922E+03  0.30366391365E+03  0.00000000000E+00 0. -1.
         -5    1    5    5    0  502  0.39853064158E+02  0.12238053887E+02 -0.70580313878E+02  0.82107900916E+02  0.47000000000E+01 0.  1.
         13    1    6    6    0    0  0.59404031763E+01 -0.15129451389E+02 -0.49973301969E+02  0.52550162691E+02  0.00000000000E+00 0. -1.
        -14    1    6    6    0    0 -0.12358874383E+03 -0.19406580007E+02 -0.15919754315E+03  0.20247135771E+03  0.00000000000E+00 0.  1.
</event>
<event>
12    1  0.8133506E-002  0.1843730E+03  0.7818608E-02  0.1163897E+00
         21   -1    0    0  503  502  0.00000000000E+00  0.00000000000E+00  0.28853597754E+03  0.28853597754E+03  0.00000000000E+00 0. -1.
         21   -1    0    0  501  503 -0.00000000000E+00 -0.00000000000E+00 -0.13621066412E+03  0.13621066412E+03  0.00000000000E+00 0.  1.
          6    2    1    2  501    0 -0.64493625710E+02 -0.83753513543E+01 -0.31730765943E+01  0.18440034208E+03  0.17252200867E+03 0.  0.
         24    2    3    3    0    0 -0.75862034918E+02  0.49487483027E+02  0.14144271871E+02  0.12276164572E+03  0.81647424426E+02 0.  0.
         -6    2    1    2    0  502  0.64493625710E+02  0.83753513543E+01  0.15549839002E+03  0.24034629958E+03  0.17133890439E+03 0.  0.
        -24    2    5    5    0    0  0.43300429732E+02  0.86923747567E-01  0.18284916016E+03  0.20445752397E+03  0.80586158663E+02 0.  0.
          5    1    3    3  501    0  0.11368409208E+02 -0.57862834381E+02 -0.17317348465E+02  0.61638696355E+02  0.47000000000E+01 0. -1.
        -11    1    4    4    0    0 -0.61785335034E+02 -0.77025043642E+01  0.32166129208E+00  0.62264433385E+02  0.00000000000E+00 0.  1.
         12    1    4    4    0    0 -0.14076699884E+02  0.57189987391E+02  0.13822610578E+02  0.60497212337E+02  0.00000000000E+00 0. -1.
         -5    1    5    5    0  502  0.21193195978E+02  0.82884276068E+01 -0.27350770136E+02  0.35888775613E+02  0.47000000000E+01 0.  1.
         11    1    6    6    0    0  0.33413035473E+02  0.32594750175E+02  0.15038797660E+03  0.15746552697E+03  0.00000000000E+00 0. -1.
        -12    1    6    6    0    0  0.98873942597E+01 -0.32507826427E+02  0.32461183557E+02  0.46991997002E+02  0.00000000000E+00 0.  1.
</event>
<event>
12    1  0.8133506E-002  0.1798566E+03  0.7818608E-02  0.1168511E+00
         21   -1    0    0  503  502  0.00000000000E+00  0.00000000000E+00  0.39431693268E+02  0.39431693268E+02  0.00000000000E+00 0. -1.
         21   -1    0    0  501  503 -0.00000000000E+00 -0.00000000000E+00 -0.82274987896E+03  0.82274987896E+03  0.00000000000E+00 0.  1.
          6    2    1    2  501    0 -0.42290553967E+02  0.16676538822E+02 -0.34001349656E+03  0.38465252087E+03  0.17401662582E+03 0.  0.
         24    2    3    3    0    0  0.71362840543E+01 -0.39159246861E+01 -0.56947931946E+02  0.96528822184E+02  0.77514421517E+02 0.  0.
         -6    2    1    2    0  502  0.42290553967E+02 -0.16676538822E+02 -0.44330468913E+03  0.47752905137E+03  0.17160521434E+03 0.  0.
        -24    2    5    5    0    0 -0.20141875456E+02 -0.45818293429E+02 -0.15675993982E+03  0.18277994880E+03  0.79560164600E+02 0.  0.
          5    1    3    3  501    0 -0.49426838022E+02  0.20592463508E+02 -0.28306556462E+03  0.28812369868E+03  0.47000000000E+01 0. -1.
        -13    1    4    4    0    0  0.93519934480E+01 -0.10950488615E+02 -0.75344817631E+02  0.76708633974E+02  0.00000000000E+00 0.  1.
         14    1    4    4    0    0 -0.22157093937E+01  0.70345639288E+01  0.18396885685E+02  0.19820188210E+02  0.00000000000E+00 0. -1.
         -5    1    5    5    0  502  0.62432429423E+02  0.29141754607E+02 -0.28654474931E+03  0.29474910257E+03  0.47000000000E+01 0.  1.
         11    1    6    6    0    0  0.25878216821E+02 -0.15488990500E+02 -0.22439658563E+02  0.37591610885E+02  0.00000000000E+00 0. -1.
        -12    1    6    6    0    0 -0.46020092277E+02 -0.30329302929E+02 -0.13432028126E+03  0.14518833791E+03  0.00000000000E+00 0.  1.
</event>
<event>
12    1  0.8133506E-002  0.2748944E+03  0.7818608E-02  0.1098536E+00
         21   -1    0    0  501  502  0.00000000000E+00  0.00000000000E+00  0.91435870750E+02  0.91435870750E+02  0.00000000000E+00 0.  1.
         21   -1    0    0  502  503 -0.00000000000E+00 -0.00000000000E+00 -0.84870705877E+03  0.84870705877E+03  0.00000000000E+00 0.  1.
         -6    2    1    2    0  503 -0.16867140974E+03  0.13372084925E+03 -0.30146952372E+03  0.40786282433E+03  0.17069534191E+03 0.  0.
        -24    2    3    3    0    0 -0.15374967545E+03  0.37083393417E+02 -0.19700174801E+03  0.26469487336E+03  0.78990800057E+02 0.  0.
          6    2    1    2  501    0  0.16867140974E+03 -0.13372084925E+03 -0.45580166430E+03  0.53228010519E+03  0.17098433616E+03 0.  0.
         24    2    5    5    0    0  0.66651550586E+02 -0.41402476198E+02 -0.98036945636E+02  0.14894158953E+03  0.80098440380E+02 0.  0.
          5    1    5    5  501    0  0.10201985916E+03 -0.92318373054E+02 -0.35776471867E+03  0.38333851566E+03  0.47000000000E+01 0. -1.
        -11    1    6    6    0    0  0.82384605542E+02 -0.36278938604E+02 -0.97042385101E+02  0.13236543779E+03  0.00000000000E+00 0.  1.
         12    1    6    6    0    0 -0.15733054956E+02 -0.51235375942E+01 -0.99456053576E+00  0.16576151736E+02  0.00000000000E+00 0. -1.
         -5    1    3    3    0  503 -0.14921734289E+02  0.96637455835E+02 -0.10446777571E+03  0.14316795097E+03  0.47000000000E+01 0.  1.
         13    1    4    4    0    0 -0.50699804961E+02 -0.13591149544E+02 -0.25650277080E+02  0.58421967472E+02  0.00000000000E+00 0. -1.
        -14    1    4    4    0    0 -0.10304987049E+03  0.50674542961E+02 -0.17135147093E+03  0.20627290588E+03  0.00000000000E+00 0.  1.
</event>
<event>
12    1  0.8133506E-002  0.1809228E+03  0.7818608E-02  0.1167733E+00
         21   -1    0    0  503  502  0.00000000000E+00  0.00000000000E+00  0.45754506680E+03  0.45754506680E+03  0.00000000000E+00 0.  1.
         21   -1    0    0  501  503 -0.00000000000E+00 -0.00000000000E+00 -0.19998742037E+03  0.19998742037E+03  0.00000000000E+00 0. -1.
          6    2    1    2  501    0  0.35088674291E+02 -0.28296087454E+02 -0.13648402796E+03  0.22394061713E+03  0.17172543924E+03 0.  0.
         24    2    3    3    0    0  0.72748275482E+02  0.32801754568E+01 -0.41173435613E+02  0.11660234364E+03  0.81226741935E+02 0.  0.
         -6    2    1    2    0  502 -0.35088674291E+02  0.28296087454E+02  0.39404167439E+03  0.43359187004E+03  0.17521753616E+03 0.  0.
        -24    2    5    5    0    0  0.29380813777E+02  0.79643308647E+01  0.95358596507E+02  0.12731851790E+03  0.78677063288E+02 0.  0.
          5    1    3    3  501    0 -0.37659601191E+02 -0.31576262911E+02 -0.95310592348E+02  0.10733827349E+03  0.47000000000E+01 0. -1.
        -11    1    4    4    0    0  0.22980883613E+02  0.39454222514E+02 -0.28382020221E+02  0.53761470940E+02  0.00000000000E+00 0.  1.
         12    1    4    4    0    0  0.49767391869E+02 -0.36174047057E+02 -0.12791415392E+02  0.62840872700E+02  0.00000000000E+00 0. -1.
         -5    1    5    5    0  502 -0.64469488068E+02  0.20331756589E+02  0.29868307789E+03  0.30627335214E+03  0.47000000000E+01 0.  1.
         11    1    6    6    0    0  0.99492591287E+01 -0.34132786598E+02  0.56826178016E+02  0.67031704335E+02  0.00000000000E+00 0. -1.
        -12    1    6    6    0    0  0.19431554648E+02  0.42097117463E+02  0.38532418491E+02  0.60286813563E+02  0.00000000000E+00 0.  1.
</event>
<event>
12    1  0.8133506E-002  0.1885135E+03  0.7818608E-02  0.1159960E+00
         21   -1    0    0  503  502  0.00000000000E+00  0.00000000000E+00  0.22069595984E+03  0.22069595984E+03  0.00000000000E+00 0. -1.
         21   -1    0    0  501  503 -0.00000000000E+00 -0.00000000000E+00 -0.23760843338E+03  0.23760843338E+03  0.00000000000E+00 0.  1.
          6    2    1    2  501    0 -0.30279548384E+02  0.71257026387E+02 -0.13902201720E+03  0.23369791610E+03  0.17115250469E+03 0.  0.
         24    2    3    3    0    0 -0.45854325704E+02  0.85887917946E+02 -0.38687753012E+02  0.13100570000E+03  0.78653655759E+02 0.  0.
         -6    2    1    2    0  502  0.30279548384E+02 -0.71257026387E+02  0.12210954366E+03  0.22460647712E+03  0.17188052261E+03 0.  0.
        -24    2    5    5    0    0  0.64719621126E+02 -0.61859998071E+02  0.14102466451E+03  0.18393345722E+03  0.76995272359E+02 0.  0.
          5    1    3    3  501    0  0.15574777320E+02 -0.14630891559E+02 -0.10033426419E+03  0.10269221610E+03  0.47000000000E+01 0. -1.
        -13    1    4    4    0    0 -0.50631348831E+02  0.87580920122E+02 -0.54143025167E+02  0.11474065639E+03  0.00000000000E+00 0.  1.
         14    1    4    4    0    0  0.47770231269E+01 -0.16930021765E+01  0.15455272155E+02  0.16265043612E+02  0.00000000000E+00 0. -1.
         -5    1    5    5    0  502 -0.34440072741E+02 -0.93970283153E+01 -0.18915120846E+02  0.40673019905E+02  0.47000000000E+01 0.  1.
         13    1    6    6    0    0  0.70839182098E+01 -0.59216187741E+02  0.61329989222E+02  0.85545931322E+02  0.00000000000E+00 0. -1.
        -14    1    6    6    0    0  0.57635702916E+02 -0.26438103307E+01  0.79694675284E+02  0.98387525898E+02  0.00000000000E+00 0.  1.
</event>
<event>
12    1  0.8133506E-002  0.1871688E+03  0.7818608E-02  0.1162234E+00
         21   -1    0    0  503  502  0.00000000000E+00  0.00000000000E+00  0.44479784348E+03  0.44479784348E+03  0.00000000000E+00 0. -1.
         21   -1    0    0  501  503 -0.00000000000E+00 -0.00000000000E+00 -0.37099243362E+03  0.37099243362E+03  0.00000000000E+00 0. -1.
          6    2    1    2  501    0 -0.75307519340E+02 -0.62956464459E+01 -0.32632422269E+03  0.37619100526E+03  0.17123468251E+03 0.  0.
         24    2    3    3    0    0 -0.59149145160E+02 -0.67233470787E+02 -0.17512404105E+03  0.21230660570E+03  0.79916857441E+02 0.  0.
         -6    2    1    2    0  502  0.75307519340E+02  0.62956464459E+01  0.40012963255E+03  0.43959927184E+03  0.16562892056E+03 0.  0.
        -24    2    5    5    0    0  0.61011352474E+02 -0.53793381384E+02  0.19951305434E+03  0.22963695831E+03  0.79445331873E+02 0.  0.
          5    1    3    3  501    0 -0.16158374181E+02  0.60937824341E+02 -0.15120018165E+03  0.16388439957E+03  0.47000000000E+01 0. -1.
        -13    1    4    4    0    0 -0.39189490596E+01  0.34226321455E+01  0.73385087924E+01  0.89959037251E+01  0.00000000000E+00 0.  1.
         14    1    4    4    0    0 -0.55230196100E+02 -0.70656102933E+02 -0.18246254984E+03  0.20331070197E+03  0.00000000000E+00 0. -1.
         -5    1    5    5    0  502  0.14296166867E+02  0.60089027830E+02  0.20061657821E+03  0.20996231353E+03  0.47000000000E+01 0.  1.
         13    1    6    6    0    0  0.54789847070E+02 -0.39845229882E+02  0.63773865295E+02  0.93041257413E+02  0.00000000000E+00 0. -1.
        -14    1    6    6    0    0  0.62215054038E+01 -0.13948151503E+02  0.13573918905E+03  0.13659570089E+03  0.00000000000E+00 0.  1.
</event>
<event>
12    1  0.8133506E-002  0.2107048E+03  0.7818608E-02  0.1142079E+00
         21   -1    0    0  501  502  0.00000000000E+00  0.00000000000E+00  0.67350076599E+02  0.67350076599E+02  0.00000000000E+00 0. -1.
         21   -1    0    0  502  503 -0.00000000000E+00 -0.00000000000E+00 -0.72981363104E+03  0.72981363104E+03  0.00000000000E+00 0. -1.
         -6    2    1    2    0  503 -0.43632953969E+02  0.10498334446E+03 -0.47280665966E+03  0.51763177663E+03  0.17740118789E+03 0.  0.
        -24    2    3    3    0    0 -0.43444280135E+02  0.14420425641E+03 -0.36683743062E+03  0.40453941156E+03  0.80001012236E+02 0.  0.
          6    2    1    2  501    0  0.43632953969E+02 -0.10498334446E+03 -0.18965689478E+03  0.27953193101E+03  0.17100592222E+03 0.  0.
         24    2    5    5    0    0  0.76420164965E+02 -0.91200251229E+02 -0.83175982192E+02  0.16716979500E+03  0.82885275593E+02 0.  0.
          5    1    5    5  501    0 -0.32787210995E+02 -0.13783093226E+02 -0.10648091258E+03  0.11236213601E+03  0.47000000000E+01 0. -1.
        -13    1    6    6    0    0  0.33086812753E+02  0.58751496877E+01 -0.24654688937E+01  0.33694704315E+02  0.00000000000E+00 0.  1.
         14    1    6    6    0    0  0.43333352211E+02 -0.97075400917E+02 -0.80710513299E+02  0.13347509069E+03  0.00000000000E+00 0. -1.
         -5    1    3    3    0  503 -0.18867383470E+00 -0.39220911952E+02 -0.10596922904E+03  0.11309236506E+03  0.47000000000E+01 0.  1.
         13    1    4    4    0    0  0.20051332583E+02  0.66921327991E+02 -0.13369444541E+03  0.15084669307E+03  0.00000000000E+00 0. -1.
        -14    1    4    4    0    0 -0.63495612718E+02  0.77282928416E+02 -0.23314298522E+03  0.25369271849E+03  0.00000000000E+00 0.  1.
</event>
<event>
12    1  0.8133506E-002  0.2821881E+03  0.7818608E-02  0.1094807E+00
         21   -1    0    0  501  502  0.00000000000E+00  0.00000000000E+00  0.89574718380E+03  0.89574718380E+03  0.00000000000E+00 0. -1.
         21   -1    0    0  502  503 -0.00000000000E+00 -0.00000000000E+00 -0.13651257482E+03  0.13651257482E+03  0.00000000000E+00 0.  1.
         -6    2    1    2    0  503 -0.65317433826E+02 -0.21130080235E+03  0.71546297856E+02  0.28892584023E+03  0.17159508204E+03 0.  0.
        -24    2    3    3    0    0 -0.44192503457E+02 -0.92848934315E+02 -0.26435657615E+02  0.13368518408E+03  0.81234121424E+02 0.  0.
          6    2    1    2  501    0  0.65317433826E+02  0.21130080235E+03  0.68768831113E+03  0.74333391839E+03  0.17525896476E+03 0.  0.
         24    2    5    5    0    0  0.92021726702E+02  0.79204960486E+02  0.40847368814E+03  0.43326081993E+03  0.78248068568E+02 0.  0.
          5    1    5    5  501    0 -0.26704292877E+02  0.13209584186E+03  0.27921462299E+03  0.31007309846E+03  0.47000000000E+01 0. -1.
        -13    1    6    6    0    0  0.41241234348E+01  0.39190199959E+01  0.14944829776E+03  0.14955654722E+03  0.00000000000E+00 0.  1.
         14    1    6    6    0    0  0.87897603267E+02  0.75285940491E+02  0.25902539037E+03  0.28370427271E+03  0.00000000000E+00 0. -1.
         -5    1    3    3    0  503 -0.21124930369E+02 -0.11845186803E+03  0.97981955471E+02  0.15524065615E+03  0.47000000000E+01 0.  1.
         13    1    4    4    0    0  0.12120168111E+01  0.79007785629E+01  0.13909385318E+02  0.16042514971E+02  0.00000000000E+00 0. -1.
        -14    1    4    4    0    0 -0.45404520268E+02 -0.10074971288E+03 -0.40345042933E+02  0.11764266911E+03  0.00000000000E+00 0.  1.
</event>
<event>
12    1  0.8133506E-002  0.1766261E+03  0.7818608E-02  0.1171463E+00
         21   -1    0    0  503  502  0.00000000000E+00  0.00000000000E+00  0.63839982041E+03  0.63839982041E+03  0.00000000000E+00 0. -1.
         21   -1    0    0  501  503 -0.00000000000E+00 -0.00000000000E+00 -0.53816511705E+02  0.53816511705E+02  0.00000000000E+00 0. -1.
          6    2    1    2  501    0  0.18265502509E+02  0.25929743522E+02  0.18430880685E+03  0.25527736206E+03  0.17375504344E+03 0.  0.
         24    2    3    3    0    0 -0.59318361705E+01 -0.51055806777E+02  0.10421856069E+03  0.14148446385E+03  0.80712223565E+02 0.  0.
         -6    2    1    2    0  502 -0.18265502509E+02 -0.25929743522E+02  0.40027450186E+03  0.43693897005E+03  0.17230788297E+03 0.  0.
        -24    2    5    5    0    0  0.31880361118E+01 -0.22959584916E+02  0.73205640998E+02  0.10912010863E+03  0.77529517731E+02 0.  0.
          5    1    3    3  501    0  0.24197338679E+02  0.76985550299E+02  0.80090246165E+02  0.11379289822E+03  0.47000000000E+01 0. -1.
        -13    1    4    4    0    0 -0.30118526990E+02 -0.62091187554E+02  0.77986709428E+02  0.10413629573E+03  0.00000000000E+00 0.  1.
         14    1    4    4    0    0  0.24186690819E+02  0.11035380777E+02  0.26231851257E+02  0.37348168122E+02  0.00000000000E+00 0. -1.
         -5    1    5    5    0  502 -0.21453538620E+02 -0.29701586065E+01  0.32706886086E+03  0.32781886142E+03  0.47000000000E+01 0.  1.
         11    1    6    6    0    0 -0.24138887136E+02 -0.48217261488E+01  0.72227594109E+02  0.76307013216E+02  0.00000000000E+00 0. -1.
        -12    1    6    6    0    0  0.27326923248E+02 -0.18137858767E+02  0.97804688943E+00  0.32813095413E+02  0.00000000000E+00 0.  1.
</event>
<event>
12    1  0.8133506E-002  0.3580742E+03  0.7818608E-02  0.1059353E+00
         21   -1    0    0  503  502  0.00000000000E+00  0.00000000000E+00  0.12251705217E+04  0.12251705217E+04  0.00000000000E+00 0. -1.
         21   -1    0    0  501  503 -0.00000000000E+00 -0.00000000000E+00 -0.16245698148E+03  0.16245698148E+03  0.00000000000E+00 0.  1.
          6    2    1    2  501    0 -0.29215575657E+03 -0.11469738624E+03  0.11743614127E+03  0.37680283929E+03  0.17227494277E+03 0.  0.
         24    2    3    3    0    0 -0.28602780915E+03 -0.13115192235E+03  0.79281867808E+02  0.33454006510E+03  0.81355431595E+02 0.  0.
         -6    2    1    2    0  502  0.29215575657E+03  0.11469738624E+03  0.94527739898E+03  0.10108246639E+04  0.17235621153E+03 0.  0.
        -24    2    5    5    0    0  0.12810805830E+03  0.74156770908E+02  0.64206229163E+03  0.66366953991E+03  0.79387471283E+02 0.  0.
          5    1    3    3  501    0 -0.61279474209E+01  0.16454536111E+02  0.38154273464E+02  0.42262774184E+02  0.47000000000E+01 0. -1.
        -13    1    4    4    0    0 -0.41378381076E+02 -0.11393465459E+02 -0.16240229046E+02  0.45888195814E+02  0.00000000000E+00 0.  1.
         14    1    4    4    0    0 -0.24464942808E+03 -0.11975845690E+03  0.95522096854E+02  0.28865186929E+03  0.00000000000E+00 0. -1.
         -5    1    5    5    0  502  0.16404769827E+03  0.40540615336E+02  0.30321510735E+03  0.34715512401E+03  0.47000000000E+01 0.  1.
         11    1    6    6    0    0  0.41280339831E+02 -0.14450352229E+02  0.15441180795E+03  0.16048640307E+03  0.00000000000E+00 0. -1.
        -12    1    6    6    0    0  0.86827718466E+02  0.88607123137E+02  0.48765048368E+03  0.50318313683E+03  0.00000000000E+00 0.  1.
</event>
<event>
12    1  0.8133506E-002  0.1852407E+03  0.7818608E-02  0.1162828E+00
         21   -1    0    0  501  502  0.00000000000E+00  0.00000000000E+00  0.80386668737E+03  0.80386668737E+03  0.00000000000E+00 0. -1.
         21   -1    0    0  502  503 -0.00000000000E+00 -0.00000000000E+00 -0.54635588918E+02  0.54635588918E+02  0.00000000000E+00 0. -1.
         -6    2    1    2    0  503  0.32087944264E+02 -0.60395292382E+02  0.57539632227E+03  0.60447913789E+03  0.17215363183E+03 0.  0.
        -24    2    3    3    0    0  0.35211217110E+02  0.20168232640E+02  0.15419332145E+03  0.17560352155E+03  0.73582803564E+02 0.  0.
          6    2    1    2  501    0 -0.32087944264E+02  0.60395292382E+02  0.17383477619E+03  0.25402313840E+03  0.17213947230E+03 0.  0.
         24    2    5    5    0    0  0.20351929976E+02  0.80224113248E+02  0.15852410676E+03  0.19571679959E+03  0.79530269822E+02 0.  0.
          5    1    5    5  501    0 -0.52439874240E+02 -0.19828820866E+02  0.15310669427E+02  0.58306338811E+02  0.47000000000E+01 0. -1.
        -11    1    6    6    0    0  0.24260216584E+01  0.38040728495E+01 -0.93590113585E+01  0.10389785606E+02  0.00000000000E+00 0.  1.
         12    1    6    6    0    0  0.17925908318E+02  0.76420040398E+02  0.16788311812E+03  0.18532701398E+03  0.00000000000E+00 0. -1.
         -5    1    3    3    0  503 -0.31232728461E+01 -0.80563525021E+02  0.42120300082E+03  0.42887561634E+03  0.47000000000E+01 0.  1.
         11    1    4    4    0    0  0.47909427221E+02 -0.93707957848E+01  0.11484116832E+03  0.12478629320E+03  0.00000000000E+00 0. -1.
        -12    1    4    4    0    0 -0.12698210111E+02  0.29539028424E+02  0.39352153137E+02  0.50817228346E+02  0.00000000000E+00 0.  1.
</event>
<event>
12    1  0.8133506E-002  0.2054886E+03  0.7818608E-02  0.1146282E+00
         21   -1    0    0  503  502  0.00000000000E+00  0.00000000000E+00  0.41505594048E+03  0.41505594048E+03  0.00000000000E+00 0. -1.
         21   -1    0    0  501  503 -0.00000000000E+00 -0.00000000000E+00 -0.28117295573E+03  0.28117295573E+03  0.00000000000E+00 0.  1.
          6    2    1    2  501    0  0.46947516690E+01  0.11088208013E+03 -0.21346355586E+03  0.29265090254E+03  0.16661627979E+03 0.  0.
         24    2    3    3    0    0 -0.59931241695E+01  0.85214709284E+02 -0.22525109545E+03  0.26208816861E+03  0.10322154769E+03 0.  0.
         -6    2    1    2    0  502 -0.46947516690E+01 -0.11088208013E+03  0.34734654062E+03  0.40357799367E+03  0.17294132332E+03 0.  0.
        -24    2    5    5    0    0 -0.67870043422E+02 -0.53865472693E+02  0.23439272958E+03  0.26207652923E+03  0.78970396672E+02 0.  0.
          5    1    3    3  501    0  0.10687875839E+02  0.25667370848E+02  0.11787539585E+02  0.30562733936E+02  0.47000000000E+01 0. -1.
        -11    1    4    4    0    0  0.46096519107E+02  0.60985057792E+02 -0.12383030661E+03  0.14552666829E+03  0.00000000000E+00 0.  1.
         12    1    4    4    0    0 -0.52089643277E+02  0.24229651493E+02 -0.10142078884E+03  0.11656150032E+03  0.00000000000E+00 0. -1.
         -5    1    5    5    0  502  0.63175291753E+02 -0.57016607439E+02  0.11295381103E+03  0.14150146444E+03  0.47000000000E+01 0.  1.
         13    1    6    6    0    0 -0.43747143391E+02 -0.50735420379E+02  0.22696098511E+03  0.23664146762E+03  0.00000000000E+00 0. -1.
        -14    1    6    6    0    0 -0.24122900031E+02 -0.31300523137E+01  0.74317444777E+01  0.25435061615E+02  0.00000000000E+00 0.  1.
</event>
<event>
12    1  0.8133506E-002  0.1788571E+03  0.7818608E-02  0.1171257E+00
         21   -1    0    0  503  502  0.00000000000E+00  0.00000000000E+00  0.31311422016E+03  0.31311422016E+03  0.00000000000E+00 0.  1.
         21   -1    0    0  501  503 -0.00000000000E+00 -0.00000000000E+00 -0.19514306218E+03  0.19514306218E+03  0.00000000000E+00 0.  1.
          6    2    1    2  501    0 -0.33872625288E+02  0.33086065755E+02 -0.12207623759E+03  0.20890362319E+03  0.16277614538E+03 0.  0.
         24    2    3    3    0    0 -0.41127255483E+02  0.81005492685E+02 -0.81259339730E+02  0.14536615167E+03  0.79214245990E+02 0.  0.
         -6    2    1    2    0  502  0.33872625288E+02 -0.33086065755E+02  0.24004739557E+03  0.29935365915E+03  0.17247555954E+03 0.  0.
        -24    2    5    5    0    0  0.42043216724E+02 -0.83122664166E+02  0.20068025576E+03  0.23499310103E+03  0.79197115547E+02 0.  0.
          5    1    3    3  501    0  0.72546301957E+01 -0.47919426930E+02 -0.40816897861E+02  0.63537471523E+02  0.47000000000E+01 0. -1.
        -11    1    4    4    0    0  0.14714158758E+02  0.68767936273E+01 -0.41192112683E+02  0.44278515172E+02  0.00000000000E+00 0.  1.
         12    1    4    4    0    0 -0.55841414241E+02  0.74128699058E+02 -0.40067227047E+02  0.10108763649E+03  0.00000000000E+00 0. -1.
         -5    1    5    5    0  502 -0.81705914362E+01  0.50036598410E+02  0.39367139806E+02  0.64360558119E+02  0.47000000000E+01 0.  1.
         11    1    6    6    0    0  0.29756241596E+01 -0.79959935301E+02  0.10839377977E+03  0.13472808574E+03  0.00000000000E+00 0. -1.
        -12    1    6    6    0    0  0.39067592564E+02 -0.31627288651E+01  0.92286475987E+02  0.10026501530E+03  0.00000000000E+00 0.  1.
</event>
<event>
12    1  0.8133506E-002  0.2171531E+03  0.7818608E-02  0.1136162E+00
         21   -1    0    0  501  502  0.00000000000E+00  0.00000000000E+00  0.24531005690E+03  0.24531005690E+03  0.00000000000E+00 0.  1.
         21   -1    0    0  502  503 -0.00000000000E+00 -0.00000000000E+00 -0.19358116510E+03  0.19358116510E+03  0.00000000000E+00 0.  1.
         -6    2    1    2    0  503 -0.74514692945E+02 -0.10866389226E+03  0.36232914754E+01  0.21718333916E+03  0.17261284315E+03 0.  0.
        -24    2    3    3    0    0 -0.28529407916E+02 -0.15507474536E+02  0.54090496533E+02  0.10159011536E+03  0.79626382814E+02 0.  0.
          6    2    1    2  501    0  0.74514692945E+02  0.10866389226E+03  0.48105600331E+02  0.22170788284E+03  0.17169727890E+03 0.  0.
         24    2    5    5    0    0  0.10906658181E+02  0.11978520391E+02  0.59026124864E+02  0.10536618319E+03  0.85764264119E+02 0.  0.
          5    1    5    5  501    0  0.63608034764E+02  0.96685371874E+02 -0.10920524533E+02  0.11634169965E+03  0.47000000000E+01 0. -1.
        -13    1    6    6    0    0  0.37382425094E+02  0.86855695040E+01  0.67264976342E+02  0.77443281605E+02  0.00000000000E+00 0.  1.
         14    1    6    6    0    0 -0.26475766913E+02  0.32929508866E+01 -0.82388514785E+01  0.27922901583E+02  0.00000000000E+00 0. -1.
         -5    1    3    3    0  503 -0.45985285029E+02 -0.93156417728E+02 -0.50467205058E+02  0.11559322380E+03  0.47000000000E+01 0.  1.
         11    1    4    4    0    0 -0.76196573328E+01 -0.46644436406E+02  0.21586166956E+02  0.51958880178E+02  0.00000000000E+00 0. -1.
        -12    1    4    4    0    0 -0.20909750584E+02  0.31136961870E+02  0.32504329578E+02  0.49631235177E+02  0.00000000000E+00 0.  1.
</event>
<event>
12    1  0.8133506E-002  0.2398813E+03  0.7818608E-02  0.1120014E+00
         21   -1    0    0  501  502  0.00000000000E+00  0.00000000000E+00  0.12245857530E+04  0.12245857530E+04  0.00000000000E+00 0. -1.
         21   -1    0    0  502  503 -0.00000000000E+00 -0.00000000000E+00 -0.57449319185E+02  0.57449319185E+02  0.00000000000E+00 0.  1.
         -6    2    1    2    0  503  0.13574731677E+03 -0.96219465213E+02  0.30872817382E+03  0.39096820043E+03  0.17279331278E+03 0.  0.
        -24    2    3    3    0    0  0.33344960336E+02  0.16584185644E+02  0.11496280206E+03  0.14443622372E+03  0.79110399258E+02 0.  0.
          6    2    1    2  501    0 -0.13574731677E+03  0.96219465213E+02  0.85840826003E+03  0.89106687179E+03  0.17160975966E+03 0.  0.
         24    2    5    5    0    0 -0.83711148380E+02  0.13052005061E+03  0.68454087133E+03  0.70630688739E+03  0.78931455598E+02 0.  0.
          5    1    5    5  501    0 -0.52036168394E+02 -0.34300585396E+02  0.17386738870E+03  0.18475998440E+03  0.47000000000E+01 0. -1.
        -13    1    6    6    0    0 -0.28972246667E+01 -0.10125824186E+02  0.66738164495E+02  0.67564109011E+02  0.00000000000E+00 0.  1.
         14    1    6    6    0    0 -0.80813923713E+02  0.14064587479E+03  0.61780270683E+03  0.63874277838E+03  0.00000000000E+00 0. -1.
         -5    1    3    3    0  503  0.10240235644E+03 -0.11280365086E+03  0.19376537175E+03  0.24653197671E+03  0.47000000000E+01 0.  1.
         11    1    4    4    0    0  0.15043826457E+02  0.32690907212E+02  0.11453254240E+03  0.12005296913E+03  0.00000000000E+00 0. -1.
        -12    1    4    4    0    0  0.18301133879E+02 -0.16106721568E+02  0.43025966432E+00  0.24383254588E+02  0.00000000000E+00 0.  1.
</event>
<event>
12    1  0.8133506E-002  0.2118477E+03  0.7818608E-02  0.1140365E+00
         21   -1    0    0  501  502  0.00000000000E+00  0.00000000000E+00  0.34943273865E+03  0.34943273865E+03  0.00000000000E+00 0.  1.
         21   -1    0    0  502  503 -0.00000000000E+00 -0.00000000000E+00 -0.12798568557E+03  0.12798568557E+03  0.00000000000E+00 0. -1.
         -6    2    1    2    0  503 -0.12303468629E+03 -0.17551441472E+02  0.98217538141E+02  0.23233692287E+03  0.16996521351E+03 0.  0.
        -24    2    3    3    0    0 -0.84465431702E+02  0.48421207017E+02  0.92059407570E+02  0.15552552841E+03  0.78957159409E+02 0.  0.
          6    2    1    2  501    0  0.12303468629E+03  0.17551441472E+02  0.12322951494E+03  0.24508150135E+03  0.17156293837E+03 0.  0.
         24    2    5    5    0    0  0.75961757762E+02  0.69844163132E+02  0.11646624302E+03  0.17424209716E+03  0.78406166176E+02 0.  0.
          5    1    5    5  501    0  0.47072928524E+02 -0.52292721659E+02  0.67632719264E+01  0.70839404187E+02  0.47000000000E+01 0. -1.
        -11    1    6    6    0    0 -0.78906821248E+01  0.39563293247E+02  0.33084396072E+02  0.52173693567E+02  0.00000000000E+00 0.  1.
         12    1    6    6    0    0  0.83852439887E+02  0.30280869885E+02  0.83381846944E+02  0.12206840359E+03  0.00000000000E+00 0. -1.
         -5    1    3    3    0  503 -0.38569254584E+02 -0.65972648490E+02  0.61581305717E+01  0.76811394468E+02  0.47000000000E+01 0.  1.
         11    1    4    4    0    0  0.54349041074E+01  0.21242892978E+02 -0.27190558000E+01  0.22095066173E+02  0.00000000000E+00 0. -1.
        -12    1    4    4    0    0 -0.89900335810E+02  0.27178314039E+02  0.94778463370E+02  0.13343046223E+03  0.00000000000E+00 0.  1.
</event>
<event>
12    1  0.8133506E-002  0.2151362E+03  0.7818608E-02  0.1140097E+00
         21   -1    0    0  501  502  0.00000000000E+00  0.00000000000E+00  0.18468878052E+04  0.18468878052E+04  0.00000000000E+00 0.  1.
         21   -1    0    0  502  503 -0.00000000000E+00 -0.00000000000E+00 -0.64498910088E+02  0.64498910088E+02  0.00000000000E+00 0.  1.
         -6    2    1    2    0  503 -0.16910856733E+02 -0.10486145614E+03  0.14022052545E+03  0.25679832735E+03  0.18708736758E+03 0.  0.
        -24    2    3    3    0    0 -0.60360880045E+02 -0.57468002822E+02  0.15234806118E+03  0.19119946252E+03  0.80008096679E+02 0.  0.
          6    2    1    2  501    0  0.16910856733E+02  0.10486145614E+03  0.16421683696E+04  0.16545883879E+04  0.17223204447E+03 0.  0.
         24    2    5    5    0    0 -0.43605246518E+02  0.82205556628E+02  0.74886735150E+03  0.75894097540E+03  0.80807938630E+02 0.  0.
          5    1    5    5  501    0  0.60516103252E+02  0.22655899517E+02  0.89330101813E+03  0.89564741250E+03  0.47000000000E+01 0. -1.
        -13    1    6    6    0    0 -0.24080617071E+02  0.31425994958E+02  0.58376699324E+03  0.58510800001E+03  0.00000000000E+00 0.  1.
         14    1    6    6    0    0 -0.19524629447E+02  0.50779561670E+02  0.16510035825E+03  0.17383297539E+03  0.00000000000E+00 0. -1.
         -5    1    3    3    0  503  0.43450023312E+02 -0.47393453323E+02 -0.12127535728E+02  0.65598864827E+02  0.47000000000E+01 0.  1.
         13    1    4    4    0    0 -0.45660433130E+02 -0.26364411540E+02  0.23299437471E+02  0.57643916729E+02  0.00000000000E+00 0. -1.
        -14    1    4    4    0    0 -0.14700446916E+02 -0.31103591282E+02  0.12904862371E+03  0.13355554579E+03  0.00000000000E+00 0.  1.
</event>
<event>
12    1  0.8133506E-002  0.3009035E+03  0.7818608E-02  0.1084811E+00
         21   -1    0    0  501  502  0.00000000000E+00  0.00000000000E+00  0.13270333269E+04  0.13270333269E+04  0.00000000000E+00 0.  1.
         21   -1    0    0  502  503 -0.00000000000E+00 -0.00000000000E+00 -0.16557765625E+03  0.16557765625E+03  0.00000000000E+00 0. -1.
         -6    2    1    2    0  503 -0.31235668018E+02 -0.24517756352E+03  0.84396616615E+01  0.30102187678E+03  0.17162528311E+03 0.  0.
        -24    2    3    3    0    0 -0.52809422976E+02 -0.11443083724E+03 -0.48657269780E+02  0.15665331055E+03  0.79306230133E+02 0.  0.
          6    2    1    2  501    0  0.31235668018E+02  0.24517756352E+03  0.11530160090E+04  0.11915891064E+04  0.17132126790E+03 0.  0.
         24    2    5    5    0    0  0.51744427673E+02  0.17318105252E+03  0.10214061181E+04  0.10401052452E+04  0.76676595193E+02 0.  0.
          5    1    5    5  501    0 -0.20508759655E+02  0.71996511000E+02  0.13160989095E+03  0.15148386123E+03  0.47000000000E+01 0. -1.
        -13    1    6    6    0    0  0.39675802990E+02  0.10309150369E+03  0.79912222235E+03  0.80672074086E+03  0.00000000000E+00 0.  1.
         14    1    6    6    0    0  0.12068624683E+02  0.70089548825E+02  0.22228389574E+03  0.23338450433E+03  0.00000000000E+00 0. -1.
         -5    1    3    3    0  503  0.21573754958E+02 -0.13074672628E+03  0.57096931441E+02  0.14436856623E+03  0.47000000000E+01 0.  1.
         13    1    4    4    0    0  0.92491286818E+01 -0.57685794518E+02  0.20474508720E+01  0.58458441013E+02  0.00000000000E+00 0. -1.
        -14    1    4    4    0    0 -0.62058551657E+02 -0.56745042719E+02 -0.50704720652E+02  0.98194869537E+02  0.00000000000E+00 0.  1.
</event>
<event>
12    1  0.8133506E-002  0.1960833E+03  0.7818608E-02  0.1153350E+00
         21   -1    0    0  501  502  0.00000000000E+00  0.00000000000E+00  0.54311783141E+02  0.54311783141E+02  0.00000000000E+00 0.  1.
         21   -1    0    0  502  503 -0.00000000000E+00 -0.00000000000E+00 -0.70460866600E+03  0.70460866600E+03  0.00000000000E+00 0.  1.
         -6    2    1    2    0  503  0.38960978877E+02  0.78943766328E+02 -0.34093296595E+03  0.39329879026E+03  0.17521008827E+03 0.  0.
        -24    2    3    3    0    0 -0.42477991543E+02  0.67217044747E+02 -0.19120163191E+03  0.22238540782E+03  0.81084491105E+02 0.  0.
          6    2    1    2  501    0 -0.38960978877E+02 -0.78943766328E+02 -0.30936391691E+03  0.36562165888E+03  0.17384788823E+03 0.  0.
         24    2    5    5    0    0  0.13956844816E+01 -0.79976546417E+02 -0.95363627795E+02  0.14779617678E+03  0.79694996410E+02 0.  0.
          5    1    5    5  501    0 -0.40356663359E+02  0.10327800887E+01 -0.21400028911E+03  0.21782548210E+03  0.47000000000E+01 0. -1.
        -13    1    6    6    0    0 -0.29637756914E+02 -0.20387355845E+02 -0.67636847499E+01  0.36603119329E+02  0.00000000000E+00 0.  1.
         14    1    6    6    0    0  0.31033441395E+02 -0.59589190572E+02 -0.88599943045E+02  0.11119305745E+03  0.00000000000E+00 0. -1.
         -5    1    3    3    0  503  0.81438970421E+02  0.11726721581E+02 -0.14973133405E+03  0.17091338244E+03  0.47000000000E+01 0.  1.
         11    1    4    4    0    0 -0.11951074556E+02  0.50439297715E+02 -0.35480321155E+02  0.62815636002E+02  0.00000000000E+00 0. -1.
        -12    1    4    4    0    0 -0.30526916988E+02  0.16777747032E+02 -0.15572131075E+03  0.15956977182E+03  0.00000000000E+00 0.  1.
</event>
<event>
12    1  0.8133506E-002  0.2331194E+03  0.7818608E-02  0.1125052E+00
         21   -1    0    0  501  502  0.00000000000E+00  0.00000000000E+00  0.16476046953E+03  0.16476046953E+03  0.00000000000E+00 0. -1.
         21   -1    0    0  502  503 -0.00000000000E+00 -0.00000000000E+00 -0.34625400511E+03  0.34625400511E+03  0.00000000000E+00 0. -1.
         -6    2    1    2    0  503 -0.11734626361E+03  0.10622491231E+03 -0.15331122616E+03  0.27619769519E+03  0.16651413509E+03 0.  0.
        -24    2    3    3    0    0 -0.33709706888E+02  0.67203635495E+01 -0.67477310388E+02  0.12035874004E+03  0.93549619256E+02 0.  0.
          6    2    1    2  501    0  0.11734626361E+03 -0.10622491231E+03 -0.28182309421E+02  0.23481677945E+03  0.17114555141E+03 0.  0.
         24    2    5    5    0    0  0.87408542160E+02 -0.29281834886E+02  0.39171752957E+02  0.12816236534E+03  0.79959280658E+02 0.  0.
          5    1    5    5  501    0  0.29937721449E+02 -0.76943077426E+02 -0.67354062378E+02  0.10665441411E+03  0.47000000000E+01 0. -1.
        -11    1    6    6    0    0  0.37984994208E+02  0.59520964803E+01 -0.20048561034E+02  0.43361642462E+02  0.00000000000E+00 0.  1.
         12    1    6    6    0    0  0.49423547953E+02 -0.35233931366E+02  0.59220313990E+02  0.84800722879E+02  0.00000000000E+00 0. -1.
         -5    1    3    3    0  503 -0.83636556721E+02  0.99504548763E+02 -0.85833915771E+02  0.15583895515E+03  0.47000000000E+01 0.  1.
         13    1    4    4    0    0 -0.42158132800E+02 -0.34978150892E+02 -0.50647295532E+02  0.74605145572E+02  0.00000000000E+00 0. -1.
        -14    1    4    4    0    0  0.84484259125E+01  0.41698514442E+02 -0.16830014856E+02  0.45753594472E+02  0.00000000000E+00 0.  1.
</event>
<event>
12    1  0.8133506E-002  0.1865691E+03  0.7818608E-02  0.1161837E+00
         21   -1    0    0  503  502  0.00000000000E+00  0.00000000000E+00  0.32139078278E+03  0.32139078278E+03  0.00000000000E+00 0. -1.
         21   -1    0    0  501  503 -0.00000000000E+00 -0.00000000000E+00 -0.11919336372E+03  0.11919336372E+03  0.00000000000E+00 0. -1.
          6    2    1    2  501    0 -0.64509926480E+02  0.27845930606E+02  0.16926479436E+03  0.25113079841E+03  0.17169502275E+03 0.  0.
         24    2    3    3    0    0  0.24003102465E+01  0.70078388072E+02  0.10100308464E+03  0.14652529542E+03  0.79695025743E+02 0.  0.
         -6    2    1    2    0  502  0.64509926480E+02 -0.27845930606E+02  0.32932624708E+02  0.18945334808E+03  0.17283253995E+03 0.  0.
        -24    2    5    5    0    0  0.69436000076E+02 -0.12439816785E+02 -0.38808009767E+02  0.11576194303E+03  0.83178474880E+02 0.  0.
          5    1    3    3  501    0 -0.66910236726E+02 -0.42232457466E+02  0.68261709715E+02  0.10460550299E+03  0.47000000000E+01 0. -1.
        -13    1    4    4    0    0 -0.23132919770E+01  0.67021240715E+02  0.26973058157E+02  0.72282389924E+02  0.00000000000E+00 0.  1.
         14    1    4    4    0    0  0.47136022235E+01  0.30571473569E+01  0.74030026485E+02  0.74242905501E+02  0.00000000000E+00 0. -1.
         -5    1    5    5    0  502 -0.49260735970E+01 -0.15406113821E+02  0.71740634474E+02  0.73691405055E+02  0.47000000000E+01 0.  1.
         11    1    6    6    0    0  0.32668182360E+02  0.30999005377E+02  0.30159343296E+01  0.45135843106E+02  0.00000000000E+00 0. -1.
        -12    1    6    6    0    0  0.36767817717E+02 -0.43438822162E+02 -0.41823944096E+02  0.70626099922E+02  0.00000000000E+00 0.  1.
</event>
<event>
12    1  0.8133506E-002  0.1721271E+03  0.7818608E-02  0.1176041E+00
         21   -1    0    0  503  502  0.00000000000E+00  0.00000000000E+00  0.17527545417E+03  0.17527545417E+03  0.00000000000E+00 0.  1.
         21   -1    0    0  501  503 -0.00000000000E+00 -0.00000000000E+00 -0.43101897470E+03  0.43101897470E+03  0.00000000000E+00 0.  1.
          6    2    1    2  501    0 -0.38795473365E+01 -0.10183740158E+02 -0.36466576482E+03  0.40259907167E+03  0.17025314395E+03 0.  0.
         24    2    3    3    0    0 -0.29447141312E+02  0.46315575265E+02 -0.14817025531E+03  0.17734750088E+03  0.80532259788E+02 0.  0.
         -6    2    1    2    0  502  0.38795473365E+01  0.10183740158E+02  0.10892224429E+03  0.20369535720E+03  0.17178179121E+03 0.  0.
        -24    2    5    5    0    0  0.33352517681E+02 -0.27142716437E+02  0.13633004845E+02  0.97093061266E+02  0.85977242533E+02 0.  0.
          5    1    3    3  501    0  0.25567593976E+02 -0.56499315423E+02 -0.21649550951E+03  0.22525157079E+03  0.47000000000E+01 0. -1.
        -11    1    4    4    0    0 -0.41130966338E+02  0.50411474954E+02 -0.15119750542E+03  0.16460181908E+03  0.00000000000E+00 0.  1.
         12    1    4    4    0    0  0.11683825026E+02 -0.40958996893E+01  0.30272501046E+01  0.12745681806E+02  0.00000000000E+00 0. -1.
         -5    1    5    5    0  502 -0.29472970345E+02  0.37326456596E+02  0.95289239447E+02  0.10660229593E+03  0.47000000000E+01 0.  1.
         11    1    6    6    0    0  0.53610695219E+02 -0.15131772397E+02  0.34587250711E+02  0.65569467662E+02  0.00000000000E+00 0. -1.
        -12    1    6    6    0    0 -0.20258177538E+02 -0.12010944040E+02 -0.20954245866E+02  0.31523593604E+02  0.00000000000E+00 0.  1.
</event>
<event>
12    1  0.8133506E-002  0.1805146E+03  0.7818608E-02  0.1167330E+00
         21   -1    0    0  501  502  0.00000000000E+00  0.00000000000E+00  0.10312051997E+03  0.10312051997E+03  0.00000000000E+00 0.  1.
         21   -1    0    0  502  503 -0.00000000000E+00 -0.00000000000E+00 -0.62141478185E+03  0.62141478185E+03  0.00000000000E+00 0.  1.
         -6    2    1    2    0  503 -0.47674412165E+02 -0.30851126221E+02 -0.51315684451E+03  0.54394761241E+03  0.17124373395E+03 0.  0.
        -24    2    3    3    0    0 -0.34829354973E+02 -0.86862063548E+02 -0.33789430217E+03  0.35944484999E+03  0.79182944451E+02 0.  0.
          6    2    1    2  501    0  0.47674412165E+02  0.30851126221E+02 -0.51374173751E+01  0.18058768941E+03  0.17135016471E+03 0.  0.
         24    2    5    5    0    0  0.73780520848E+02  0.70727081798E+02 -0.17199382430E+02  0.13119941403E+03  0.80446144285E+02 0.  0.
          5    1    5    5  501    0 -0.26106108683E+02 -0.39875955577E+02  0.12061965055E+02  0.49388275377E+02  0.47000000000E+01 0. -1.
        -13    1    6    6    0    0  0.81302843405E+02  0.31030071774E+02 -0.23897067474E+02  0.90244598364E+02  0.00000000000E+00 0.  1.
         14    1    6    6    0    0 -0.75223225569E+01  0.39697010024E+02  0.66976850442E+01  0.40954815669E+02  0.00000000000E+00 0. -1.
         -5    1    3    3    0  503 -0.12845057192E+02  0.56010937327E+02 -0.17526254234E+03  0.18450276242E+03  0.47000000000E+01 0.  1.
         13    1    4    4    0    0  0.15711742607E+02 -0.24642178461E+02 -0.32509377559E+02  0.43714476370E+02  0.00000000000E+00 0. -1.
        -14    1    4    4    0    0 -0.50541097580E+02 -0.62219885087E+02 -0.30538492461E+03  0.31573037362E+03  0.00000000000E+00 0.  1.
</event>
<event>
12    1  0.8133506E-002  0.1819557E+03  0.7818608E-02  0.1166074E+00
         21   -1    0    0  501  502  0.00000000000E+00  0.00000000000E+00  0.13724874578E+03  0.13724874578E+03  0.00000000000E+00 0.  1.
         21   -1    0    0  502  503 -0.00000000000E+00 -0.00000000000E+00 -0.27048382897E+03  0.27048382897E+03  0.00000000000E+00 0.  1.
         -6    2    1    2    0  503 -0.37354981551E+02 -0.44801741331E+02 -0.13451370313E+03  0.22577238809E+03  0.17168763561E+03 0.  0.
        -24    2    3    3    0    0  0.34340717714E+02 -0.11175357504E+01 -0.28164427196E+02  0.90196425608E+02  0.78496028268E+02 0.  0.
          6    2    1    2  501    0  0.37354981551E+02  0.44801741331E+02  0.12786199495E+01  0.18196018666E+03  0.17235220912E+03 0.  0.
         24    2    5    5    0    0  0.90930771950E+02  0.33498993604E+02  0.12172638024E+02  0.12593441534E+03  0.79502930697E+02 0.  0.
          5    1    5    5  501    0 -0.53575790399E+02  0.11302747727E+02 -0.10894018075E+02  0.56025771328E+02  0.47000000000E+01 0. -1.
        -13    1    6    6    0    0  0.32415013866E+02  0.53181122014E+02 -0.30229449407E+01  0.62354655470E+02  0.00000000000E+00 0.  1.
         14    1    6    6    0    0  0.58515758084E+02 -0.19682128410E+02  0.15195582965E+02  0.63579759865E+02  0.00000000000E+00 0. -1.
         -5    1    3    3    0  503 -0.71695699265E+02 -0.43684205580E+02 -0.10634927594E+03  0.13557596248E+03  0.47000000000E+01 0.  1.
         11    1    4    4    0    0  0.27434735671E+02 -0.37345960872E+02 -0.49166827772E+01  0.46599992321E+02  0.00000000000E+00 0. -1.
        -12    1    4    4    0    0  0.69059820429E+01  0.36228425121E+02 -0.23247744419E+02  0.43596433286E+02  0.00000000000E+00 0.  1.
</event>
<event>
12    1  0.8133506E-002  0.3293866E+03  0.7818608E-02  0.1071428E+00
         21   -1    0    0  501  502  0.00000000000E+00  0.00000000000E+00  0.18399013283E+03  0.18399013283E+03  0.00000000000E+00 0.  1.
         21   -1    0    0  502  503 -0.00000000000E+00 -0.00000000000E+00 -0.10187262380E+04  0.10187262380E+04  0.00000000000E+00 0. -1.
         -6    2    1    2    0  503 -0.20700735184E+03  0.19048595054E+03 -0.80770981499E+03  0.87222282283E+03  0.17099873206E+03 0.  0.
        -24    2    3    3    0    0 -0.11836470520E+03  0.11870012209E+03 -0.65993819496E+03  0.68548968261E+03  0.79232325339E+02 0.  0.
          6    2    1    2  501    0  0.20700735184E+03 -0.19048595054E+03 -0.27026290200E+02  0.33049354802E+03  0.17134358422E+03 0.  0.
         24    2    5    5    0    0  0.71812441934E+02 -0.13598723859E+03 -0.56484611213E+02  0.18170626380E+03  0.78594523500E+02 0.  0.
          5    1    5    5  501    0  0.13519490991E+03 -0.54498711944E+02  0.29458321013E+02  0.14878728422E+03  0.47000000000E+01 0. -1.
        -11    1    6    6    0    0  0.71762663777E+02 -0.68825077142E+02 -0.98031039509E+01  0.99914323313E+02  0.00000000000E+00 0.  1.
         12    1    6    6    0    0  0.49778156697E-01 -0.67162161453E+02 -0.46681507262E+02  0.81791940490E+02  0.00000000000E+00 0. -1.
         -5    1    3    3    0  503 -0.88642646642E+02  0.71785828448E+02 -0.14777162003E+03  0.18673314022E+03  0.47000000000E+01 0.  1.
         11    1    4    4    0    0 -0.10529202431E+03  0.12676073347E+03 -0.63636736478E+03  0.65735691743E+03  0.00000000000E+00 0. -1.
        -12    1    4    4    0    0 -0.13072680888E+02 -0.80606113827E+01 -0.23570830181E+02  0.28132765184E+02  0.00000000000E+00 0.  1.
</event>
<event>
12    1  0.8133506E-002  0.2023080E+03  0.7818608E-02  0.1147992E+00
         21   -1    0    0  501  502  0.00000000000E+00  0.00000000000E+00  0.26419403683E+03  0.26419403683E+03  0.00000000000E+00 0. -1.
         21   -1    0    0  502  503 -0.00000000000E+00 -0.00000000000E+00 -0.16510322946E+03  0.16510322946E+03  0.00000000000E+00 0. -1.
         -6    2    1    2    0  503 -0.10323962601E+03 -0.24378463236E+02  0.10471963000E+03  0.22780410810E+03  0.17226659836E+03 0.  0.
        -24    2    3    3    0    0 -0.10834628744E+03  0.19161159912E+02  0.11952402635E+03  0.18129564729E+03  0.80473913793E+02 0.  0.
          6    2    1    2  501    0  0.10323962601E+03  0.24378463236E+02 -0.56288226192E+01  0.20149315820E+03  0.17121646914E+03 0.  0.
         24    2    5    5    0    0  0.91580873134E+02  0.11708771782E+01  0.57458194684E+02  0.13310763106E+03  0.77638714780E+02 0.  0.
          5    1    5    5  501    0  0.11658752879E+02  0.23207586058E+02 -0.63087017303E+02  0.68385527135E+02  0.47000000000E+01 0. -1.
        -13    1    6    6    0    0  0.99309944998E+01 -0.28739688918E+02  0.27893590271E+02  0.41263140320E+02  0.00000000000E+00 0.  1.
         14    1    6    6    0    0  0.81649878635E+02  0.29910566096E+02  0.29564604413E+02  0.91844490740E+02  0.00000000000E+00 0. -1.
         -5    1    3    3    0  503  0.51066614309E+01 -0.43539623147E+02 -0.14804396351E+02  0.46508460801E+02  0.47000000000E+01 0.  1.
         11    1    4    4    0    0 -0.60000122988E+02 -0.24255479649E+02  0.31748869460E+02  0.72085600251E+02  0.00000000000E+00 0. -1.
        -12    1    4    4    0    0 -0.48346164456E+02  0.43416639561E+02  0.87775156888E+02  0.10921004704E+03  0.00000000000E+00 0.  1.
</event>
<event>
12    1  0.8133506E-002  0.1904993E+03  0.7818608E-02  0.1158325E+00
         21   -1    0    0  501  502  0.00000000000E+00  0.00000000000E+00  0.15561998758E+03  0.15561998758E+03  0.00000000000E+00 0.  1.
         21   -1    0    0  502  503 -0.00000000000E+00 -0.00000000000E+00 -0.31381617715E+03  0.31381617715E+03  0.00000000000E+00 0.  1.
         -6    2    1    2    0  503  0.73634201106E+02  0.29478539340E+02 -0.19909726344E+03  0.27459554863E+03  0.17167415403E+03 0.  0.
        -24    2    3    3    0    0  0.77640648132E+02  0.75259989114E+02 -0.84518661826E+02  0.15105471040E+03  0.63102972459E+02 0.  0.
          6    2    1    2  501    0 -0.73634201106E+02 -0.29478539340E+02  0.40901073865E+02  0.19484061610E+03  0.17320215930E+03 0.  0.
         24    2    5    5    0    0 -0.85478872059E+02 -0.77047739997E+02  0.42445195309E+02  0.14556994134E+03  0.78396565030E+02 0.  0.
          5    1    5    5  501    0  0.11844670954E+02  0.47569200657E+02 -0.15441214438E+01  0.49270674769E+02  0.47000000000E+01 0. -1.
        -13    1    6    6    0    0 -0.26369046293E+02  0.11918837437E+02  0.23082629145E+02  0.37016118874E+02  0.00000000000E+00 0.  1.
         14    1    6    6    0    0 -0.59109825767E+02 -0.88966577435E+02  0.19362566163E+02  0.10855382246E+03  0.00000000000E+00 0. -1.
         -5    1    3    3    0  503 -0.40064470267E+01 -0.45781449773E+02 -0.11457860162E+03  0.12354083823E+03  0.47000000000E+01 0.  1.
         11    1    4    4    0    0 -0.36530500423E+01  0.47382908753E+01  0.74053522796E+01  0.95202635160E+01  0.00000000000E+00 0. -1.
        -12    1    4    4    0    0  0.81293698175E+02  0.70521698238E+02 -0.91924014105E+02  0.14153444688E+03  0.00000000000E+00 0.  1.
</event>
<event>
12    1  0.8133506E-002  0.2316342E+03  0.7818608E-02  0.1125702E+00
         21   -1    0    0  503  502  0.00000000000E+00  0.00000000000E+00  0.22511610010E+03  0.22511610010E+03  0.00000000000E+00 0.  1.
         21   -1    0    0  501  503 -0.00000000000E+00 -0.00000000000E+00 -0.24567479633E+03  0.24567479633E+03  0.00000000000E+00 0. -1.
          6    2    1    2  501    0  0.94644368743E+02 -0.12050799921E+03 -0.54220020164E+02  0.23789542705E+03  0.17370863310E+03 0.  0.
         24    2    3    3    0    0 -0.17781583054E+02 -0.66749127245E+02 -0.18984476640E+02  0.10830667568E+03  0.81229889573E+02 0.  0.
         -6    2    1    2    0  502 -0.94644368743E+02  0.12050799921E+03  0.33661323933E+02  0.23289546939E+03  0.17212635046E+03 0.  0.
        -24    2    5    5    0    0 -0.97365871879E+02  0.44186505938E+02 -0.26299504549E+02  0.13568555288E+03  0.79286474300E+02 0.  0.
          5    1    3    3  501    0  0.11242595180E+03 -0.53758871968E+02 -0.35235543524E+02  0.12958875136E+03  0.47000000000E+01 0. -1.
        -13    1    4    4    0    0 -0.34181291906E+01 -0.21782711334E+02 -0.48052580875E+02  0.52869846312E+02  0.00000000000E+00 0.  1.
         14    1    4    4    0    0 -0.14363453863E+02 -0.44966415911E+02  0.29068104235E+02  0.55436829370E+02  0.00000000000E+00 0. -1.
         -5    1    5    5    0  502  0.27215031354E+01  0.76321493275E+02  0.59960828482E+02  0.97209916507E+02  0.47000000000E+01 0.  1.
         13    1    6    6    0    0 -0.25638150384E+00  0.16979881989E+02 -0.30325503183E+02  0.34756557181E+02  0.00000000000E+00 0. -1.
        -14    1    6    6    0    0 -0.97109490375E+02  0.27206623949E+02  0.40259986335E+01  0.10092899570E+03  0.00000000000E+00 0.  1.
</event>
<event>
12    1  0.8133506E-002  0.1812862E+03  0.7818608E-02  0.1167444E+00
         21   -1    0    0  503  502  0.00000000000E+00  0.00000000000E+00  0.12430095812E+03  0.12430095812E+03  0.00000000000E+00 0. -1.
         21   -1    0    0  501  503 -0.00000000000E+00 -0.00000000000E+00 -0.29697441415E+03  0.29697441415E+03  0.00000000000E+00 0. -1.
          6    2    1    2  501    0  0.35902349648E+02 -0.46185329684E+02 -0.16076827998E+03  0.23959867611E+03  0.16774689969E+03 0.  0.
         24    2    3    3    0    0 -0.32005071695E+01 -0.25640881817E+02 -0.12248766894E+02  0.84578537039E+02  0.79597729684E+02 0.  0.
         -6    2    1    2    0  502 -0.35902349648E+02  0.46185329684E+02 -0.11905176043E+02  0.18167669616E+03  0.17158853494E+03 0.  0.
        -24    2    5    5    0    0 -0.61916479224E+02  0.86024108719E+02  0.47749924842E+00  0.13228758906E+03  0.79157946750E+02 0.  0.
          5    1    3    3  501    0  0.39102856817E+02 -0.20544447867E+02 -0.14851951309E+03  0.15502013907E+03  0.47000000000E+01 0. -1.
        -13    1    4    4    0    0 -0.20422899674E+02  0.15982364435E+02 -0.26749225598E+02  0.37256568201E+02  0.00000000000E+00 0.  1.
         14    1    4    4    0    0  0.17222392505E+02 -0.41623246252E+02  0.14500458704E+02  0.47321968838E+02  0.00000000000E+00 0. -1.
         -5    1    5    5    0  502  0.26014129576E+02 -0.39838779035E+02 -0.12382675292E+02  0.49389107098E+02  0.47000000000E+01 0.  1.
         11    1    6    6    0    0 -0.14756613353E+02  0.41499895369E+02  0.37290412828E+02  0.57711124077E+02  0.00000000000E+00 0. -1.
        -12    1    6    6    0    0 -0.47159865870E+02  0.44524213350E+02 -0.36812913580E+02  0.74576464984E+02  0.00000000000E+00 0.  1.
</event>
<event>
12    1  0.8133506E-002  0.2964541E+03  0.7818608E-02  0.1087031E+00
         21   -1    0    0  501  502  0.00000000000E+00  0.00000000000E+00  0.34026165107E+03  0.34026165107E+03  0.00000000000E+00 0.  1.
         21   -1    0    0  502  503 -0.00000000000E+00 -0.00000000000E+00 -0.33369698369E+03  0.33369698369E+03  0.00000000000E+00 0. -1.
         -6    2    1    2    0  503  0.75069888592E+02  0.22940612100E+03 -0.15694412308E+03  0.33543482030E+03  0.17211160441E+03 0.  0.
        -24    2    3    3    0    0  0.68547311073E+01  0.17321485376E+03 -0.15980481722E+03  0.24688517436E+03  0.73241633041E+02 0.  0.
          6    2    1    2  501    0 -0.75069888592E+02 -0.22940612100E+03  0.16350879046E+03  0.33852381446E+03  0.17204822543E+03 0.  0.
         24    2    5    5    0    0 -0.65487240194E+02 -0.22703063615E+03  0.18770439392E+03  0.31197221742E+03  0.79134294500E+02 0.  0.
          5    1    5    5  501    0 -0.95826483984E+01 -0.23754848531E+01 -0.24195603460E+02  0.26551597040E+02  0.47000000000E+01 0. -1.
        -11    1    6    6    0    0 -0.63218766243E+02 -0.10662907532E+03  0.64686862829E+02  0.13982404060E+03  0.00000000000E+00 0.  1.
         12    1    6    6    0    0 -0.22684739506E+01 -0.12040156083E+03  0.12301753109E+03  0.17214817682E+03  0.00000000000E+00 0. -1.
         -5    1    3    3    0  503  0.68215157485E+02  0.56191267244E+02  0.28606941357E+01  0.88549645940E+02  0.47000000000E+01 0.  1.
         13    1    4    4    0    0  0.34551802246E+02  0.43521185470E+02 -0.47505477973E+02  0.73107394021E+02  0.00000000000E+00 0. -1.
        -14    1    4    4    0    0 -0.27697071139E+02  0.12969366829E+03 -0.11229933924E+03  0.17377778034E+03  0.00000000000E+00 0.  1.
</event>
<event>
12    1  0.8133506E-002  0.2106691E+03  0.7818608E-02  0.1141127E+00
         21   -1    0    0  501  502  0.00000000000E+00  0.00000000000E+00  0.23872299005E+03  0.23872299005E+03  0.00000000000E+00 0. -1.
         21   -1    0    0  502  503 -0.00000000000E+00 -0.00000000000E+00 -0.24953279423E+03  0.24953279423E+03  0.00000000000E+00 0. -1.
         -6    2    1    2    0  503  0.56268950098E+01  0.11643175646E+03 -0.12905880972E+03  0.24666875540E+03  0.17493222306E+03 0.  0.
        -24    2    3    3    0    0 -0.82351750397E+01 -0.13728225111E+01 -0.13028923865E+02  0.80671465589E+02  0.79173415700E+02 0.  0.
          6    2    1    2  501    0 -0.56268950098E+01 -0.11643175646E+03  0.11824900554E+03  0.24158702888E+03  0.17548062387E+03 0.  0.
         24    2    5    5    0    0 -0.21985883410E+02 -0.14016412783E+03  0.54601883639E+02  0.17155926240E+03  0.79510081254E+02 0.  0.
          5    1    5    5  501    0  0.16358988400E+02  0.23732371365E+02  0.63647121900E+02  0.70027766480E+02  0.47000000000E+01 0. -1.
        -11    1    6    6    0    0  0.11825611756E+02 -0.10590413723E+02 -0.13938468820E+02  0.21125408145E+02  0.00000000000E+00 0.  1.
         12    1    6    6    0    0 -0.33811495166E+02 -0.12957371410E+03  0.68540352460E+02  0.15043385426E+03  0.00000000000E+00 0. -1.
         -5    1    3    3    0  503  0.13862070050E+02  0.11780457897E+03 -0.11602988585E+03  0.16599728981E+03  0.47000000000E+01 0.  1.
         11    1    4    4    0    0  0.60334205277E+01  0.36367213924E+02  0.35834590162E+01  0.37038055975E+02  0.00000000000E+00 0. -1.
        -12    1    4    4    0    0 -0.14268595567E+02 -0.37740036435E+02 -0.16612382881E+02  0.43633409614E+02  0.00000000000E+00 0.  1.
</event>
<event>
12    1  0.8133506E-002  0.2021888E+03  0.7818608E-02  0.1148146E+00
         21   -1    0    0  503  502  0.00000000000E+00  0.00000000000E+00  0.18481891941E+03  0.18481891941E+03  0.00000000000E+00 0. -1.
         21   -1    0    0  501  503 -0.00000000000E+00 -0.00000000000E+00 -0.25940757505E+03  0.25940757505E+03  0.00000000000E+00 0. -1.
          6    2    1    2  501    0 -0.41508048157E+02 -0.98256236010E+02 -0.12402914075E+03  0.23719934744E+03  0.17176465496E+03 0.  0.
         24    2    3    3    0    0  0.38135498369E+02 -0.43968814580E+02 -0.32673948059E+02  0.10431563940E+03  0.80166033025E+02 0.  0.
         -6    2    1    2    0  502  0.41508048157E+02  0.98256236010E+02  0.49440485114E+02  0.20702714702E+03  0.17040737091E+03 0.  0.
        -24    2    5    5    0    0  0.29682040666E+02  0.12110549899E+03  0.77744479431E+02  0.16848951131E+03  0.82443592340E+02 0.  0.
          5    1    3    3  501    0 -0.79643546526E+02 -0.54287421429E+02 -0.91355192690E+02  0.13288370803E+03  0.47000000000E+01 0. -1.
        -11    1    4    4    0    0  0.84692908277E+01  0.19764270534E+02 -0.25941867137E+02  0.33694743618E+02  0.00000000000E+00 0.  1.
         12    1    4    4    0    0  0.29666207541E+02 -0.63733085115E+02 -0.67320809217E+01  0.70620895786E+02  0.00000000000E+00 0. -1.
         -5    1    5    5    0  502  0.11826007491E+02 -0.22849262977E+02 -0.28303994317E+02  0.38537635709E+02  0.47000000000E+01 0.  1.
         11    1    6    6    0    0 -0.45515653174E+01  0.77768421921E+02  0.62546979542E+01  0.78152194092E+02  0.00000000000E+00 0. -1.
        -12    1    6    6    0    0  0.34233605984E+02  0.43337077066E+02  0.71489781477E+02  0.90337317222E+02  0.00000000000E+00 0.  1.
</event>
<event>
12    1  0.8133506E-002  0.2229646E+03  0.7818608E-02  0.1131757E+00
         21   -1    0    0  501  502  0.00000000000E+00  0.00000000000E+00  0.17718285263E+03  0.17718285263E+03  0.00000000000E+00 0.  1.
         21   -1    0    0  502  503 -0.00000000000E+00 -0.00000000000E+00 -0.33720959701E+03  0.33720959701E+03  0.00000000000E+00 0.  1.
         -6    2    1    2    0  503 -0.57431013756E+02 -0.12756226448E+03 -0.18588070480E+03  0.29028406368E+03  0.17361667130E+03 0.  0.
        -24    2    3    3    0    0 -0.75010719846E+02 -0.12542755961E+02 -0.80752664641E+02  0.13340025880E+03  0.74099307579E+02 0.  0.
          6    2    1    2  501    0  0.57431013756E+02  0.12756226448E+03  0.25853960412E+02  0.22410838596E+03  0.17316376274E+03 0.  0.
         24    2    5    5    0    0 -0.32109656709E+02  0.76097743427E+02  0.32113076311E+02  0.12053524694E+03  0.81704341839E+02 0.  0.
          5    1    5    5  501    0  0.89540670465E+02  0.51464521050E+02 -0.62591158991E+01  0.10357313902E+03  0.47000000000E+01 0. -1.
        -11    1    6    6    0    0 -0.39080367077E+02  0.76221465680E+02  0.51490850278E+02  0.99941455781E+02  0.00000000000E+00 0.  1.
         12    1    6    6    0    0  0.69707103685E+01 -0.12372225273E+00 -0.19377773967E+02  0.20593791156E+02  0.00000000000E+00 0. -1.
         -5    1    3    3    0  503  0.17579706089E+02 -0.11501950852E+03 -0.10512804016E+03  0.15688380488E+03  0.47000000000E+01 0.  1.
         11    1    4    4    0    0 -0.24669070434E+02 -0.27628935333E+02 -0.70813066095E+02  0.79915026331E+02  0.00000000000E+00 0. -1.
        -12    1    4    4    0    0 -0.50341649412E+02  0.15086179372E+02 -0.99395985462E+01  0.53485232474E+02  0.00000000000E+00 0.  1.
</event>
<event>
12    1  0.8133506E-002  0.2050326E+03  0.7818608E-02  0.1145835E+00
         21   -1    0    0  503  502  0.00000000000E+00  0.00000000000E+00  0.27186491287E+03  0.27186491287E+03  0.00000000000E+00 0. -1.
         21   -1    0    0  501  503 -0.00000000000E+00 -0.00000000000E+00 -0.15532252194E+03  0.15532252194E+03  0.00000000000E+00 0. -1.
          6    2    1    2  501    0 -0.10845027657E+03  0.13933311246E+02  0.35740190423E+02  0.20680736035E+03  0.17186134945E+03 0.  0.
         24    2    3    3    0    0 -0.12674571758E+03 -0.30824147294E+02  0.40498501367E+02  0.15799460813E+03  0.79420164983E+02 0.  0.
         -6    2    1    2    0  502  0.10845027657E+03 -0.13933311246E+02  0.80802200506E+02  0.22038007445E+03  0.17344388706E+03 0.  0.
        -24    2    5    5    0    0  0.65492605212E+02 -0.76080706617E+02  0.59314635875E+02  0.14169420714E+03  0.80507558975E+02 0.  0.
          5    1    3    3  501    0  0.18295441001E+02  0.44757458540E+02 -0.47583109442E+01  0.48812752221E+02  0.47000000000E+01 0. -1.
        -11    1    4    4    0    0  0.36375379078E+01  0.93827368619E+00 -0.12996730481E+02  0.13528748749E+02  0.00000000000E+00 0.  1.
         12    1    4    4    0    0 -0.13038325548E+03 -0.31762420980E+02  0.53495231848E+02  0.14446585938E+03  0.00000000000E+00 0. -1.
         -5    1    5    5    0  502  0.42957671363E+02  0.62147395371E+02  0.21487564631E+02  0.78685867309E+02  0.47000000000E+01 0.  1.
         13    1    6    6    0    0  0.77372834211E+02 -0.33690685450E+02  0.34594842761E+02  0.91205377613E+02  0.00000000000E+00 0. -1.
        -14    1    6    6    0    0 -0.11880229000E+02 -0.42390021167E+02  0.24719793114E+02  0.50488829529E+02  0.00000000000E+00 0.  1.
</event>
<event>
12    1  0.8133506E-002  0.1904772E+03  0.7818608E-02  0.1158191E+00
         21   -1    0    0  503  502  0.00000000000E+00  0.00000000000E+00  0.67395673459E+02  0.67395673459E+02  0.00000000000E+00 0. -1.
         21   -1    0    0  501  503 -0.00000000000E+00 -0.00000000000E+00 -0.63726995503E+03  0.63726995503E+03  0.00000000000E+00 0. -1.
          6    2    1    2  501    0 -0.46426460317E+02 -0.66362424239E+02 -0.14516698687E+03  0.23948908896E+03  0.17240122414E+03 0.  0.
         24    2    3    3    0    0 -0.61768478138E+02 -0.14012505536E+02 -0.20195935496E+02  0.10304955957E+03  0.78737797239E+02 0.  0.
         -6    2    1    2    0  502  0.46426460317E+02  0.66362424239E+02 -0.42470729470E+03  0.46517653953E+03  0.17162033442E+03 0.  0.
        -24    2    5    5    0    0  0.47646350358E+02  0.10883351877E+03 -0.28641866888E+03  0.32043153605E+03  0.80782460338E+02 0.  0.
          5    1    3    3  501    0  0.15342017821E+02 -0.52349918703E+02 -0.12497105137E+03  0.13643952939E+03  0.47000000000E+01 0. -1.
        -13    1    4    4    0    0  0.15411225100E+02 -0.22856861714E+01  0.10904778850E+02  0.19016950916E+02  0.00000000000E+00 0.  1.
         14    1    4    4    0    0 -0.77179703238E+02 -0.11726819364E+02 -0.31100714346E+02  0.84032608654E+02  0.00000000000E+00 0. -1.
         -5    1    5    5    0  502 -0.12198900411E+01 -0.42471094531E+02 -0.13828862582E+03  0.14474500348E+03  0.47000000000E+01 0.  1.
         11    1    6    6    0    0  0.34755864879E+02  0.16399343741E+02 -0.34000231499E+02  0.51312029395E+02  0.00000000000E+00 0. -1.
        -12    1    6    6    0    0  0.12890485479E+02  0.92434175029E+02 -0.25241843738E+03  0.26911950665E+03  0.00000000000E+00 0.  1.
</event>
<event>
12    1  0.8133506E-002  0.2037925E+03  0.7818608E-02  0.1146768E+00
         21   -1    0    0  503  502  0.00000000000E+00  0.00000000000E+00  0.44660804699E+03  0.44660804699E+03  0.00000000000E+00 0.  1.
         21   -1    0    0  501  503 -0.00000000000E+00 -0.00000000000E+00 -0.10940200541E+03  0.10940200541E+03  0.00000000000E+00 0.  1.
          6    2    1    2  501    0  0.80694834526E+02 -0.81152931256E+02  0.59247915252E+02  0.21134773836E+03  0.16751148163E+03 0.  0.
         24    2    3    3    0    0  0.11134772652E+03 -0.34930577342E+02  0.33541291661E+02  0.15003683978E+03  0.88133839192E+02 0.  0.
         -6    2    1    2    0  502 -0.80694834526E+02  0.81152931256E+02  0.27795812632E+03  0.34466231403E+03  0.16862365242E+03 0.  0.
        -24    2    5    5    0    0 -0.12034354368E+03  0.62231249567E+02  0.19557808826E+03  0.25118177677E+03  0.80536944607E+02 0.  0.
          5    1    3    3  501    0 -0.30652891990E+02 -0.46222353914E+02  0.25706623590E+02  0.61310898583E+02  0.47000000000E+01 0. -1.
        -11    1    4    4    0    0  0.46687049654E+02 -0.36707777101E+02 -0.23425758325E+02  0.63842835606E+02  0.00000000000E+00 0.  1.
         12    1    4    4    0    0  0.64660676862E+02  0.17771997595E+01  0.56967049986E+02  0.86194004173E+02  0.00000000000E+00 0. -1.
         -5    1    5    5    0  502  0.39648709154E+02  0.18921681688E+02  0.82380038064E+02  0.93480537263E+02  0.47000000000E+01 0.  1.
         11    1    6    6    0    0  0.86310369268E+01  0.12883591665E+02  0.59709369984E+01  0.16617274784E+02  0.00000000000E+00 0. -1.
        -12    1    6    6    0    0 -0.12897458061E+03  0.49347657903E+02  0.18960715126E+03  0.23456450199E+03  0.00000000000E+00 0.  1.
</event>
<event>
12    1  0.8133506E-002  0.2256517E+03  0.7818608E-02  0.1130427E+00
         21   -1    0    0  501  502  0.00000000000E+00  0.00000000000E+00  0.19860503729E+03  0.19860503729E+03  0.00000000000E+00 0. -1.
         21   -1    0    0  502  503 -0.00000000000E+00 -0.00000000000E+00 -0.38050604546E+03  0.38050604546E+03  0.00000000000E+00 0. -1.
         -6    2    1    2    0  503  0.10864339211E+03 -0.93236650920E+02 -0.25864297534E+03  0.34076677185E+03  0.16949732854E+03 0.  0.
        -24    2    3    3    0    0  0.60318919751E+02 -0.88324402978E+02 -0.25989513626E+03  0.29195035335E+03  0.79056655164E+02 0.  0.
          6    2    1    2  501    0 -0.10864339211E+03  0.93236650920E+02  0.76741967174E+02  0.23834431090E+03  0.17441967002E+03 0.  0.
         24    2    5    5    0    0  0.27577226657E+01  0.61275531797E+01  0.40185389355E+02  0.92205073648E+02  0.82714920943E+02 0.  0.
          5    1    5    5  501    0 -0.11140111478E+03  0.87109097740E+02  0.36556577819E+02  0.14613923725E+03  0.47000000000E+01 0. -1.
        -13    1    6    6    0    0 -0.38847588177E+00 -0.28593410487E+02 -0.10691438727E+02  0.30529344881E+02  0.00000000000E+00 0.  1.
         14    1    6    6    0    0  0.31461985475E+01  0.34720963667E+02  0.50876828082E+02  0.61675728767E+02  0.00000000000E+00 0. -1.
         -5    1    3    3    0  503  0.48324472360E+02 -0.49122479417E+01  0.12521609190E+01  0.48816418506E+02  0.47000000000E+01 0.  1.
         11    1    4    4    0    0  0.73117782085E+02 -0.42253421620E+02 -0.15078161041E+03  0.17281972032E+03  0.00000000000E+00 0. -1.
        -12    1    4    4    0    0 -0.12798862334E+02 -0.46070981357E+02 -0.10911352586E+03  0.11913063302E+03  0.00000000000E+00 0.  1.
</event>
<event>
12    1  0.8133506E-002  0.2074092E+03  0.7818608E-02  0.1143711E+00
         21   -1    0    0  503  502  0.00000000000E+00  0.00000000000E+00  0.72508511705E+02  0.72508511705E+02  0.00000000000E+00 0. -1.
         21   -1    0    0  501  503 -0.00000000000E+00 -0.00000000000E+00 -0.82202665839E+03  0.82202665839E+03  0.00000000000E+00 0. -1.
          6    2    1    2  501    0 -0.10621990926E+03 -0.44710351678E+02 -0.61150372460E+03  0.64572083726E+03  0.17244393234E+03 0.  0.
         24    2    3    3    0    0 -0.94344187562E+00 -0.42418014824E+02 -0.39175983983E+03  0.40200408714E+03  0.79569692172E+02 0.  0.
         -6    2    1    2    0  502  0.10621990926E+03  0.44710351678E+02 -0.13801442208E+03  0.24881433283E+03  0.17198519369E+03 0.  0.
        -24    2    5    5    0    0  0.51526291308E+02  0.33775140359E+02 -0.15922337926E+03  0.18895716488E+03  0.80975347199E+02 0.  0.
          5    1    3    3  501    0 -0.10527646739E+03 -0.22923368533E+01 -0.21974388477E+03  0.24371675012E+03  0.47000000000E+01 0. -1.
        -13    1    4    4    0    0 -0.85454727381E+01 -0.38025344565E+02 -0.69951435030E+02  0.80075933940E+02  0.00000000000E+00 0.  1.
         14    1    4    4    0    0  0.76020308625E+01 -0.43926702591E+01 -0.32180840480E+03  0.32192815320E+03  0.00000000000E+00 0. -1.
         -5    1    5    5    0  502  0.54693617955E+02  0.10935211318E+02  0.21208957172E+02  0.59857167957E+02  0.47000000000E+01 0.  1.
         13    1    6    6    0    0 -0.92740188689E+01  0.39275848929E+02 -0.55877671961E+02  0.68926873996E+02  0.00000000000E+00 0. -1.
        -14    1    6    6    0    0  0.60800310177E+02 -0.55007085698E+01 -0.10334570730E+03  0.12003029088E+03  0.00000000000E+00 0.  1.
</event>
<event>
12    1  0.8133506E-002  0.2079391E+03  0.7818608E-02  0.1143416E+00
         21   -1    0    0  501  502  0.00000000000E+00  0.00000000000E+00  0.71484287678E+02  0.71484287678E+02  0.00000000000E+00 0. -1.
         21   -1    0    0  502  503 -0.00000000000E+00 -0.00000000000E+00 -0.85400881542E+03  0.85400881542E+03  0.00000000000E+00 0. -1.
         -6    2    1    2    0  503  0.11605765574E+03 -0.46500587288E+01 -0.64338688178E+03  0.67615483069E+03  0.17247513709E+03 0.  0.
        -24    2    3    3    0    0  0.64818130870E+02  0.50834571344E+01 -0.59707931165E+03  0.60624981447E+03  0.82510008665E+02 0.  0.
          6    2    1    2  501    0 -0.11605765574E+03  0.46500587288E+01 -0.13913764596E+03  0.24933827241E+03  0.17122875653E+03 0.  0.
         24    2    5    5    0    0 -0.55675314110E+02  0.13390014600E+02 -0.15794564865E+03  0.18532073595E+03  0.78217096282E+02 0.  0.
          5    1    5    5  501    0 -0.60382341632E+02 -0.87399558714E+01  0.18808002692E+02  0.64017536464E+02  0.47000000000E+01 0. -1.
        -11    1    6    6    0    0 -0.44425260294E+02 -0.19055602972E+02 -0.13656544909E+03  0.14486835970E+03  0.00000000000E+00 0.  1.
         12    1    6    6    0    0 -0.11250053816E+02  0.32445617572E+02 -0.21380199559E+02  0.40452376243E+02  0.00000000000E+00 0. -1.
         -5    1    3    3    0  503  0.51239524872E+02 -0.97335158632E+01 -0.46307570136E+02  0.69905016215E+02  0.47000000000E+01 0.  1.
         11    1    4    4    0    0  0.69864700610E+02  0.14412393890E+02 -0.27840086981E+03  0.28739491610E+03  0.00000000000E+00 0. -1.
        -12    1    4    4    0    0 -0.50465697398E+01 -0.93289367558E+01 -0.31867844184E+03  0.31885489838E+03  0.00000000000E+00 0.  1.
</event>
<event>
12    1  0.8133506E-002  0.1783687E+03  0.7818608E-02  0.1169863E+00
         21   -1    0    0  501  502  0.00000000000E+00  0.00000000000E+00  0.27155537075E+03  0.27155537075E+03  0.00000000000E+00 0. -1.
         21   -1    0    0  502  503 -0.00000000000E+00 -0.00000000000E+00 -0.21402625940E+03  0.21402625940E+03  0.00000000000E+00 0. -1.
         -6    2    1    2    0  503 -0.85932375075E+01 -0.39764637987E+02 -0.13570996840E+03  0.22260493384E+03  0.17169942016E+03 0.  0.
        -24    2    3    3    0    0 -0.34817374198E+02 -0.43496073503E+02 -0.15889701765E+03  0.18708932869E+03  0.81547512122E+02 0.  0.
          6    2    1    2  501    0  0.85932375075E+01  0.39764637987E+02  0.19323907974E+03  0.26297669630E+03  0.17366729886E+03 0.  0.
         24    2    5    5    0    0 -0.75332686750E+00 -0.44465227929E+02  0.74769517843E+02  0.11724009941E+03  0.78594122649E+02 0.  0.
          5    1    5    5  501    0  0.93465643750E+01  0.84229865917E+02  0.11846956190E+03  0.14573659689E+03  0.47000000000E+01 0. -1.
        -13    1    6    6    0    0 -0.17275238866E+02  0.55890691090E+01 -0.74084028335E+01  0.19610099539E+02  0.00000000000E+00 0.  1.
         14    1    6    6    0    0  0.16521911999E+02 -0.50054297038E+02  0.82177920676E+02  0.97629999871E+02  0.00000000000E+00 0. -1.
         -5    1    3    3    0  503  0.26224136690E+02  0.37314355155E+01  0.23187049259E+02  0.35515605155E+02  0.47000000000E+01 0.  1.
         13    1    4    4    0    0 -0.48684673987E+02  0.28130208453E+01 -0.62724228439E+02  0.79450861548E+02  0.00000000000E+00 0. -1.
        -14    1    4    4    0    0  0.13867299789E+02 -0.46309094348E+02 -0.96172789215E+02  0.10763846714E+03  0.00000000000E+00 0.  1.
</event>
<event>
12    1  0.8133506E-002  0.2536267E+03  0.7818608E-02  0.1111048E+00
         21   -1    0    0  503  502  0.00000000000E+00  0.00000000000E+00  0.12499591828E+04  0.12499591828E+04  0.00000000000E+00 0. -1.
         21   -1    0    0  501  503 -0.00000000000E+00 -0.00000000000E+00 -0.91219239446E+02  0.91219239446E+02  0.00000000000E+00 0.  1.
          6    2    1    2  501    0 -0.17036000114E+03  0.74188984102E+02  0.10221198928E+04  0.10530958651E+04  0.17249721866E+03 0.  0.
         24    2    3    3    0    0 -0.15758044475E+03  0.24889242942E+02  0.53632749090E+03  0.56461850708E+03  0.75470590667E+02 0.  0.
         -6    2    1    2    0  502  0.17036000114E+03 -0.74188984102E+02  0.13662005053E+03  0.28808255714E+03  0.17262672497E+03 0.  0.
        -24    2    5    5    0    0  0.11859540279E+02 -0.25864061013E+02  0.26473270648E+02  0.89054676174E+02  0.80126792909E+02 0.  0.
          5    1    3    3  501    0 -0.12779556386E+02  0.49299741160E+02  0.48579240190E+03  0.48847735800E+03  0.47000000000E+01 0. -1.
        -13    1    4    4    0    0 -0.14065315791E+03 -0.34258067377E+01  0.46890791453E+03  0.48956070032E+03  0.00000000000E+00 0.  1.
         14    1    4    4    0    0 -0.16927286837E+02  0.28315049679E+02  0.67419576366E+02  0.75057806758E+02  0.00000000000E+00 0. -1.
         -5    1    5    5    0  502  0.15850046086E+03 -0.48324923089E+02  0.11014677988E+03  0.19902788097E+03  0.47000000000E+01 0.  1.
         11    1    6    6    0    0 -0.21335955225E+02 -0.14166585356E+02  0.43095166601E+02  0.50130913720E+02  0.00000000000E+00 0. -1.
        -12    1    6    6    0    0  0.33195495504E+02 -0.11697475657E+02 -0.16621895954E+02  0.38923762454E+02  0.00000000000E+00 0.  1.
</event>
<event>
12    1  0.8133506E-002  0.1723701E+03  0.7818608E-02  0.1175634E+00
         21   -1    0    0  503  502  0.00000000000E+00  0.00000000000E+00  0.12393273152E+03  0.12393273152E+03  0.00000000000E+00 0. -1.
         21   -1    0    0  501  503 -0.00000000000E+00 -0.00000000000E+00 -0.34379718648E+03  0.34379718648E+03  0.00000000000E+00 0. -1.
          6    2    1    2  501    0  0.14251817636E+02  0.17060017082E+02 -0.23958436092E+03  0.29514760310E+03  0.17093063836E+03 0.  0.
         24    2    3    3    0    0  0.13124229648E+02 -0.28265365446E+02 -0.23436189265E+03  0.24926704152E+03  0.78977116776E+02 0.  0.
         -6    2    1    2    0  502 -0.14251817636E+02 -0.17060017082E+02  0.19719905956E+02  0.17258231490E+03  0.17000477122E+03 0.  0.
        -24    2    5    5    0    0  0.14986188798E+02 -0.54846622922E+02  0.55703067994E+02  0.11258592708E+03  0.79624250651E+02 0.  0.
          5    1    3    3  501    0  0.11275879885E+01  0.45325382528E+02 -0.52224682711E+01  0.45880561580E+02  0.47000000000E+01 0. -1.
        -11    1    4    4    0    0  0.31769795152E+02 -0.25982562490E+02 -0.53483624166E+02  0.67415958730E+02  0.00000000000E+00 0.  1.
         12    1    4    4    0    0 -0.18645565505E+02 -0.22828029565E+01 -0.18087826848E+03  0.18185108279E+03  0.00000000000E+00 0. -1.
         -5    1    5    5    0  502 -0.29238006434E+02  0.37786605840E+02 -0.35983162038E+02  0.59996387820E+02  0.47000000000E+01 0.  1.
         11    1    6    6    0    0 -0.28078636611E+02 -0.21882048167E+02  0.44878924144E+02  0.57283083875E+02  0.00000000000E+00 0. -1.
        -12    1    6    6    0    0  0.43064825410E+02 -0.32964574756E+02  0.10824143850E+02  0.55302843204E+02  0.00000000000E+00 0.  1.
</event>
<event>
12    1  0.8133506E-002  0.1806464E+03  0.7818608E-02  0.1167681E+00
         21   -1    0    0  501  502  0.00000000000E+00  0.00000000000E+00  0.25163182404E+03  0.25163182404E+03  0.00000000000E+00 0.  1.
         21   -1    0    0  502  503 -0.00000000000E+00 -0.00000000000E+00 -0.10120198075E+04  0.10120198075E+04  0.00000000000E+00 0.  1.
         -6    2    1    2    0  503 -0.43298722613E+02  0.27852518309E+02 -0.97036609379E+03  0.98666075962E+03  0.17099285496E+03 0.  0.
        -24    2    3    3    0    0  0.15526667503E+02 -0.35143597600E+02 -0.59099603734E+03  0.59759435542E+03  0.79790648784E+02 0.  0.
          6    2    1    2  501    0  0.43298722613E+02 -0.27852518309E+02  0.20997811031E+03  0.27699087193E+03  0.17315482716E+03 0.  0.
         24    2    5    5    0    0  0.69119339508E+02  0.17564538919E+02  0.71050385601E+02  0.12849031289E+03  0.79847398772E+02 0.  0.
          5    1    5    5  501    0 -0.25820616895E+02 -0.45417057227E+02  0.13892772470E+03  0.14850055904E+03  0.47000000000E+01 0. -1.
        -13    1    6    6    0    0 -0.14145710073E+02  0.10484273197E+02  0.31389697466E+02  0.35990751659E+02  0.00000000000E+00 0.  1.
         14    1    6    6    0    0  0.83265049581E+02  0.70802657215E+01  0.39660688135E+02  0.92499561230E+02  0.00000000000E+00 0. -1.
         -5    1    3    3    0  503 -0.58825390115E+02  0.62996115909E+02 -0.37937005645E+03  0.38906640420E+03  0.47000000000E+01 0.  1.
         11    1    4    4    0    0 -0.28211924369E+02 -0.20214189348E+02 -0.14005286877E+03  0.14428905772E+03  0.00000000000E+00 0. -1.
        -12    1    4    4    0    0  0.43738591872E+02 -0.14929408252E+02 -0.45094316857E+03  0.45330529770E+03  0.00000000000E+00 0.  1.
</event>
<event>
12    1  0.8133506E-002  0.2689389E+03  0.7818608E-02  0.1102479E+00
         21   -1    0    0  503  502  0.00000000000E+00  0.00000000000E+00  0.45736344759E+03  0.45736344759E+03  0.00000000000E+00 0. -1.
         21   -1    0    0  501  503 -0.00000000000E+00 -0.00000000000E+00 -0.19785091322E+03  0.19785091322E+03  0.00000000000E+00 0.  1.
          6    2    1    2  501    0  0.91479364615E+02 -0.18523233350E+03 -0.22130475949E+02  0.26579051175E+03  0.16575689019E+03 0.  0.
         24    2    3    3    0    0  0.95965164823E+02 -0.18238394773E+03  0.21103329437E+02  0.22197855410E+03  0.79723965778E+02 0.  0.
         -6    2    1    2    0  502 -0.91479364615E+02  0.18523233350E+03  0.28164301032E+03  0.38942384905E+03  0.17218785504E+03 0.  0.
        -24    2    5    5    0    0 -0.10913420879E+03  0.12111008708E+03  0.12204981575E+03  0.21646306227E+03  0.73363281582E+02 0.  0.
          5    1    3    3  501    0 -0.44858002086E+01 -0.28483857746E+01 -0.43233805386E+02  0.43811957651E+02  0.47000000000E+01 0. -1.
        -11    1    4    4    0    0  0.36430787743E+01 -0.87460995660E+02  0.18855041389E+02  0.89544460301E+02  0.00000000000E+00 0.  1.
         12    1    4    4    0    0  0.92322086049E+02 -0.94922952068E+02  0.22482880480E+01  0.13243409380E+03  0.00000000000E+00 0. -1.
         -5    1    5    5    0  502  0.17654844174E+02  0.64122246421E+02  0.15959319458E+03  0.17296078678E+03  0.47000000000E+01 0.  1.
         13    1    6    6    0    0 -0.79323998246E+02  0.84018615762E+02  0.41247607691E+02  0.12268981063E+03  0.00000000000E+00 0. -1.
        -14    1    6    6    0    0 -0.29810210542E+02  0.37091471320E+02  0.80802208055E+02  0.93773251643E+02  0.00000000000E+00 0.  1.
</event>
<event>
12    1  0.8133506E-002  0.1817032E+03  0.7818608E-02  0.1168916E+00
         21   -1    0    0  503  502  0.00000000000E+00  0.00000000000E+00  0.47833918823E+02  0.47833918823E+02  0.00000000000E+00 0.  1.
         21   -1    0    0  501  503 -0.00000000000E+00 -0.00000000000E+00 -0.13632297526E+04  0.13632297526E+04  0.00000000000E+00 0. -1.
          6    2    1    2  501    0 -0.24233846368E+01 -0.61454055712E+02 -0.11585188650E+04  0.11710085822E+04  0.15909954511E+03 0.  0.
         24    2    3    3    0    0 -0.71391797260E+01 -0.19096985758E+02 -0.10646894679E+04  0.10678465453E+04  0.79479044223E+02 0.  0.
         -6    2    1    2    0  502  0.24233846368E+01  0.61454055712E+02 -0.15687696877E+03  0.24005508922E+03  0.17097832838E+03 0.  0.
        -24    2    5    5    0    0  0.56338154870E+02  0.50491746424E+02 -0.50923983510E+02  0.12057664029E+03  0.78880098476E+02 0.  0.
          5    1    3    3  501    0  0.47157950892E+01 -0.42357069953E+02 -0.93829397074E+02  0.10316203688E+03  0.47000000000E+01 0. -1.
        -11    1    4    4    0    0  0.19595948488E+02 -0.29232600772E+02 -0.23086379557E+03  0.23353080793E+03  0.00000000000E+00 0.  1.
         12    1    4    4    0    0 -0.26735128214E+02  0.10135615014E+02 -0.83382567235E+03  0.83431573738E+03  0.00000000000E+00 0. -1.
         -5    1    5    5    0  502 -0.53914770233E+02  0.10962309288E+02 -0.10595298526E+03  0.11947844893E+03  0.47000000000E+01 0.  1.
         11    1    6    6    0    0  0.17004144875E+02  0.64927741089E+02 -0.35506784695E+02  0.75930786018E+02  0.00000000000E+00 0. -1.
        -12    1    6    6    0    0  0.39334009995E+02 -0.14435994665E+02 -0.15417198815E+02  0.44645854271E+02  0.00000000000E+00 0.  1.
</event>
<event>
12    1  0.8133506E-002  0.1826768E+03  0.7818608E-02  0.1165772E+00
         21   -1    0    0  501  502  0.00000000000E+00  0.00000000000E+00  0.45278024693E+02  0.45278024693E+02  0.00000000000E+00 0.  1.
         21   -1    0    0  502  503 -0.00000000000E+00 -0.00000000000E+00 -0.85413449142E+03  0.85413449142E+03  0.00000000000E+00 0.  1.
         -6    2    1    2    0  503 -0.53156610060E+02  0.83020378744E+00 -0.57935705035E+03  0.60747460416E+03  0.17476981572E+03 0.  0.
        -24    2    3    3    0    0  0.25017074915E+02 -0.41406252040E+02 -0.26283294470E+03  0.27868189944E+03  0.79007040902E+02 0.  0.
          6    2    1    2  501    0  0.53156610060E+02 -0.83020378744E+00 -0.22949941639E+03  0.29193791195E+03  0.17242809482E+03 0.  0.
         24    2    5    5    0    0  0.49838673508E+02 -0.13294945887E+02 -0.42395960947E+02  0.10433148473E+03  0.80168523986E+02 0.  0.
          5    1    5    5  501    0  0.33179365517E+01  0.12464742100E+02 -0.18710345544E+03  0.18760642722E+03  0.47000000000E+01 0. -1.
        -11    1    6    6    0    0 -0.10765877024E+02 -0.24648268041E+02  0.39653445528E+01  0.27187592445E+02  0.00000000000E+00 0.  1.
         12    1    6    6    0    0  0.60604550532E+02  0.11353322154E+02 -0.46361305499E+02  0.77143892284E+02  0.00000000000E+00 0. -1.
         -5    1    3    3    0  503 -0.78173684974E+02  0.42236455827E+02 -0.31652410565E+03  0.32879270472E+03  0.47000000000E+01 0.  1.
         11    1    4    4    0    0  0.30454820132E+02  0.11497501895E+02 -0.15579941526E+03  0.15916389797E+03  0.00000000000E+00 0. -1.
        -12    1    4    4    0    0 -0.54377452173E+01 -0.52903753935E+02 -0.10703352944E+03  0.11951800148E+03  0.00000000000E+00 0.  1.
</event>
<event>
12    1  0.8133506E-002  0.1770092E+03  0.7818608E-02  0.1170925E+00
         21   -1    0    0  503  502  0.00000000000E+00  0.00000000000E+00  0.21983422791E+03  0.21983422791E+03  0.00000000000E+00 0.  1.
         21   -1    0    0  501  503 -0.00000000000E+00 -0.00000000000E+00 -0.20892016574E+03  0.20892016574E+03  0.00000000000E+00 0.  1.
          6    2    1    2  501    0  0.32140684003E+02 -0.18494783407E+02 -0.11596196034E+03  0.21161148984E+03  0.17308138492E+03 0.  0.
         24    2    3    3    0    0 -0.11621722834E+02 -0.70147528669E+02 -0.86734900627E+02  0.13772329481E+03  0.79931362599E+02 0.  0.
         -6    2    1    2    0  502 -0.32140684003E+02  0.18494783407E+02  0.12687602251E+03  0.21714290381E+03  0.17227430164E+03 0.  0.
        -24    2    5    5    0    0  0.16230652568E+02 -0.43630278473E+01  0.13840505795E+03  0.16221318148E+03  0.82913726762E+02 0.  0.
          5    1    3    3  501    0  0.43762406836E+02  0.51652745262E+02 -0.29227059716E+02  0.73888195031E+02  0.47000000000E+01 0. -1.
        -11    1    4    4    0    0  0.80639945301E+01 -0.88093268398E+00 -0.60564823242E+02  0.61105661476E+02  0.00000000000E+00 0.  1.
         12    1    4    4    0    0 -0.19685717364E+02 -0.69266595985E+02 -0.26170077385E+02  0.76617633335E+02  0.00000000000E+00 0. -1.
         -5    1    5    5    0  502 -0.48371336570E+02  0.22857811254E+02 -0.11529035443E+02  0.54929722329E+02  0.47000000000E+01 0.  1.
         11    1    6    6    0    0 -0.19397794730E+01 -0.34192114901E+02  0.22056643093E+02  0.40735230089E+02  0.00000000000E+00 0. -1.
        -12    1    6    6    0    0  0.18170432041E+02  0.29829087054E+02  0.11634841486E+03  0.12147795139E+03  0.00000000000E+00 0.  1.
</event>
<event>
12    1  0.8133506E-002  0.1809032E+03  0.7818608E-02  0.1167019E+00
         21   -1    0    0  501  502  0.00000000000E+00  0.00000000000E+00  0.47492350036E+02  0.47492350036E+02  0.00000000000E+00 0.  1.
         21   -1    0    0  502  503 -0.00000000000E+00 -0.00000000000E+00 -0.74774529132E+03  0.74774529132E+03  0.00000000000E+00 0.  1.
         -6    2    1    2    0  503 -0.56033044357E+02 -0.12628202241E+02 -0.46248012816E+03  0.49647039429E+03  0.17116018785E+03 0.  0.
        -24    2    3    3    0    0 -0.46797031989E+01  0.61470143114E+02 -0.25521050432E+03  0.27039404126E+03  0.64653367385E+02 0.  0.
          6    2    1    2  501    0  0.56033044357E+02  0.12628202241E+02 -0.23777281312E+03  0.29876724707E+03  0.17154236710E+03 0.  0.
         24    2    5    5    0    0  0.75361158530E+01  0.66052229132E+02 -0.19120416622E+03  0.21276255186E+03  0.65491833693E+02 0.  0.
          5    1    5    5  501    0  0.48496928504E+02 -0.53424026891E+02 -0.46568646908E+02  0.86004695212E+02  0.47000000000E+01 0. -1.
        -13    1    6    6    0    0  0.24304207146E+02  0.39757567455E+02 -0.50792287929E+02  0.68929058952E+02  0.00000000000E+00 0.  1.
         14    1    6    6    0    0 -0.16768091293E+02  0.26294661677E+02 -0.14041187829E+03  0.14383349291E+03  0.00000000000E+00 0. -1.
         -5    1    3    3    0  503 -0.51353341158E+02 -0.74098345355E+02 -0.20726962384E+03  0.22607635303E+03  0.47000000000E+01 0.  1.
         13    1    4    4    0    0 -0.17835814590E+02  0.86545567762E+01 -0.17221496004E+02  0.26260189636E+02  0.00000000000E+00 0. -1.
        -14    1    4    4    0    0  0.13156111391E+02  0.52815586337E+02 -0.23798900832E+03  0.24413385162E+03  0.00000000000E+00 0.  1.
</event>
<event>
12    1  0.8133506E-002  0.2102564E+03  0.7818608E-02  0.1141687E+00
         21   -1    0    0  503  502  0.00000000000E+00  0.00000000000E+00  0.63186479736E+03  0.63186479736E+03  0.00000000000E+00 0.  1.
         21   -1    0    0  501  503 -0.00000000000E+00 -0.00000000000E+00 -0.18971510989E+03  0.18971510989E+03  0.00000000000E+00 0.  1.
          6    2    1    2  501    0  0.11125721619E+03 -0.35851369153E+02 -0.10634716495E+03  0.23416475821E+03  0.17280024789E+03 0.  0.
         24    2    3    3    0    0  0.20335642193E+02 -0.28277400916E+02 -0.11181914032E+03  0.14264355779E+03  0.81427972409E+02 0.  0.
         -6    2    1    2    0  502 -0.11125721619E+03  0.35851369153E+02  0.54849685242E+03  0.58741514904E+03  0.17476919460E+03 0.  0.
        -24    2    5    5    0    0 -0.13720411856E+03  0.20440124539E+01  0.36353889963E+03  0.39755279519E+03  0.84015149094E+02 0.  0.
          5    1    3    3  501    0  0.90921573993E+02 -0.75739682370E+01  0.54719753713E+01  0.91521200422E+02  0.47000000000E+01 0. -1.
        -13    1    4    4    0    0 -0.15388266127E+02  0.15187666730E+02 -0.54277012464E+01  0.22291789877E+02  0.00000000000E+00 0.  1.
         14    1    4    4    0    0  0.35723908320E+02 -0.43465067646E+02 -0.10639143908E+03  0.12035176791E+03  0.00000000000E+00 0. -1.
         -5    1    5    5    0  502  0.25946902378E+02  0.33807356699E+02  0.18495795278E+03  0.18986235385E+03  0.47000000000E+01 0.  1.
         13    1    6    6    0    0 -0.63018173220E+02 -0.30058850954E+02  0.10049351437E+03  0.12236736128E+03  0.00000000000E+00 0. -1.
        -14    1    6    6    0    0 -0.74185945344E+02  0.32102863408E+02  0.26304538527E+03  0.27518543391E+03  0.00000000000E+00 0.  1.
</event>
<event>
12    1  0.8133506E-002  0.2011358E+03  0.7818608E-02  0.1149020E+00
         21   -1    0    0  501  502  0.00000000000E+00  0.00000000000E+00  0.39158909479E+03  0.39158909479E+03  0.00000000000E+00 0.  1.
         21   -1    0    0  502  503 -0.00000000000E+00 -0.00000000000E+00 -0.12160584321E+03  0.12160584321E+03  0.00000000000E+00 0. -1.
         -6    2    1    2    0  503 -0.75889350701E+02  0.71816260392E+02  0.34232083002E+02  0.20402804513E+03  0.17186866756E+03 0.  0.
        -24    2    3    3    0    0 -0.10355674606E+03  0.29749996449E+02 -0.13260693202E+02  0.13465435329E+03  0.79667351736E+02 0.  0.
          6    2    1    2  501    0  0.75889350701E+02 -0.71816260392E+02  0.23575116857E+03  0.30916689287E+03  0.17055434722E+03 0.  0.
         24    2    5    5    0    0  0.75143852306E+02  0.10539452382E+02  0.93795984265E+02  0.14498289990E+03  0.80403208920E+02 0.  0.
          5    1    5    5  501    0  0.74549839502E+00 -0.82355712774E+02  0.14195518431E+03  0.16418399297E+03  0.47000000000E+01 0. -1.
        -13    1    6    6    0    0 -0.48544118395E+00 -0.14972093917E+02  0.53527118482E+02  0.55583735592E+02  0.00000000000E+00 0.  1.
         14    1    6    6    0    0  0.75629293490E+02  0.25511546298E+02  0.40268865783E+02  0.89399164313E+02  0.00000000000E+00 0. -1.
         -5    1    3    3    0  503  0.27667395359E+02  0.42066263944E+02  0.47492776204E+02  0.69373691842E+02  0.47000000000E+01 0.  1.
         11    1    4    4    0    0 -0.27879619496E+02 -0.22337419423E+02 -0.22659475898E+02  0.42304672764E+02  0.00000000000E+00 0. -1.
        -12    1    4    4    0    0 -0.75677126564E+02  0.52087415871E+02  0.93987826961E+01  0.92349680526E+02  0.00000000000E+00 0.  1.
</event>
<event>
12    1  0.8133506E-002  0.2182476E+03  0.7818608E-02  0.1136344E+00
         21   -1    0    0  501  502  0.00000000000E+00  0.00000000000E+00  0.12284154518E+03  0.12284154518E+03  0.00000000000E+00 0. -1.
         21   -1    0    0  502  503 -0.00000000000E+00 -0.00000000000E+00 -0.47229013748E+03  0.47229013748E+03  0.00000000000E+00 0.  1.
         -6    2    1    2    0  503  0.24232771943E+02 -0.12229226138E+03 -0.39241114167E+02  0.21584197890E+03  0.17177098237E+03 0.  0.
        -24    2    3    3    0    0 -0.23673257313E+02 -0.13743753905E+03 -0.39075749938E+02  0.16537927564E+03  0.79836647766E+02 0.  0.
          6    2    1    2  501    0 -0.24232771943E+02  0.12229226138E+03 -0.31020747813E+03  0.37928970376E+03  0.17913507602E+03 0.  0.
         24    2    5    5    0    0 -0.83618515944E+02  0.10522569559E+03 -0.23101933578E+03  0.27873729878E+03  0.79120446201E+02 0.  0.
          5    1    5    5  501    0  0.59385744000E+02  0.17066565794E+02 -0.79188142347E+02  0.10055240498E+03  0.47000000000E+01 0. -1.
        -13    1    6    6    0    0 -0.48404912406E+02  0.56478805865E+02 -0.19484413454E+03  0.20855965051E+03  0.00000000000E+00 0.  1.
         14    1    6    6    0    0 -0.35213603537E+02  0.48746889725E+02 -0.36175201239E+02  0.70177648269E+02  0.00000000000E+00 0. -1.
         -5    1    3    3    0  503  0.47906029257E+02  0.15145277670E+02 -0.16536422972E+00  0.50462703258E+02  0.47000000000E+01 0.  1.
         13    1    4    4    0    0  0.21539096676E+02 -0.99104811137E+02 -0.25141848799E+02  0.10448831914E+03  0.00000000000E+00 0. -1.
        -14    1    4    4    0    0 -0.45212353989E+02 -0.38332727916E+02 -0.13933901138E+02  0.60890956502E+02  0.00000000000E+00 0.  1.
</event>
<event>
12    1  0.8133506E-002  0.3045764E+03  0.7818608E-02  0.1083033E+00
         21   -1    0    0  501  502  0.00000000000E+00  0.00000000000E+00  0.23748125585E+03  0.23748125585E+03  0.00000000000E+00 0. -1.
         21   -1    0    0  502  503 -0.00000000000E+00 -0.00000000000E+00 -0.47398778437E+03  0.47398778437E+03  0.00000000000E+00 0. -1.
         -6    2    1    2    0  503 -0.26248184969E+02  0.24986899197E+03 -0.26805479445E+03  0.40573410476E+03  0.17217232814E+03 0.  0.
        -24    2    3    3    0    0  0.34573333199E+02  0.14157109329E+03 -0.21100012660E+03  0.26896781851E+03  0.81147668770E+02 0.  0.
          6    2    1    2  501    0  0.26248184969E+02 -0.24986899197E+03  0.31548265934E+02  0.30573493545E+03  0.17133323470E+03 0.  0.
         24    2    5    5    0    0 -0.48584241734E+02 -0.11792786913E+03 -0.21542920925E+01  0.15027978308E+03  0.79447853119E+02 0.  0.
          5    1    5    5  501    0  0.74832426703E+02 -0.13194112284E+03  0.33702558027E+02  0.15545515238E+03  0.47000000000E+01 0. -1.
        -13    1    6    6    0    0 -0.28628439111E+01  0.62787384630E+01 -0.15782795722E+02  0.17225419378E+02  0.00000000000E+00 0.  1.
         14    1    6    6    0    0 -0.45721397823E+02 -0.12420660759E+03  0.13628503629E+02  0.13305436370E+03  0.00000000000E+00 0. -1.
         -5    1    3    3    0  503 -0.60821518168E+02  0.10829789868E+03 -0.57054667850E+02  0.13676628625E+03  0.47000000000E+01 0.  1.
         13    1    4    4    0    0  0.19718744487E+01  0.14382145376E+02 -0.87552956369E+02  0.88748265129E+02  0.00000000000E+00 0. -1.
        -14    1    4    4    0    0  0.32601458751E+02  0.12718894791E+03 -0.12344717023E+03  0.18021955338E+03  0.00000000000E+00 0.  1.
</event>
<event>
12    1  0.8133506E-002  0.2238014E+03  0.7818608E-02  0.1131091E+00
         21   -1    0    0  501  502  0.00000000000E+00  0.00000000000E+00  0.95301082528E+03  0.95301082528E+03  0.00000000000E+00 0. -1.
         21   -1    0    0  502  503 -0.00000000000E+00 -0.00000000000E+00 -0.15806461722E+03  0.15806461722E+03  0.00000000000E+00 0. -1.
         -6    2    1    2    0  503 -0.86649360382E+02 -0.11426579389E+03 -0.56449616639E+02  0.23075623538E+03  0.17174719107E+03 0.  0.
        -24    2    3    3    0    0 -0.90543250020E+02 -0.14663633471E+03 -0.52782613185E+02  0.19761183610E+03  0.81019372561E+02 0.  0.
          6    2    1    2  501    0  0.86649360382E+02  0.11426579389E+03  0.85139582469E+03  0.88031920712E+03  0.17182046683E+03 0.  0.
         24    2    5    5    0    0  0.72278538143E+02  0.12858021763E+03  0.49633297570E+03  0.52464640806E+03  0.84559868044E+02 0.  0.
          5    1    5    5  501    0  0.14370822239E+02 -0.14314423734E+02  0.35506284900E+03  0.35567279907E+03  0.47000000000E+01 0. -1.
        -11    1    6    6    0    0  0.16197397065E+02  0.30243435183E+02  0.32707811659E+02  0.47400653865E+02  0.00000000000E+00 0.  1.
         12    1    6    6    0    0  0.56081141078E+02  0.98336782442E+02  0.46362516404E+03  0.47724575419E+03  0.00000000000E+00 0. -1.
         -5    1    3    3    0  503  0.38938896382E+01  0.32370540818E+02 -0.36670034539E+01  0.33144399281E+02  0.47000000000E+01 0.  1.
         13    1    4    4    0    0 -0.95007447272E+02 -0.83792494984E+02 -0.43442547185E+02  0.13392106690E+03  0.00000000000E+00 0. -1.
        -14    1    4    4    0    0  0.44641972523E+01 -0.62843839725E+02 -0.93400659996E+01  0.63690769201E+02  0.00000000000E+00 0.  1.
</event>
<event>
12    1  0.8133506E-002  0.1841881E+03  0.7818608E-02  0.1163994E+00
         21   -1    0    0  503  502  0.00000000000E+00  0.00000000000E+00  0.78223429846E+02  0.78223429846E+02  0.00000000000E+00 0. -1.
         21   -1    0    0  501  503 -0.00000000000E+00 -0.00000000000E+00 -0.57619880388E+03  0.57619880388E+03  0.00000000000E+00 0.  1.
          6    2    1    2  501    0  0.48683973735E+02 -0.42341905157E+02 -0.41236118175E+03  0.45130884215E+03  0.17168273227E+03 0.  0.
         24    2    3    3    0    0 -0.17078655480E+02 -0.37848692709E+02 -0.35170226557E+03  0.36160652072E+03  0.73079328154E+02 0.  0.
         -6    2    1    2    0  502 -0.48683973735E+02  0.42341905157E+02 -0.85614192291E+02  0.20311339158E+03  0.17251751704E+03 0.  0.
        -24    2    5    5    0    0  0.28576555216E+02  0.54466158974E+02 -0.67632249418E+02  0.12272914478E+03  0.81884918238E+02 0.  0.
          5    1    3    3  501    0  0.65762629215E+02 -0.44932124476E+01 -0.60658916177E+02  0.89702321437E+02  0.47000000000E+01 0. -1.
        -11    1    4    4    0    0 -0.35765459737E+00  0.21606648442E+02 -0.72350408613E+02  0.75508653810E+02  0.00000000000E+00 0.  1.
         12    1    4    4    0    0 -0.16721000883E+02 -0.59455341152E+02 -0.27935185696E+03  0.28609786691E+03  0.00000000000E+00 0. -1.
         -5    1    5    5    0  502 -0.77260528951E+02 -0.12124253817E+02 -0.17981942873E+02  0.80384246802E+02  0.47000000000E+01 0.  1.
         11    1    6    6    0    0  0.41981525392E+02 -0.42273593610E+01 -0.28863034449E+02  0.51121363431E+02  0.00000000000E+00 0. -1.
        -12    1    6    6    0    0 -0.13404970176E+02  0.58693518335E+02 -0.38769214969E+02  0.71607781345E+02  0.00000000000E+00 0.  1.
</event>
<event>
12    1  0.8133506E-002  0.1921488E+03  0.7818608E-02  0.1157019E+00
         21   -1    0    0  503  502  0.00000000000E+00  0.00000000000E+00  0.12018168473E+03  0.12018168473E+03  0.00000000000E+00 0. -1.
         21   -1    0    0  501  503 -0.00000000000E+00 -0.00000000000E+00 -0.37805702037E+03  0.37805702037E+03  0.00000000000E+00 0.  1.
          6    2    1    2  501    0 -0.84013015207E+02  0.66535972296E+01 -0.17927725627E+02  0.19083664989E+03  0.17027849692E+03 0.  0.
         24    2    3    3    0    0 -0.13351903645E+02  0.12204774622E+02 -0.64921692013E+02  0.10566428856E+03  0.81381115304E+02 0.  0.
         -6    2    1    2    0  502  0.84013015207E+02 -0.66535972296E+01 -0.23994761001E+03  0.30740205522E+03  0.17268095124E+03 0.  0.
        -24    2    5    5    0    0 -0.70263342279E+01 -0.25946277159E+02 -0.66486009690E+02  0.11049754173E+03  0.84063895779E+02 0.  0.
          5    1    3    3  501    0 -0.70661111562E+02 -0.55511773926E+01  0.46993966385E+02  0.85172361329E+02  0.47000000000E+01 0. -1.
        -11    1    4    4    0    0 -0.36992249432E-01 -0.44253554551E+01 -0.79645015124E+02  0.79767873066E+02  0.00000000000E+00 0.  1.
         12    1    4    4    0    0 -0.13314911395E+02  0.16630130077E+02  0.14723323112E+02  0.25896415491E+02  0.00000000000E+00 0. -1.
         -5    1    5    5    0  502  0.91039349435E+02  0.19292679929E+02 -0.17346160032E+03  0.19690451348E+03  0.47000000000E+01 0.  1.
         13    1    6    6    0    0 -0.52506230164E+00 -0.24207226128E+02  0.15164800819E+02  0.28569855987E+02  0.00000000000E+00 0. -1.
        -14    1    6    6    0    0 -0.65012719263E+01 -0.17390510310E+01 -0.81650810509E+02  0.81927685747E+02  0.00000000000E+00 0.  1.
</event>
<event>
12    1  0.8133506E-002  0.2080770E+03  0.7818608E-02  0.1143234E+00
         21   -1    0    0  503  502  0.00000000000E+00  0.00000000000E+00  0.46975093913E+02  0.46975093913E+02  0.00000000000E+00 0.  1.
         21   -1    0    0  501  503 -0.00000000000E+00 -0.00000000000E+00 -0.95044373361E+03  0.95044373361E+03  0.00000000000E+00 0. -1.
          6    2    1    2  501    0  0.28257090798E+01  0.11578890078E+03 -0.54360620058E+03  0.58206848743E+03  0.17286112510E+03 0.  0.
         24    2    3    3    0    0 -0.35604874341E+02  0.61508090173E+01 -0.20784887538E+03  0.22674822016E+03  0.83114744897E+02 0.  0.
         -6    2    1    2    0  502 -0.28257090798E+01 -0.11578890078E+03 -0.35986243911E+03  0.41535034009E+03  0.17204614426E+03 0.  0.
        -24    2    5    5    0    0 -0.63087395949E+02 -0.36082523638E+02 -0.19177013953E+03  0.21974438763E+03  0.78929344592E+02 0.  0.
          5    1    3    3  501    0  0.38430583421E+02  0.10963809176E+03 -0.33575732520E+03  0.35532026727E+03  0.47000000000E+01 0. -1.
        -11    1    4    4    0    0 -0.41574615208E+01  0.24016924027E+02 -0.11241138802E+02  0.26841392057E+02  0.00000000000E+00 0.  1.
         12    1    4    4    0    0 -0.31447412820E+02 -0.17866115009E+02 -0.19660773658E+03  0.19990682810E+03  0.00000000000E+00 0. -1.
         -5    1    5    5    0  502  0.60261686870E+02 -0.79706377142E+02 -0.16809229958E+03  0.19560595247E+03  0.47000000000E+01 0.  1.
         13    1    6    6    0    0 -0.14195045408E+02 -0.53011052424E+02 -0.86378721009E+02  0.10233745373E+03  0.00000000000E+00 0. -1.
        -14    1    6    6    0    0 -0.48892350541E+02  0.16928528786E+02 -0.10539141852E+03  0.11740693389E+03  0.00000000000E+00 0.  1.
</event>
<event>
12    1  0.8133506E-002  0.2751196E+03  0.7818608E-02  0.1098432E+00
         21   -1    0    0  503  502  0.00000000000E+00  0.00000000000E+00  0.54475103357E+03  0.54475103357E+03  0.00000000000E+00 0.  1.
         21   -1    0    0  501  503 -0.00000000000E+00 -0.00000000000E+00 -0.15713953895E+03  0.15713953895E+03  0.00000000000E+00 0. -1.
          6    2    1    2  501    0  0.10071906572E+03  0.18837758841E+03  0.73730466586E+02  0.28450333608E+03  0.17284536593E+03 0.  0.
         24    2    3    3    0    0  0.13277278268E+03  0.18015904361E+03  0.47676873695E+02  0.24212568924E+03  0.79157263012E+02 0.  0.
         -6    2    1    2    0  502 -0.10071906572E+03 -0.18837758841E+03  0.31388102803E+03  0.41738723643E+03  0.17337923569E+03 0.  0.
        -24    2    5    5    0    0  0.18318028671E+02 -0.53019331763E+02  0.10472092934E+03  0.14123198234E+03  0.76376698525E+02 0.  0.
          5    1    3    3  501    0 -0.32053716963E+02  0.82185448009E+01  0.26053592891E+02  0.42377646847E+02  0.47000000000E+01 0. -1.
        -13    1    4    4    0    0  0.78370494575E+02  0.60244596294E+02  0.49247214578E+02  0.11043837171E+03  0.00000000000E+00 0.  1.
         14    1    4    4    0    0  0.54402288104E+02  0.11991444732E+03 -0.15703408830E+01  0.13168731753E+03  0.00000000000E+00 0. -1.
         -5    1    5    5    0  502 -0.11903709439E+03 -0.13535825665E+03  0.20916009869E+03  0.27615525410E+03  0.47000000000E+01 0.  1.
         13    1    6    6    0    0 -0.18314542871E+01  0.16168303622E+02  0.29588181259E+01  0.16538526884E+02  0.00000000000E+00 0. -1.
        -14    1    6    6    0    0  0.20149482958E+02 -0.69187635385E+02  0.10176211121E+03  0.12469345545E+03  0.00000000000E+00 0.  1.
</event>
<event>
12    1  0.8133506E-002  0.1851743E+03  0.7818608E-02  0.1163941E+00
         21   -1    0    0  501  502  0.00000000000E+00  0.00000000000E+00  0.19483007442E+03  0.19483007442E+03  0.00000000000E+00 0.  1.
         21   -1    0    0  502  503 -0.00000000000E+00 -0.00000000000E+00 -0.17372731919E+03  0.17372731919E+03  0.00000000000E+00 0.  1.
         -6    2    1    2    0  503 -0.60541221131E+02 -0.25466133113E+02  0.29926717244E+02  0.18317293359E+03  0.16835365100E+03 0.  0.
        -24    2    3    3    0    0  0.89771130422E+01 -0.47390963826E+02 -0.19882263395E+02  0.94761839603E+02  0.79107583937E+02 0.  0.
          6    2    1    2  501    0  0.60541221131E+02  0.25466133113E+02 -0.88239620179E+01  0.18538446001E+03  0.17313512733E+03 0.  0.
         24    2    5    5    0    0  0.96600722107E+02  0.30255914353E+02  0.27271388093E+02  0.13392385455E+03  0.83335168714E+02 0.  0.
          5    1    5    5  501    0 -0.36059500976E+02 -0.47897812404E+01 -0.36095350111E+02  0.51460605462E+02  0.47000000000E+01 0. -1.
        -13    1    6    6    0    0  0.74276279270E+02  0.15152860974E+02 -0.20979032912E+02  0.78655544495E+02  0.00000000000E+00 0.  1.
         14    1    6    6    0    0  0.22324442836E+02  0.15103053380E+02  0.48250421005E+02  0.55268310056E+02  0.00000000000E+00 0. -1.
         -5    1    3    3    0  503 -0.69518334173E+02  0.21924830713E+02  0.49808980638E+02  0.88411093988E+02  0.47000000000E+01 0.  1.
         11    1    4    4    0    0  0.19723353384E+02  0.63846995206E+01 -0.32444765211E+02  0.38502439484E+02  0.00000000000E+00 0. -1.
        -12    1    4    4    0    0 -0.10746240341E+02 -0.53775663346E+02  0.12562501816E+02  0.56259400119E+02  0.00000000000E+00 0.  1.
</event>
<event>
12    1  0.8133506E-002  0.1959702E+03  0.7818608E-02  0.1153795E+00
         21   -1    0    0  501  502  0.00000000000E+00  0.00000000000E+00  0.10685462287E+04  0.10685462287E+04  0.00000000000E+00 0.  1.
         21   -1    0    0  502  503 -0.00000000000E+00 -0.00000000000E+00 -0.35615630493E+02  0.35615630493E+02  0.00000000000E+00 0.  1.
         -6    2    1    2    0  503 -0.79559261504E+02 -0.44739539380E+02  0.55269349217E+03  0.58547892497E+03  0.17024738711E+03 0.  0.
        -24    2    3    3    0    0 -0.43385249799E+02 -0.69602224470E+01  0.12628314257E+03  0.15584685894E+03  0.80063017352E+02 0.  0.
          6    2    1    2  501    0  0.79559261504E+02  0.44739539380E+02  0.48023710605E+03  0.51868293424E+03  0.17341570220E+03 0.  0.
         24    2    5    5    0    0  0.69198963201E+02  0.95524568109E+02  0.38200900637E+03  0.40751952079E+03  0.78916660181E+02 0.  0.
          5    1    5    5  501    0  0.10360298303E+02 -0.50785028730E+02  0.98228099679E+02  0.11116341345E+03  0.47000000000E+01 0. -1.
        -11    1    6    6    0    0  0.81358952256E+02  0.57585514786E+02  0.30403172622E+03  0.31995415480E+03  0.00000000000E+00 0.  1.
         12    1    6    6    0    0 -0.12159989055E+02  0.37939053323E+02  0.77977280149E+02  0.87565365986E+02  0.00000000000E+00 0. -1.
         -5    1    3    3    0  503 -0.36174011705E+02 -0.37779316932E+02  0.42641034960E+03  0.42963206603E+03  0.47000000000E+01 0.  1.
         11    1    4    4    0    0 -0.44866066933E+02 -0.18487896235E+02  0.26308211868E+02  0.55198625716E+02  0.00000000000E+00 0. -1.
        -12    1    4    4    0    0  0.14808171339E+01  0.11527673788E+02  0.99974930702E+02  0.10064823322E+03  0.00000000000E+00 0.  1.
</event>
<event>
12    1  0.8133506E-002  0.1886222E+03  0.7818608E-02  0.1160021E+00
         21   -1    0    0  503  502  0.00000000000E+00  0.00000000000E+00  0.13410307821E+03  0.13410307821E+03  0.00000000000E+00 0. -1.
         21   -1    0    0  501  503 -0.00000000000E+00 -0.00000000000E+00 -0.29572117768E+03  0.29572117768E+03  0.00000000000E+00 0. -1.
          6    2    1    2  501    0  0.53954733102E+02  0.56421483033E+02 -0.15160272471E+03  0.24093632568E+03  0.17021289588E+03 0.  0.
         24    2    3    3    0    0  0.19918610517E+02 -0.33360090220E+02 -0.84059658350E+02  0.12344869081E+03  0.81632753447E+02 0.  0.
         -6    2    1    2    0  502 -0.53954733102E+02 -0.56421483033E+02 -0.10015374772E+02  0.18888793021E+03  0.17170860629E+03 0.  0.
        -24    2    5    5    0    0 -0.54332634568E+02 -0.73560365646E+02  0.47064930715E+02  0.12910385723E+03  0.78035477038E+02 0.  0.
          5    1    3    3  501    0  0.34036122584E+02  0.89781573253E+02 -0.67543066355E+02  0.11748763488E+03  0.47000000000E+01 0. -1.
        -13    1    4    4    0    0 -0.15348746583E+02  0.20138417171E+02 -0.15901904171E+02  0.29900007092E+02  0.00000000000E+00 0.  1.
         14    1    4    4    0    0  0.35267357100E+02 -0.53498507391E+02 -0.68157754179E+02  0.93548683714E+02  0.00000000000E+00 0. -1.
         -5    1    5    5    0  502  0.37790146638E+00  0.17138882613E+02 -0.57080305487E+02  0.59784072972E+02  0.47000000000E+01 0.  1.
         13    1    6    6    0    0  0.47098433992E+01 -0.49772518633E+02  0.41916404185E+02  0.65241636826E+02  0.00000000000E+00 0. -1.
        -14    1    6    6    0    0 -0.59042477967E+02 -0.23787847013E+02  0.51485265297E+01  0.63862220408E+02  0.00000000000E+00 0.  1.
</event>
<event>
12    1  0.8133506E-002  0.2099720E+03  0.7818608E-02  0.1141730E+00
         21   -1    0    0  503  502  0.00000000000E+00  0.00000000000E+00  0.32206464082E+02  0.32206464082E+02  0.00000000000E+00 0.  1.
         21   -1    0    0  501  503 -0.00000000000E+00 -0.00000000000E+00 -0.13656522960E+04  0.13656522960E+04  0.00000000000E+00 0.  1.
          6    2    1    2  501    0  0.11837534309E+03 -0.13482277081E+02 -0.64561074445E+03  0.67889724064E+03  0.17289805193E+03 0.  0.
         24    2    3    3    0    0  0.99454910601E+02  0.34681500098E+02 -0.58175414360E+03  0.59657174235E+03  0.79786430443E+02 0.  0.
         -6    2    1    2    0  502 -0.11837534309E+03  0.13482277081E+02 -0.68783508747E+03  0.71896151943E+03  0.17202925690E+03 0.  0.
        -24    2    5    5    0    0 -0.29857731052E+02 -0.11572936081E+02 -0.14274870092E+03  0.16614655025E+03  0.78753206887E+02 0.  0.
          5    1    3    3  501    0  0.18920432485E+02 -0.48163777179E+02 -0.63856600850E+02  0.82325498296E+02  0.47000000000E+01 0. -1.
        -11    1    4    4    0    0  0.40849154975E+02 -0.24362271052E+02 -0.25470738416E+03  0.25911006399E+03  0.00000000000E+00 0.  1.
         12    1    4    4    0    0  0.58605755627E+02  0.59043771150E+02 -0.32704675944E+03  0.33746167836E+03  0.00000000000E+00 0. -1.
         -5    1    5    5    0  502 -0.88517612034E+02  0.25055213163E+02 -0.54508638655E+03  0.55281496918E+03  0.47000000000E+01 0.  1.
         13    1    6    6    0    0  0.26447229477E+02 -0.37250806976E+01 -0.32183397031E+02  0.41822281354E+02  0.00000000000E+00 0. -1.
        -14    1    6    6    0    0 -0.56304960529E+02 -0.78478553839E+01 -0.11056530389E+03  0.12432426890E+03  0.00000000000E+00 0.  1.
</event>
<event>
12    1  0.8133506E-002  0.1910951E+03  0.7818608E-02  0.1158339E+00
         21   -1    0    0  501  502  0.00000000000E+00  0.00000000000E+00  0.19891282736E+03  0.19891282736E+03  0.00000000000E+00 0. -1.
         21   -1    0    0  502  503 -0.00000000000E+00 -0.00000000000E+00 -0.18344691839E+03  0.18344691839E+03  0.00000000000E+00 0. -1.
         -6    2    1    2    0  503  0.80057536129E+02 -0.13230336497E+02  0.34230396368E+02  0.19413674265E+03  0.17301186063E+03 0.  0.
        -24    2    3    3    0    0  0.13036053126E+02 -0.66101057011E+02  0.34278592713E+02  0.10864238848E+03  0.78031136338E+02 0.  0.
          6    2    1    2  501    0 -0.80057536129E+02  0.13230336497E+02 -0.18764487401E+02  0.18822300309E+03  0.16879437790E+03 0.  0.
         24    2    5    5    0    0 -0.10878973213E+03 -0.27555241169E+02 -0.83697384529E+01  0.13704543732E+03  0.78210627395E+02 0.  0.
          5    1    5    5  501    0  0.28732195998E+02  0.40785577665E+02 -0.10394748948E+02  0.51177565769E+02  0.47000000000E+01 0. -1.
        -13    1    6    6    0    0 -0.88205909726E+02 -0.52103446382E+02  0.44442688174E+01  0.10254171425E+03  0.00000000000E+00 0.  1.
         14    1    6    6    0    0 -0.20583822401E+02  0.24548205213E+02 -0.12814007270E+02  0.34503723076E+02  0.00000000000E+00 0. -1.
         -5    1    3    3    0  503  0.67021483002E+02  0.52870720514E+02 -0.48196345800E-01  0.85494354167E+02  0.47000000000E+01 0.  1.
         13    1    4    4    0    0 -0.26899625979E+02 -0.12642692325E+01  0.97609283485E+01  0.28643742366E+02  0.00000000000E+00 0. -1.
        -14    1    4    4    0    0  0.39935679105E+02 -0.64836787778E+02  0.24517664365E+02  0.79998646119E+02  0.00000000000E+00 0.  1.
</event>
<event>
12    1  0.8133506E-002  0.1996046E+03  0.7818608E-02  0.1150075E+00
         21   -1    0    0  501  502  0.00000000000E+00  0.00000000000E+00  0.15049259527E+04  0.15049259527E+04  0.00000000000E+00 0.  1.
         21   -1    0    0  502  503 -0.00000000000E+00 -0.00000000000E+00 -0.58080076102E+02  0.58080076102E+02  0.00000000000E+00 0. -1.
         -6    2    1    2    0  503 -0.52946672798E+02 -0.85759955906E+02  0.14691878640E+03  0.24784495050E+03  0.17229007369E+03 0.  0.
        -24    2    3    3    0    0 -0.30461727463E+02 -0.23644476496E+02  0.17024513341E+01  0.88239876893E+02  0.79349854599E+02 0.  0.
          6    2    1    2  501    0  0.52946672798E+02  0.85759955906E+02  0.12999270902E+04  0.13151610783E+04  0.17227913939E+03 0.  0.
         24    2    5    5    0    0  0.84361601987E+02  0.90708130102E+02  0.75933509395E+03  0.77361405486E+03  0.80895464699E+02 0.  0.
          5    1    5    5  501    0 -0.31414929188E+02 -0.49481741958E+01  0.54059199623E+03  0.54154702344E+03  0.47000000000E+01 0. -1.
        -11    1    6    6    0    0  0.52503813328E+02  0.15754178587E+01  0.30981893798E+03  0.31424020540E+03  0.00000000000E+00 0.  1.
         12    1    6    6    0    0  0.31857788659E+02  0.89132712243E+02  0.44951615597E+03  0.45937384946E+03  0.00000000000E+00 0. -1.
         -5    1    3    3    0  503 -0.22484945335E+02 -0.62115479410E+02  0.14521633507E+03  0.15960507360E+03  0.47000000000E+01 0.  1.
         13    1    4    4    0    0 -0.53841626547E+02 -0.76896262224E+01 -0.13600811579E+02  0.56062761047E+02  0.00000000000E+00 0. -1.
        -14    1    4    4    0    0  0.23379899084E+02 -0.15954850274E+02  0.15303262913E+02  0.32177115846E+02  0.00000000000E+00 0.  1.
</event>
<event>
12    1  0.8133506E-002  0.2706571E+03  0.7818608E-02  0.1101000E+00
         21   -1    0    0  503  502  0.00000000000E+00  0.00000000000E+00  0.46120967555E+03  0.46120967555E+03  0.00000000000E+00 0. -1.
         21   -1    0    0  501  503 -0.00000000000E+00 -0.00000000000E+00 -0.16666187481E+03  0.16666187481E+03  0.00000000000E+00 0.  1.
          6    2    1    2  501    0 -0.20640525698E+03 -0.32695811250E+02  0.21683293865E+03  0.34627809019E+03  0.17093813583E+03 0.  0.
         24    2    3    3    0    0 -0.98136283887E+02 -0.66810336764E+02  0.66988445828E+02  0.15823173044E+03  0.80345985159E+02 0.  0.
         -6    2    1    2    0  502  0.20640525698E+03  0.32695811250E+02  0.77714862086E+02  0.28159346017E+03  0.17199747336E+03 0.  0.
        -24    2    5    5    0    0  0.13761272242E+03 -0.11564406117E+02  0.10884727510E+03  0.19394246592E+03  0.81822698150E+02 0.  0.
          5    1    3    3  501    0 -0.10826897309E+03  0.34114525514E+02  0.14984449283E+03  0.18804635975E+03  0.47000000000E+01 0. -1.
        -11    1    4    4    0    0  0.12847409366E+02  0.14618743448E+01  0.79541576147E+01  0.15180962663E+02  0.00000000000E+00 0.  1.
         12    1    4    4    0    0 -0.11098369325E+03 -0.68272211109E+02  0.59034288213E+02  0.14305076778E+03  0.00000000000E+00 0. -1.
         -5    1    5    5    0  502  0.68792534560E+02  0.44260217367E+02 -0.31132413013E+02  0.87650994247E+02  0.47000000000E+01 0.  1.
         11    1    6    6    0    0  0.95513287030E+02  0.25782182279E+02  0.44564113572E+02  0.10850561802E+03  0.00000000000E+00 0. -1.
        -12    1    6    6    0    0  0.42099435387E+02 -0.37346588396E+02  0.64283161527E+02  0.85436847909E+02  0.00000000000E+00 0.  1.
</event>
<event>
12    1  0.8133506E-002  0.2879060E+03  0.7818608E-02  0.1091487E+00
         21   -1    0    0  501  502  0.00000000000E+00  0.00000000000E+00  0.45862326267E+03  0.45862326267E+03  0.00000000000E+00 0. -1.
         21   -1    0    0  502  503 -0.00000000000E+00 -0.00000000000E+00 -0.33572283036E+03  0.33572283036E+03  0.00000000000E+00 0.  1.
         -6    2    1    2    0  503 -0.22198048338E+03 -0.59143188970E+02  0.33145655295E+03  0.43883870947E+03  0.17303963312E+03 0.  0.
        -24    2    3    3    0    0 -0.20632178040E+03 -0.15931429604E+02  0.32284795508E+03  0.39184244276E+03  0.80543220315E+02 0.  0.
          6    2    1    2  501    0  0.22198048338E+03  0.59143188970E+02 -0.20855612065E+03  0.35550738356E+03  0.17354132794E+03 0.  0.
         24    2    5    5    0    0  0.12995331944E+03  0.10439459493E+03 -0.14060535757E+03  0.23239733179E+03  0.80327806897E+02 0.  0.
          5    1    5    5  501    0  0.92027163940E+02 -0.45251405965E+02 -0.67950763080E+02  0.12311005177E+03  0.47000000000E+01 0. -1.
        -11    1    6    6    0    0  0.11471358902E+03  0.77592096750E+02 -0.69620536153E+02  0.15500567744E+03  0.00000000000E+00 0.  1.
         12    1    6    6    0    0  0.15239730424E+02  0.26802498184E+02 -0.70984821413E+02  0.77391654352E+02  0.00000000000E+00 0. -1.
         -5    1    3    3    0  503 -0.15658702987E+02 -0.43211759365E+02  0.86085978699E+01  0.46996266703E+02  0.47000000000E+01 0.  1.
         13    1    4    4    0    0 -0.17384642833E+03 -0.33164874998E+02  0.30071458361E+03  0.34892943467E+03  0.00000000000E+00 0. -1.
        -14    1    4    4    0    0 -0.32475352062E+02  0.17233445394E+02  0.22133371463E+02  0.42913008098E+02  0.00000000000E+00 0.  1.
</event>
<event>
12    1  0.8133506E-002  0.2545480E+03  0.7818608E-02  0.1110528E+00
         21   -1    0    0  501  502  0.00000000000E+00  0.00000000000E+00  0.16106858083E+03  0.16106858083E+03  0.00000000000E+00 0.  1.
         21   -1    0    0  502  503 -0.00000000000E+00 -0.00000000000E+00 -0.40941746721E+03  0.40941746721E+03  0.00000000000E+00 0. -1.
         -6    2    1    2    0  503 -0.10988120273E+03  0.15291447135E+03 -0.16362000649E+03  0.30259903915E+03  0.17128326745E+03 0.  0.
        -24    2    3    3    0    0 -0.13081607902E+02  0.18899085890E+02 -0.89790096256E+02  0.12148241721E+03  0.78532874594E+02 0.  0.
          6    2    1    2  501    0  0.10988120273E+03 -0.15291447135E+03 -0.84728879887E+02  0.26788700890E+03  0.17066854481E+03 0.  0.
         24    2    5    5    0    0  0.11266545627E+03 -0.16735611685E+03 -0.10654936840E+03  0.24115618565E+03  0.78115063141E+02 0.  0.
          5    1    5    5  501    0 -0.27842535414E+01  0.14441645499E+02  0.21820488512E+02  0.26730823246E+02  0.47000000000E+01 0. -1.
        -11    1    6    6    0    0  0.46733163206E+01 -0.27258697884E+02  0.99033430004E+01  0.29376056549E+02  0.00000000000E+00 0.  1.
         12    1    6    6    0    0  0.10799213995E+03 -0.14009741896E+03 -0.11645271140E+03  0.21178012910E+03  0.00000000000E+00 0. -1.
         -5    1    3    3    0  503 -0.96799594824E+02  0.13401538546E+03 -0.73829910236E+02  0.18111662194E+03  0.47000000000E+01 0.  1.
         13    1    4    4    0    0 -0.27391991332E+02 -0.22951364481E+02 -0.53154156402E+02  0.64050375983E+02  0.00000000000E+00 0. -1.
        -14    1    4    4    0    0  0.14310383430E+02  0.41850450371E+02 -0.36635939853E+02  0.57432041224E+02  0.00000000000E+00 0.  1.
</event>
<event>
12    1  0.8133506E-002  0.1965766E+03  0.7818608E-02  0.1152692E+00
         21   -1    0    0  501  502  0.00000000000E+00  0.00000000000E+00  0.17366771280E+03  0.17366771280E+03  0.00000000000E+00 0.  1.
         21   -1    0    0  502  503 -0.00000000000E+00 -0.00000000000E+00 -0.23966345481E+03  0.23966345481E+03  0.00000000000E+00 0.  1.
         -6    2    1    2    0  503  0.91757447360E+02  0.26036716846E+02  0.22580214418E+02  0.19772025622E+03  0.17171515328E+03 0.  0.
        -24    2    3    3    0    0  0.41156311743E+01  0.14996350356E+02 -0.39442684098E+02  0.89683653271E+02  0.79029130017E+02 0.  0.
          6    2    1    2  501    0 -0.91757447360E+02 -0.26036716846E+02 -0.88575956426E+02  0.21561091140E+03  0.17188666407E+03 0.  0.
         24    2    5    5    0    0 -0.93995735900E+02 -0.74750093766E+02 -0.46801975339E+02  0.15122800588E+03  0.79099367773E+02 0.  0.
          5    1    5    5  501    0  0.22382885393E+01  0.48713376920E+02 -0.41773981087E+02  0.64382905514E+02  0.47000000000E+01 0. -1.
        -13    1    6    6    0    0 -0.80885583863E+01  0.74740862504E+00  0.18021067743E+02  0.19767202104E+02  0.00000000000E+00 0.  1.
         14    1    6    6    0    0 -0.85907177513E+02 -0.75497502391E+02 -0.64823043082E+02  0.13146080378E+03  0.00000000000E+00 0. -1.
         -5    1    3    3    0  503  0.87641816186E+02  0.11040366491E+02  0.62022898516E+02  0.10803660295E+03  0.47000000000E+01 0.  1.
         13    1    4    4    0    0 -0.27954460445E+02 -0.32474223931E+01  0.83043167847E+01  0.29342107767E+02  0.00000000000E+00 0. -1.
        -14    1    4    4    0    0  0.32070091619E+02  0.18243772749E+02 -0.47747000882E+02  0.60341545504E+02  0.00000000000E+00 0.  1.
</event>
<event>
12    1  0.8133506E-002  0.1904441E+03  0.7818608E-02  0.1158391E+00
         21   -1    0    0  503  502  0.00000000000E+00  0.00000000000E+00  0.84786361037E+02  0.84786361037E+02  0.00000000000E+00 0.  1.
         21   -1    0    0  501  503 -0.00000000000E+00 -0.00000000000E+00 -0.52868519889E+03  0.52868519889E+03  0.00000000000E+00 0.  1.
          6    2    1    2  501    0 -0.76091212857E+02 -0.19589608318E+02 -0.35743004091E+03  0.40431656311E+03  0.17187793236E+03 0.  0.
         24    2    3    3    0    0 -0.58727140672E+02  0.53989715117E+02 -0.21595189531E+03  0.24383733230E+03  0.80359549181E+02 0.  0.
         -6    2    1    2    0  502  0.76091212857E+02  0.19589608318E+02 -0.86468796945E+02  0.20915499682E+03  0.17348006923E+03 0.  0.
        -24    2    5    5    0    0  0.11248764483E+03  0.46112046840E+02 -0.60281589280E+02  0.15684821092E+03  0.78661935893E+02 0.  0.
          5    1    3    3  501    0 -0.17364072185E+02 -0.73579323435E+02 -0.14147814561E+03  0.16047923082E+03  0.47000000000E+01 0. -1.
        -13    1    4    4    0    0  0.18806049795E+00  0.56485643753E+01 -0.12521459330E+03  0.12534207602E+03  0.00000000000E+00 0.  1.
         14    1    4    4    0    0 -0.58915201170E+02  0.48341150741E+02 -0.90737302007E+02  0.11849525627E+03  0.00000000000E+00 0. -1.
         -5    1    5    5    0  502 -0.36396431976E+02 -0.26522438522E+02 -0.26187207665E+02  0.52306785899E+02  0.47000000000E+01 0.  1.
         13    1    6    6    0    0  0.36178164471E+02  0.17805358366E+02 -0.63696032213E+02  0.75386171747E+02  0.00000000000E+00 0. -1.
        -14    1    6    6    0    0  0.76309480362E+02  0.28306688474E+02  0.34144429328E+01  0.81462039172E+02  0.00000000000E+00 0.  1.
</event>
<event>
12    1  0.8133506E-002  0.1958952E+03  0.7818608E-02  0.1153280E+00
         21   -1    0    0  501  502  0.00000000000E+00  0.00000000000E+00  0.50837174578E+03  0.50837174578E+03  0.00000000000E+00 0.  1.
         21   -1    0    0  502  503 -0.00000000000E+00 -0.00000000000E+00 -0.16900041834E+03  0.16900041834E+03  0.00000000000E+00 0.  1.
         -6    2    1    2    0  503  0.84677644672E+00 -0.95406171439E+02 -0.82297827775E+02  0.21248026657E+03  0.17109025877E+03 0.  0.
        -24    2    3    3    0    0 -0.66225252293E+02 -0.81304215675E+01 -0.43319283513E+02  0.95616540517E+02  0.53047852929E+02 0.  0.
          6    2    1    2  501    0 -0.84677644672E+00  0.95406171439E+02  0.42166915521E+03  0.46489189754E+03  0.17092848027E+03 0.  0.
         24    2    5    5    0    0  0.35614403732E+02  0.44914821919E+02  0.12014871403E+03  0.15697070554E+03  0.83176691044E+02 0.  0.
          5    1    5    5  501    0 -0.36461180179E+02  0.50491349521E+02  0.30152044118E+03  0.30792119201E+03  0.47000000000E+01 0. -1.
        -11    1    6    6    0    0  0.25267642762E+02  0.29538350658E+01  0.10955981801E+03  0.11247458661E+03  0.00000000000E+00 0.  1.
         12    1    6    6    0    0  0.10346760969E+02  0.41960986853E+02  0.10588896021E+02  0.44496118923E+02  0.00000000000E+00 0. -1.
         -5    1    3    3    0  503  0.67072028739E+02 -0.87275749872E+02 -0.38978544262E+02  0.11686372606E+03  0.47000000000E+01 0.  1.
         13    1    4    4    0    0 -0.41383978296E+02  0.92825849287E+01  0.38661960816E+00  0.42414025007E+02  0.00000000000E+00 0. -1.
        -14    1    4    4    0    0 -0.24841273997E+02 -0.17413006496E+02 -0.43705903121E+02  0.53202515511E+02  0.00000000000E+00 0.  1.
</event>
<event>
12    1  0.8133506E-002  0.4990382E+03  0.7818608E-02  0.1014083E+00
         21   -1    0    0  503  502  0.00000000000E+00  0.00000000000E+00  0.31716527169E+03  0.31716527169E+03  0.00000000000E+00 0.  1.
         21   -1    0    0  501  503 -0.00000000000E+00 -0.00000000000E+00 -0.10178772709E+04  0.10178772709E+04  0.00000000000E+00 0. -1.
          6    2    1    2  501    0  0.18014628179E+03 -0.43175366123E+03 -0.30114095267E+02  0.49913545616E+03  0.17136346761E+03 0.  0.
         24    2    3    3    0    0  0.18183183240E+03 -0.31785444753E+03  0.17778338726E+02  0.37547605621E+03  0.81067468000E+02 0.  0.
         -6    2    1    2    0  502 -0.18014628179E+03  0.43175366123E+03 -0.67059790394E+03  0.83590708643E+03  0.17371010778E+03 0.  0.
        -24    2    5    5    0    0 -0.10661526913E+03  0.29597172898E+03 -0.55431009287E+03  0.64254605635E+03  0.81484204032E+02 0.  0.
          5    1    3    3  501    0 -0.16855506126E+01 -0.11389921370E+03 -0.47892433993E+02  0.12365939995E+03  0.47000000000E+01 0. -1.
        -11    1    4    4    0    0  0.14153874563E+03 -0.27189871633E+03 -0.13478781153E+02  0.30682862643E+03  0.00000000000E+00 0.  1.
         12    1    4    4    0    0  0.40293086768E+02 -0.45955731198E+02  0.31257119879E+02  0.68647429773E+02  0.00000000000E+00 0. -1.
         -5    1    5    5    0  502 -0.73531012656E+02  0.13578193226E+03 -0.11628781106E+03  0.19336103007E+03  0.47000000000E+01 0.  1.
         11    1    6    6    0    0 -0.95024066427E+02  0.27832032138E+03 -0.46057963007E+03  0.54646625709E+03  0.00000000000E+00 0. -1.
        -12    1    6    6    0    0 -0.11591202705E+02  0.17651407592E+02 -0.93730462800E+02  0.96079799265E+02  0.00000000000E+00 0.  1.
</event>
<event>
12    1  0.8133506E-002  0.1945421E+03  0.7818608E-02  0.1154530E+00
         21   -1    0    0  501  502  0.00000000000E+00  0.00000000000E+00  0.79495157711E+02  0.79495157711E+02  0.00000000000E+00 0.  1.
         21   -1    0    0  502  503 -0.00000000000E+00 -0.00000000000E+00 -0.47502137312E+03  0.47502137312E+03  0.00000000000E+00 0. -1.
         -6    2    1    2    0  503 -0.60530298349E+02  0.69158462976E+02 -0.19447273896E+03  0.27507501663E+03  0.17146372374E+03 0.  0.
        -24    2    3    3    0    0 -0.71314117102E+02  0.52130203600E+02 -0.21441013326E+03  0.24633754883E+03  0.83109694336E+02 0.  0.
          6    2    1    2  501    0  0.60530298349E+02 -0.69158462976E+02 -0.20105347645E+03  0.27944151420E+03  0.17093346497E+03 0.  0.
         24    2    5    5    0    0  0.66217927099E+02 -0.41287201483E+02 -0.22025580868E+03  0.24480084588E+03  0.72975242448E+02 0.  0.
          5    1    5    5  501    0 -0.56876287507E+01 -0.27871261493E+02  0.19202332235E+02  0.34640668314E+02  0.47000000000E+01 0. -1.
        -11    1    6    6    0    0 -0.84600752766E+01  0.11931681556E+02 -0.22768863122E+02  0.27062132701E+02  0.00000000000E+00 0.  1.
         12    1    6    6    0    0  0.74678002376E+02 -0.53218883040E+02 -0.19748694556E+03  0.21773871318E+03  0.00000000000E+00 0. -1.
         -5    1    3    3    0  503  0.10783818754E+02  0.17028259376E+02  0.19937394301E+02  0.28737467804E+02  0.47000000000E+01 0.  1.
         13    1    4    4    0    0 -0.17168268599E+02  0.61476023812E+02 -0.90022258162E+02  0.11035423832E+03  0.00000000000E+00 0. -1.
        -14    1    4    4    0    0 -0.54145848504E+02 -0.93458202119E+01 -0.12438787509E+03  0.13598331051E+03  0.00000000000E+00 0.  1.
</event>
<event>
12    1  0.8133506E-002  0.1880243E+03  0.7818608E-02  0.1160826E+00
         21   -1    0    0  503  502  0.00000000000E+00  0.00000000000E+00  0.22489003676E+03  0.22489003676E+03  0.00000000000E+00 0. -1.
         21   -1    0    0  501  503 -0.00000000000E+00 -0.00000000000E+00 -0.15797095037E+03  0.15797095037E+03  0.00000000000E+00 0.  1.
          6    2    1    2  501    0  0.24753332399E+02 -0.68871667961E+02  0.58877328784E+02  0.19466483865E+03  0.17050462002E+03 0.  0.
         24    2    3    3    0    0 -0.20518984486E+01  0.73031329621E+01  0.79093233474E+02  0.11128682296E+03  0.77919646726E+02 0.  0.
         -6    2    1    2    0  502 -0.24753332399E+02  0.68871667961E+02  0.80417576004E+01  0.18819614848E+03  0.17319666950E+03 0.  0.
        -24    2    5    5    0    0  0.69744813090E+00 -0.25856336477E+02  0.28380857483E+02  0.87912021932E+02  0.79082323933E+02 0.  0.
          5    1    3    3  501    0  0.26805230848E+02 -0.76174800923E+02 -0.20215904690E+02  0.83378015681E+02  0.47000000000E+01 0. -1.
        -13    1    4    4    0    0  0.65726998258E+01 -0.16663533823E+01 -0.14954265400E+02  0.16419718945E+02  0.00000000000E+00 0.  1.
         14    1    4    4    0    0 -0.86245982744E+01  0.89694863445E+01  0.94047498874E+02  0.94867104020E+02  0.00000000000E+00 0. -1.
         -5    1    5    5    0  502 -0.25450780530E+02  0.94728004438E+02 -0.20339099882E+02  0.10028412655E+03  0.47000000000E+01 0.  1.
         13    1    6    6    0    0  0.21213081102E+02  0.32162994340E+01  0.44076836734E+02  0.49021494554E+02  0.00000000000E+00 0. -1.
        -14    1    6    6    0    0 -0.20515632971E+02 -0.29072635911E+02 -0.15695979251E+02  0.38890527377E+02  0.00000000000E+00 0.  1.
</event>
<event>
12    1  0.8133506E-002  0.2277123E+03  0.7818608E-02  0.1128929E+00
         21   -1    0    0  501  502  0.00000000000E+00  0.00000000000E+00  0.48602482545E+03  0.48602482545E+03  0.00000000000E+00 0.  1.
         21   -1    0    0  502  503 -0.00000000000E+00 -0.00000000000E+00 -0.23120858614E+03  0.23120858614E+03  0.00000000000E+00 0.  1.
         -6    2    1    2    0  503 -0.19225454929E+02 -0.14803033119E+03 -0.13711602702E+03  0.26580764022E+03  0.17196016882E+03 0.  0.
        -24    2    3    3    0    0  0.70685621003E+01 -0.17117726756E+03 -0.13122161284E+03  0.22997483244E+03  0.79483900112E+02 0.  0.
          6    2    1    2  501    0  0.19225454929E+02  0.14803033119E+03  0.39193226633E+03  0.45142577138E+03  0.16700816926E+03 0.  0.
         24    2    5    5    0    0 -0.46498709723E+02  0.11591585421E+03  0.22859768824E+03  0.27239705901E+03  0.79653244914E+02 0.  0.
          5    1    5    5  501    0  0.65724164652E+02  0.32114476980E+02  0.16333457810E+03  0.17902871237E+03  0.47000000000E+01 0. -1.
        -11    1    6    6    0    0  0.22518417375E+02  0.22882169641E+02  0.55455380342E+02  0.64077859027E+02  0.00000000000E+00 0.  1.
         12    1    6    6    0    0 -0.69017127098E+02  0.93033684572E+02  0.17314230790E+03  0.20831919998E+03  0.00000000000E+00 0. -1.
         -5    1    3    3    0  503 -0.26294017030E+02  0.23146936371E+02 -0.58944141865E+01  0.35832807782E+02  0.47000000000E+01 0.  1.
         13    1    4    4    0    0 -0.42727327783E+01 -0.43316961802E+02  0.37778378096E+01  0.43690816926E+02  0.00000000000E+00 0. -1.
        -14    1    4    4    0    0  0.11341294879E+02 -0.12786030576E+03 -0.13499945065E+03  0.18628401551E+03  0.00000000000E+00 0.  1.
</event>
<event>
12    1  0.8133506E-002  0.2112309E+03  0.7818608E-02  0.1140663E+00
         21   -1    0    0  503  502  0.00000000000E+00  0.00000000000E+00  0.17053709397E+03  0.17053709397E+03  0.00000000000E+00 0. -1.
         21   -1    0    0  501  503 -0.00000000000E+00 -0.00000000000E+00 -0.28405356452E+03  0.28405356452E+03  0.00000000000E+00 0. -1.
          6    2    1    2  501    0 -0.11537209357E+03 -0.40177044774E+02  0.76586577026E+01  0.21136974377E+03  0.17231830618E+03 0.  0.
         24    2    3    3    0    0 -0.31326144140E+02  0.10644228830E+02 -0.46368676079E+02  0.99175420113E+02  0.81185484659E+02 0.  0.
         -6    2    1    2    0  502  0.11537209357E+03  0.40177044774E+02 -0.12117512825E+03  0.24322091472E+03  0.17189556931E+03 0.  0.
        -24    2    5    5    0    0 -0.35625485009E+01  0.15471543919E+02 -0.80682342240E+02  0.11508986237E+03  0.80523137349E+02 0.  0.
          5    1    3    3  501    0 -0.84045949430E+02 -0.50821273604E+02  0.54027333781E+02  0.11219432366E+03  0.47000000000E+01 0. -1.
        -11    1    4    4    0    0 -0.41609036235E+02  0.36610826411E+02 -0.44691000706E+02  0.71196559264E+02  0.00000000000E+00 0.  1.
         12    1    4    4    0    0  0.10282892095E+02 -0.25966597581E+02 -0.16776753725E+01  0.27978860849E+02  0.00000000000E+00 0. -1.
         -5    1    5    5    0  502  0.11893464207E+03  0.24705500855E+02 -0.40492786013E+02  0.12813105235E+03  0.47000000000E+01 0.  1.
         11    1    6    6    0    0  0.25512223271E+02  0.27331937432E+02 -0.11503929937E+02  0.39118393934E+02  0.00000000000E+00 0. -1.
        -12    1    6    6    0    0 -0.29074771772E+02 -0.11860393513E+02 -0.69178412303E+02  0.75971468438E+02  0.00000000000E+00 0.  1.
</event>
<event>
12    1  0.8133506E-002  0.2626675E+03  0.7818608E-02  0.1105612E+00
         21   -1    0    0  503  502  0.00000000000E+00  0.00000000000E+00  0.20473893219E+03  0.20473893219E+03  0.00000000000E+00 0. -1.
         21   -1    0    0  501  503 -0.00000000000E+00 -0.00000000000E+00 -0.35795246092E+03  0.35795246092E+03  0.00000000000E+00 0. -1.
          6    2    1    2  501    0  0.12932894345E+03 -0.15031708126E+03 -0.14549200429E+03  0.29991043520E+03  0.17163084017E+03 0.  0.
         24    2    3    3    0    0  0.11495699029E+02 -0.57114328087E+02 -0.10470993052E+03  0.14416482778E+03  0.80156911430E+02 0.  0.
         -6    2    1    2    0  502 -0.12932894345E+03  0.15031708126E+03 -0.77215244428E+01  0.26278095791E+03  0.17225855382E+03 0.  0.
        -24    2    5    5    0    0 -0.15456257146E+03  0.11213510473E+03 -0.33427529986E+02  0.21007907905E+03  0.80944113326E+02 0.  0.
          5    1    3    3  501    0  0.11783324442E+03 -0.93202753174E+02 -0.40782073767E+02  0.15574560742E+03  0.47000000000E+01 0. -1.
        -13    1    4    4    0    0 -0.85711230846E+01  0.18748301885E+02 -0.21136955600E+02  0.29525139569E+02  0.00000000000E+00 0.  1.
         14    1    4    4    0    0  0.20066822114E+02 -0.75862629972E+02 -0.83572974924E+02  0.11463968821E+03  0.00000000000E+00 0. -1.
         -5    1    5    5    0  502  0.25233628010E+02  0.38181976530E+02  0.25706005543E+02  0.52701878858E+02  0.47000000000E+01 0.  1.
         13    1    6    6    0    0 -0.46909902622E+02  0.81824351225E+02 -0.26769158750E+02  0.98042599300E+02  0.00000000000E+00 0. -1.
        -14    1    6    6    0    0 -0.10765266884E+03  0.30310753507E+02 -0.66583712355E+01  0.11203647975E+03  0.00000000000E+00 0.  1.
</event>
<event>
12    1  0.8133506E-002  0.2024298E+03  0.7818608E-02  0.1147739E+00
         21   -1    0    0  503  502  0.00000000000E+00  0.00000000000E+00  0.79459469871E+03  0.79459469871E+03  0.00000000000E+00 0.  1.
         21   -1    0    0  501  503 -0.00000000000E+00 -0.00000000000E+00 -0.51536272811E+02  0.51536272811E+02  0.00000000000E+00 0. -1.
          6    2    1    2  501    0 -0.58847242883E+02  0.88456211357E+02  0.37667625750E+03  0.42762462815E+03  0.17230879348E+03 0.  0.
         24    2    3    3    0    0  0.94849959660E+01 -0.37073166694E+01  0.21414875645E+03  0.22862540865E+03  0.79411449067E+02 0.  0.
         -6    2    1    2    0  502  0.58847242883E+02 -0.88456211357E+02  0.36638216840E+03  0.41850634338E+03  0.17211672436E+03 0.  0.
        -24    2    5    5    0    0 -0.26486495769E+02 -0.30114600630E+02  0.10695221730E+03  0.13920081170E+03  0.79559195353E+02 0.  0.
          5    1    3    3  501    0 -0.68332238849E+02  0.92163528027E+02  0.16252750105E+03  0.19899921950E+03  0.47000000000E+01 0. -1.
        -13    1    4    4    0    0 -0.33217006496E+02 -0.12619782300E+02  0.11344109800E+03  0.11887603266E+03  0.00000000000E+00 0.  1.
         14    1    4    4    0    0  0.42702002462E+02  0.89124656310E+01  0.10070765845E+03  0.10974937598E+03  0.00000000000E+00 0. -1.
         -5    1    5    5    0  502  0.85333738652E+02 -0.58341610728E+02  0.25942995110E+03  0.27930553167E+03  0.47000000000E+01 0.  1.
         13    1    6    6    0    0  0.64230242334E+01 -0.22967628402E+02 -0.31568713957E+01  0.24056870780E+02  0.00000000000E+00 0. -1.
        -14    1    6    6    0    0 -0.32909520002E+02 -0.71469722274E+01  0.11010908869E+03  0.11514394092E+03  0.00000000000E+00 0.  1.
</event>
<event>
12    1  0.8133506E-002  0.1769172E+03  0.7818608E-02  0.1170897E+00
         21   -1    0    0  501  502  0.00000000000E+00  0.00000000000E+00  0.21208797942E+03  0.21208797942E+03  0.00000000000E+00 0. -1.
         21   -1    0    0  502  503 -0.00000000000E+00 -0.00000000000E+00 -0.17324016538E+03  0.17324016538E+03  0.00000000000E+00 0. -1.
         -6    2    1    2    0  503  0.27850978446E+01  0.42648793912E+02  0.93930804926E+02  0.20003424405E+03  0.17135934841E+03 0.  0.
        -24    2    3    3    0    0 -0.58659278245E+02  0.54793258964E+02  0.73381580431E+02  0.13394899599E+03  0.78193765908E+02 0.  0.
          6    2    1    2  501    0 -0.27850978446E+01 -0.42648793912E+02 -0.55082990886E+02  0.18529390074E+03  0.17167707294E+03 0.  0.
         24    2    5    5    0    0  0.26701987312E+02  0.31330576830E+02 -0.40673198999E+00  0.88577724363E+02  0.78429883664E+02 0.  0.
          5    1    5    5  501    0 -0.29487085156E+02 -0.73979370741E+02 -0.54676258896E+02  0.96716176378E+02  0.47000000000E+01 0. -1.
        -11    1    6    6    0    0  0.96599489471E+01  0.55828323254E+02 -0.93496204710E+01  0.57424138600E+02  0.00000000000E+00 0.  1.
         12    1    6    6    0    0  0.17042038365E+02 -0.24497746424E+02  0.89428884811E+01  0.31153585763E+02  0.00000000000E+00 0. -1.
         -5    1    3    3    0  503  0.61444376090E+02 -0.12144465052E+02  0.20549224495E+02  0.66085248065E+02  0.47000000000E+01 0.  1.
         11    1    4    4    0    0  0.29741057520E+01  0.49810915713E+02  0.27717875372E+02  0.57081111099E+02  0.00000000000E+00 0. -1.
        -12    1    4    4    0    0 -0.61633383997E+02  0.49823432513E+01  0.45663705058E+02  0.76867884886E+02  0.00000000000E+00 0.  1.
</event>
<event>
12    1  0.8133506E-002  0.2116305E+03  0.7818608E-02  0.1140925E+00
         21   -1    0    0  503  502  0.00000000000E+00  0.00000000000E+00  0.10405814632E+03  0.10405814632E+03  0.00000000000E+00 0. -1.
         21   -1    0    0  501  503 -0.00000000000E+00 -0.00000000000E+00 -0.45164250287E+03  0.45164250287E+03  0.00000000000E+00 0.  1.
          6    2    1    2  501    0  0.55522592259E+02 -0.10927110001E+03 -0.24149722023E+03  0.31896883826E+03  0.16851492769E+03 0.  0.
         24    2    3    3    0    0 -0.28249710129E+02 -0.22067080368E+02 -0.10475148695E+03  0.13636592136E+03  0.79610227561E+02 0.  0.
         -6    2    1    2    0  502 -0.55522592259E+02  0.10927110001E+03 -0.10608713633E+03  0.23673181093E+03  0.17252402228E+03 0.  0.
        -24    2    5    5    0    0 -0.10333721685E+02  0.12910103829E+03 -0.46154035209E+02  0.15895439077E+03  0.79764901358E+02 0.  0.
          5    1    3    3  501    0  0.83772302388E+02 -0.87204019642E+02 -0.13674573328E+03  0.18260291689E+03  0.47000000000E+01 0. -1.
        -11    1    4    4    0    0 -0.30071310317E+02  0.11896401246E+02 -0.95921408075E+02  0.10122610629E+03  0.00000000000E+00 0.  1.
         12    1    4    4    0    0  0.18216001882E+01 -0.33963481614E+02 -0.88300788754E+01  0.35139815076E+02  0.00000000000E+00 0. -1.
         -5    1    5    5    0  502 -0.45188870573E+02 -0.19829938282E+02 -0.59933101119E+02  0.77777420153E+02  0.47000000000E+01 0.  1.
         13    1    6    6    0    0  0.32639506184E+02  0.32225109789E+02 -0.18236377251E+02  0.49359502834E+02  0.00000000000E+00 0. -1.
        -14    1    6    6    0    0 -0.42973227869E+02  0.96875928503E+02 -0.27917657957E+02  0.10959488794E+03  0.00000000000E+00 0.  1.
</event>
<event>
12    1  0.8133506E-002  0.1945338E+03  0.7818608E-02  0.1155166E+00
         21   -1    0    0  503  502  0.00000000000E+00  0.00000000000E+00  0.30710806529E+03  0.30710806529E+03  0.00000000000E+00 0.  1.
         21   -1    0    0  501  503 -0.00000000000E+00 -0.00000000000E+00 -0.12121372187E+03  0.12121372187E+03  0.00000000000E+00 0.  1.
          6    2    1    2  501    0 -0.85399715553E+02  0.18716351661E+02  0.99184333826E+02  0.21835960888E+03  0.17378139566E+03 0.  0.
         24    2    3    3    0    0 -0.70560173879E+02 -0.36214192313E+02  0.10740507218E+03  0.16067731352E+03  0.89393197101E+02 0.  0.
         -6    2    1    2    0  502  0.85399715553E+02 -0.18716351661E+02  0.86710009593E+02  0.20996217829E+03  0.17006492087E+03 0.  0.
        -24    2    5    5    0    0  0.12985254032E+02  0.25360960285E+02  0.92507828533E+02  0.12486007273E+03  0.78870427246E+02 0.  0.
          5    1    3    3  501    0 -0.14839541675E+02  0.54930543973E+02 -0.82207383553E+01  0.57682295355E+02  0.47000000000E+01 0. -1.
        -11    1    4    4    0    0  0.93939615974E+01  0.10194211248E+02  0.49934420133E+02  0.51822917435E+02  0.00000000000E+00 0.  1.
         12    1    4    4    0    0 -0.79954135476E+02 -0.46408403560E+02  0.57470652049E+02  0.10885439609E+03  0.00000000000E+00 0. -1.
         -5    1    5    5    0  502  0.72414461521E+02 -0.44077311945E+02 -0.57978189398E+01  0.85102105557E+02  0.47000000000E+01 0.  1.
         11    1    6    6    0    0  0.39016974252E+02 -0.94900076059E+01  0.48768585999E+02  0.63172458433E+02  0.00000000000E+00 0. -1.
        -12    1    6    6    0    0 -0.26031720220E+02  0.34850967890E+02  0.43739242533E+02  0.61687614299E+02  0.00000000000E+00 0.  1.
</event>
<event>
12    1  0.8133506E-002  0.2359912E+03  0.7818608E-02  0.1123864E+00
         21   -1    0    0  501  502  0.00000000000E+00  0.00000000000E+00  0.33509710973E+03  0.33509710973E+03  0.00000000000E+00 0. -1.
         21   -1    0    0  502  503 -0.00000000000E+00 -0.00000000000E+00 -0.16272705975E+03  0.16272705975E+03  0.00000000000E+00 0. -1.
         -6    2    1    2    0  503 -0.14914478728E+03 -0.16085406931E+02  0.11270978934E+03  0.25440844234E+03  0.17180585273E+03 0.  0.
        -24    2    3    3    0    0 -0.13315927345E+03  0.11022453394E+02  0.14229511561E+03  0.21096014808E+03  0.80021231975E+02 0.  0.
          6    2    1    2  501    0  0.14914478728E+03  0.16085406931E+02  0.59660260647E+02  0.24341572713E+03  0.18217837859E+03 0.  0.
         24    2    5    5    0    0  0.88457386968E+02  0.49438768160E+02 -0.27098078098E+02  0.13230989199E+03  0.80639323996E+02 0.  0.
          5    1    5    5  501    0  0.60687400311E+02 -0.33353361229E+02  0.86758338746E+02  0.11110583515E+03  0.47000000000E+01 0. -1.
        -11    1    6    6    0    0  0.22592286132E+02  0.58038070277E+02 -0.57760255604E+01  0.62547513663E+02  0.00000000000E+00 0.  1.
         12    1    6    6    0    0  0.65865100836E+02 -0.85993021164E+01 -0.21322052538E+02  0.69762378324E+02  0.00000000000E+00 0. -1.
         -5    1    3    3    0  503 -0.15985513830E+02 -0.27107860325E+02 -0.29585326272E+02  0.43448294264E+02  0.47000000000E+01 0.  1.
         13    1    4    4    0    0 -0.15249926126E+02  0.39619915769E+01 -0.96701575319E+01  0.18487010867E+02  0.00000000000E+00 0. -1.
        -14    1    4    4    0    0 -0.11790934732E+03  0.70604618172E+01  0.15196527314E+03  0.19247313721E+03  0.00000000000E+00 0.  1.
</event>
<event>
12    1  0.8133506E-002  0.1881188E+03  0.7818608E-02  0.1160240E+00
         21   -1    0    0  503  502  0.00000000000E+00  0.00000000000E+00  0.80385446225E+03  0.80385446225E+03  0.00000000000E+00 0. -1.
         21   -1    0    0  501  503 -0.00000000000E+00 -0.00000000000E+00 -0.99868045075E+02  0.99868045075E+02  0.00000000000E+00 0. -1.
          6    2    1    2  501    0 -0.14986582351E+02 -0.73325654791E+02  0.13751794860E+02  0.18831176422E+03  0.17225260341E+03 0.  0.
         24    2    3    3    0    0 -0.20537130408E+02 -0.40043951718E+02 -0.60866039948E+02  0.10628499045E+03  0.74609199045E+02 0.  0.
         -6    2    1    2    0  502  0.14986582351E+02  0.73325654791E+02  0.69023462231E+03  0.71541074310E+03  0.17259040589E+03 0.  0.
        -24    2    5    5    0    0  0.33357664247E+02  0.11295531312E+03  0.48441246726E+03  0.50495206312E+03  0.80308848125E+02 0.  0.
          5    1    3    3  501    0  0.55505480570E+01 -0.33281703073E+02  0.74617834808E+02  0.82026773767E+02  0.47000000000E+01 0. -1.
        -13    1    4    4    0    0 -0.42383520968E+02 -0.39894264469E+02 -0.23033468614E+02  0.62597570748E+02  0.00000000000E+00 0.  1.
         14    1    4    4    0    0  0.21846390560E+02 -0.14968724916E+00 -0.37832571335E+02  0.43687419706E+02  0.00000000000E+00 0. -1.
         -5    1    5    5    0  502 -0.18371081896E+02 -0.39629658326E+02  0.20582215505E+03  0.21045867998E+03  0.47000000000E+01 0.  1.
         11    1    6    6    0    0  0.96841521646E+01  0.86505451201E+02  0.19723391763E+03  0.21558801951E+03  0.00000000000E+00 0. -1.
        -12    1    6    6    0    0  0.23673512082E+02  0.26449861917E+02  0.28717854963E+03  0.28936404361E+03  0.00000000000E+00 0.  1.
</event>
<event>
12    1  0.8133506E-002  0.1955122E+03  0.7818608E-02  0.1154329E+00
         21   -1    0    0  503  502  0.00000000000E+00  0.00000000000E+00  0.82036804275E+02  0.82036804275E+02  0.00000000000E+00 0.  1.
         21   -1    0    0  501  503 -0.00000000000E+00 -0.00000000000E+00 -0.10531226365E+04  0.10531226365E+04  0.00000000000E+00 0. -1.
          6    2    1    2  501    0 -0.69440601559E+02  0.54290495564E+02 -0.91039701593E+03  0.93044459872E+03  0.17068968813E+03 0.  0.
         24    2    3    3    0    0 -0.93936483995E+01  0.84025318790E+02 -0.42092749707E+03  0.43638762207E+03  0.78139004818E+02 0.  0.
         -6    2    1    2    0  502  0.69440601559E+02 -0.54290495564E+02 -0.60688816252E+02  0.20471484200E+03  0.17451526886E+03 0.  0.
        -24    2    5    5    0    0  0.37247644546E+02  0.99214809499E+01  0.25511065897E+02  0.92411351000E+02  0.80020125606E+02 0.  0.
          5    1    3    3  501    0 -0.60046953159E+02 -0.29734823226E+02 -0.48946951885E+03  0.49405697666E+03  0.47000000000E+01 0. -1.
        -11    1    4    4    0    0  0.39980124961E+01 -0.11116187494E+02 -0.11796649169E+03  0.11855651349E+03  0.00000000000E+00 0.  1.
         12    1    4    4    0    0 -0.13391660896E+02  0.95141506284E+02 -0.30296100538E+03  0.31783110858E+03  0.00000000000E+00 0. -1.
         -5    1    5    5    0  502  0.32192957013E+02 -0.64211976513E+02 -0.86199882149E+02  0.11230349100E+03  0.47000000000E+01 0.  1.
         11    1    6    6    0    0 -0.38914784663E+01 -0.25333593838E+02  0.28273867627E+02  0.38162103873E+02  0.00000000000E+00 0. -1.
        -12    1    6    6    0    0  0.41139123012E+02  0.35255074788E+02 -0.27628017305E+01  0.54249247127E+02  0.00000000000E+00 0.  1.
</event>
<event>
12    1  0.8133506E-002  0.1904629E+03  0.7818608E-02  0.1158188E+00
         21   -1    0    0  501  502  0.00000000000E+00  0.00000000000E+00  0.23681700922E+02  0.23681700922E+02  0.00000000000E+00 0. -1.
         21   -1    0    0  502  503 -0.00000000000E+00 -0.00000000000E+00 -0.16243437561E+04  0.16243437561E+04  0.00000000000E+00 0. -1.
         -6    2    1    2    0  503  0.16333873013E+02  0.78262760328E+02 -0.10036264212E+04  0.10215390853E+04  0.17287062919E+03 0.  0.
        -24    2    3    3    0    0  0.42188113587E+02 -0.14681038497E+02 -0.59163879588E+03  0.59838085852E+03  0.77639018696E+02 0.  0.
          6    2    1    2  501    0 -0.16333873013E+02 -0.78262760328E+02 -0.59703563393E+03  0.62648637165E+03  0.17216785597E+03 0.  0.
         24    2    5    5    0    0  0.19097145111E+02 -0.21839651568E+02 -0.13244219846E+03  0.15711650201E+03  0.79391359353E+02 0.  0.
          5    1    5    5  501    0 -0.35431018124E+02 -0.56423108760E+02 -0.46459343547E+03  0.46936986964E+03  0.47000000000E+01 0. -1.
        -13    1    6    6    0    0 -0.11101150699E+02  0.25026219674E+02 -0.30966416033E+02  0.41333595778E+02  0.00000000000E+00 0.  1.
         14    1    6    6    0    0  0.30198295810E+02 -0.46865871242E+02 -0.10147578242E+03  0.11578290623E+03  0.00000000000E+00 0. -1.
         -5    1    3    3    0  503 -0.25854240574E+02  0.92943798825E+02 -0.41198762532E+03  0.42315822680E+03  0.47000000000E+01 0.  1.
         11    1    4    4    0    0  0.36368033697E+02 -0.17224580764E+02 -0.59057067346E+03  0.59194006487E+03  0.00000000000E+00 0. -1.
        -12    1    4    4    0    0  0.58200798906E+01  0.25435422670E+01 -0.10681224266E+01  0.64407936402E+01  0.00000000000E+00 0.  1.
</event>
<event>
12    1  0.8133506E-002  0.2004872E+03  0.7818608E-02  0.1149654E+00
         21   -1    0    0  501  502  0.00000000000E+00  0.00000000000E+00  0.40520213701E+02  0.40520213701E+02  0.00000000000E+00 0. -1.
         21   -1    0    0  502  503 -0.00000000000E+00 -0.00000000000E+00 -0.98996375562E+03  0.98996375562E+03  0.00000000000E+00 0. -1.
         -6    2    1    2    0  503  0.76993794017E+02 -0.70342874991E+02 -0.51531507783E+03  0.55294189854E+03  0.17122777037E+03 0.  0.
        -24    2    3    3    0    0  0.73462925735E+02  0.11295610968E+02 -0.20635151797E+03  0.23332043377E+03  0.79580673297E+02 0.  0.
          6    2    1    2  501    0 -0.76993794017E+02  0.70342874991E+02 -0.43412846409E+03  0.47754207078E+03  0.16941883500E+03 0.  0.
         24    2    5    5    0    0 -0.15201724725E+02  0.93856434390E+02 -0.20970263493E+03  0.24353311775E+03  0.79328819694E+02 0.  0.
          5    1    5    5  501    0 -0.61792069292E+02 -0.23513559399E+02 -0.22442582915E+03  0.23400895302E+03  0.47000000000E+01 0. -1.
        -11    1    6    6    0    0  0.26857646601E+02  0.25995964470E+02 -0.10769477862E+03  0.11399688018E+03  0.00000000000E+00 0.  1.
         12    1    6    6    0    0 -0.42059371326E+02  0.67860469920E+02 -0.10200785631E+03  0.12953623757E+03  0.00000000000E+00 0. -1.
         -5    1    3    3    0  503  0.35308682820E+01 -0.81638485959E+02 -0.30896355986E+03  0.31962146477E+03  0.47000000000E+01 0.  1.
         11    1    4    4    0    0  0.76696056793E+02 -0.18520865551E+02 -0.14933687453E+03  0.16889881492E+03  0.00000000000E+00 0. -1.
        -12    1    4    4    0    0 -0.32331310585E+01  0.29816476518E+02 -0.57014643439E+02  0.64421618847E+02  0.00000000000E+00 0.  1.
</event>
<event>
12    1  0.8133506E-002  0.1872822E+03  0.7818608E-02  0.1160963E+00
         21   -1    0    0  503  502  0.00000000000E+00  0.00000000000E+00  0.12055100522E+04  0.12055100522E+04  0.00000000000E+00 0. -1.
         21   -1    0    0  501  503 -0.00000000000E+00 -0.00000000000E+00 -0.31418732847E+02  0.31418732847E+02  0.00000000000E+00 0. -1.
          6    2    1    2  501    0 -0.10406102648E+02  0.72897453665E+02  0.41836704663E+03  0.45837278333E+03  0.17219842356E+03 0.  0.
         24    2    3    3    0    0  0.32972884352E+02  0.71055035497E+02  0.39107335521E+03  0.40687359297E+03  0.80447015618E+02 0.  0.
         -6    2    1    2    0  502  0.10406102648E+02 -0.72897453665E+02  0.75572427274E+03  0.77855600173E+03  0.17206959548E+03 0.  0.
        -24    2    5    5    0    0  0.39626366470E+02 -0.17232681309E+02  0.64486410450E+03  0.65102381911E+03  0.78199012505E+02 0.  0.
          5    1    3    3  501    0 -0.43378987000E+02  0.18424181681E+01  0.27293691412E+02  0.51499190370E+02  0.47000000000E+01 0. -1.
        -11    1    4    4    0    0  0.11297649270E+02 -0.16360552519E+02  0.43621292540E+02  0.47938728818E+02  0.00000000000E+00 0.  1.
         12    1    4    4    0    0  0.21675235081E+02  0.87415588016E+02  0.34745206267E+03  0.35893486415E+03  0.00000000000E+00 0. -1.
         -5    1    5    5    0  502 -0.29220263822E+02 -0.55664772357E+02  0.11086016825E+03  0.12753218262E+03  0.47000000000E+01 0.  1.
         11    1    6    6    0    0  0.34031786623E+02 -0.29308794576E+02  0.16581687419E+03  0.17179174517E+03  0.00000000000E+00 0. -1.
        -12    1    6    6    0    0  0.55945798472E+01  0.12076113268E+02  0.47904723031E+03  0.47923207395E+03  0.00000000000E+00 0.  1.
</event>
<event>
12    1  0.8133506E-002  0.1802861E+03  0.7818608E-02  0.1169284E+00
         21   -1    0    0  501  502  0.00000000000E+00  0.00000000000E+00  0.41230069834E+03  0.41230069834E+03  0.00000000000E+00 0.  1.
         21   -1    0    0  502  503 -0.00000000000E+00 -0.00000000000E+00 -0.11200942979E+03  0.11200942979E+03  0.00000000000E+00 0.  1.
         -6    2    1    2    0  503 -0.12169144969E+02  0.19814844212E+02  0.30549453649E+01  0.18031201689E+03  0.17878024109E+03 0.  0.
        -24    2    3    3    0    0  0.23125169046E+02 -0.14340210869E+02  0.62159650243E+02  0.10332037755E+03  0.77915744291E+02 0.  0.
          6    2    1    2  501    0  0.12169144969E+02 -0.19814844212E+02  0.29723632318E+03  0.34399811124E+03  0.17159415077E+03 0.  0.
         24    2    5    5    0    0 -0.54166197286E+02 -0.58659197822E+01  0.11897377008E+03  0.15322448109E+03  0.79715730526E+02 0.  0.
          5    1    5    5  501    0  0.66335342255E+02 -0.13948924430E+02  0.17826255310E+03  0.19077363015E+03  0.47000000000E+01 0. -1.
        -13    1    6    6    0    0 -0.48266186310E+02 -0.38153101193E+02  0.92323492596E+02  0.11094553239E+03  0.00000000000E+00 0.  1.
         14    1    6    6    0    0 -0.59000109758E+01  0.32287181411E+02  0.26650277486E+02  0.42278948699E+02  0.00000000000E+00 0. -1.
         -5    1    3    3    0  503 -0.35294314015E+02  0.34155055081E+02 -0.59104704878E+02  0.76991639339E+02  0.47000000000E+01 0.  1.
         13    1    4    4    0    0 -0.18791569096E+02 -0.17376359807E+02 -0.30144580629E+01  0.25771067239E+02  0.00000000000E+00 0. -1.
        -14    1    4    4    0    0  0.41916738142E+02  0.30361489379E+01  0.65174108306E+02  0.77549310315E+02  0.00000000000E+00 0.  1.
</event>
<event>
12    1  0.8133506E-002  0.5263018E+03  0.7818608E-02  0.1007148E+00
         21   -1    0    0  501  502  0.00000000000E+00  0.00000000000E+00  0.14386082310E+04  0.14386082310E+04  0.00000000000E+00 0.  1.
         21   -1    0    0  502  503 -0.00000000000E+00 -0.00000000000E+00 -0.20839007974E+03  0.20839007974E+03  0.00000000000E+00 0. -1.
         -6    2    1    2    0  503 -0.13178649289E+03  0.47938778973E+03  0.84299291935E+03  0.99379607436E+03  0.17266511720E+03 0.  0.
        -24    2    3    3    0    0 -0.13163650791E+03  0.35086580267E+03  0.51871922217E+03  0.64495019961E+03  0.80350151369E+02 0.  0.
          6    2    1    2  501    0  0.13178649289E+03 -0.47938778973E+03  0.38722523190E+03  0.65320223637E+03  0.17189953092E+03 0.  0.
         24    2    5    5    0    0  0.51285345006E+02 -0.85713059427E+02  0.79044277013E+02  0.14678559067E+03  0.72945847933E+02 0.  0.
          5    1    5    5  501    0  0.80501147881E+02 -0.39367473030E+03  0.30818095489E+03  0.50641664570E+03  0.47000000000E+01 0. -1.
        -11    1    6    6    0    0 -0.94690817334E+01  0.72005880440E+01  0.31402794716E+01  0.12303387022E+02  0.00000000000E+00 0.  1.
         12    1    6    6    0    0  0.60754426740E+02 -0.92913647471E+02  0.75903997541E+02  0.13448220365E+03  0.00000000000E+00 0. -1.
         -5    1    3    3    0  503 -0.14998497831E+00  0.12852198706E+03  0.32427369718E+03  0.34884587476E+03  0.47000000000E+01 0.  1.
         11    1    4    4    0    0 -0.64809524131E+02  0.96542057298E+02  0.11806145635E+03  0.16570802854E+03  0.00000000000E+00 0. -1.
        -12    1    4    4    0    0 -0.66826983779E+02  0.25432374537E+03  0.40065776582E+03  0.47924217107E+03  0.00000000000E+00 0.  1.
</event>
<event>
12    1  0.8133506E-002  0.1748822E+03  0.7818608E-02  0.1173602E+00
         21   -1    0    0  503  502  0.00000000000E+00  0.00000000000E+00  0.33833612200E+02  0.33833612200E+02  0.00000000000E+00 0. -1.
         21   -1    0    0  501  503 -0.00000000000E+00 -0.00000000000E+00 -0.89416794318E+03  0.89416794318E+03  0.00000000000E+00 0. -1.
          6    2    1    2  501    0 -0.25096456986E+02 -0.67177780983E+01 -0.46288283849E+03  0.49377640895E+03  0.16994016350E+03 0.  0.
         24    2    3    3    0    0  0.27933600828E+02  0.22052180957E+02 -0.14038527695E+03  0.16565041977E+03  0.80408027247E+02 0.  0.
         -6    2    1    2    0  502  0.25096456986E+02  0.67177780983E+01 -0.39745149250E+03  0.43422514644E+03  0.17294169021E+03 0.  0.
        -24    2    5    5    0    0 -0.83862614099E+01  0.10502625569E+02 -0.39326077745E+03  0.39994585831E+03  0.71568260938E+02 0.  0.
          5    1    3    3  501    0 -0.53030057814E+02 -0.28769959056E+02 -0.32249756154E+03  0.32812598918E+03  0.47000000000E+01 0. -1.
        -11    1    4    4    0    0  0.16935759220E+02 -0.89078197360E+00  0.52938470454E+01  0.17766210891E+02  0.00000000000E+00 0.  1.
         12    1    4    4    0    0  0.10997841608E+02  0.22942962931E+02 -0.14567912399E+03  0.14788420888E+03  0.00000000000E+00 0. -1.
         -5    1    5    5    0  502  0.33482718396E+02 -0.37848474710E+01 -0.41907150416E+01  0.34279288122E+02  0.47000000000E+01 0.  1.
         11    1    6    6    0    0  0.23476990018E+02  0.27701679661E+02 -0.21500070155E+03  0.21804553145E+03  0.00000000000E+00 0. -1.
        -12    1    6    6    0    0 -0.31863251428E+02 -0.17199054091E+02 -0.17826007590E+03  0.18190032687E+03  0.00000000000E+00 0.  1.
</event>
<event>
12    1  0.8133506E-002  0.2585716E+03  0.7818608E-02  0.1108126E+00
         21   -1    0    0  501  502  0.00000000000E+00  0.00000000000E+00  0.24049701362E+04  0.24049701362E+04  0.00000000000E+00 0.  1.
         21   -1    0    0  502  503 -0.00000000000E+00 -0.00000000000E+00 -0.38020682877E+02  0.38020682877E+02  0.00000000000E+00 0.  1.
         -6    2    1    2    0  503 -0.17223534376E+03  0.86794685533E+02  0.54617603959E+03  0.60394892536E+03  0.17101961043E+03 0.  0.
        -24    2    3    3    0    0 -0.69635018844E+02  0.76070629675E+02  0.42517627586E+03  0.44487389631E+03  0.80635857501E+02 0.  0.
          6    2    1    2  501    0  0.17223534376E+03 -0.86794685533E+02  0.18207734138E+04  0.18390418937E+04  0.17222349316E+03 0.  0.
         24    2    5    5    0    0  0.11983469512E+02 -0.44592276306E+02  0.51921933468E+03  0.52697222436E+03  0.77323561029E+02 0.  0.
          5    1    5    5  501    0  0.16025187424E+03 -0.42202409227E+02  0.13015540791E+04  0.13120696694E+04  0.47000000000E+01 0. -1.
        -13    1    6    6    0    0  0.34396195307E+02 -0.20620518755E+01  0.11939087195E+03  0.12426395541E+03  0.00000000000E+00 0.  1.
         14    1    6    6    0    0 -0.22412725795E+02 -0.42530224430E+02  0.39982846274E+03  0.40270826895E+03  0.00000000000E+00 0. -1.
         -5    1    3    3    0  503 -0.10260032491E+03  0.10724055858E+02  0.12099976373E+03  0.15907502905E+03  0.47000000000E+01 0.  1.
         11    1    4    4    0    0 -0.32277543452E+02 -0.91624417949E+01  0.16948097519E+03  0.17277034208E+03  0.00000000000E+00 0. -1.
        -12    1    4    4    0    0 -0.37357475392E+02  0.85233071470E+02  0.25569530067E+03  0.27210355423E+03  0.00000000000E+00 0.  1.
</event>
<event>
12    1  0.8133506E-002  0.2406754E+03  0.7818608E-02  0.1119402E+00
         21   -1    0    0  501  502  0.00000000000E+00  0.00000000000E+00  0.97970112942E+03  0.97970112942E+03  0.00000000000E+00 0.  1.
         21   -1    0    0  502  503 -0.00000000000E+00 -0.00000000000E+00 -0.70212907866E+02  0.70212907866E+02  0.00000000000E+00 0. -1.
         -6    2    1    2    0  503 -0.60408064397E+02 -0.15654543839E+03  0.24503487362E+03  0.34321545878E+03  0.17204404474E+03 0.  0.
        -24    2    3    3    0    0 -0.52030842817E+02 -0.89818948305E+02  0.55345716042E+02  0.14190309249E+03  0.79364269632E+02 0.  0.
          6    2    1    2  501    0  0.60408064397E+02  0.15654543839E+03  0.66445334794E+03  0.70669857851E+03  0.17253701271E+03 0.  0.
         24    2    5    5    0    0  0.92506974419E+02  0.67257068004E+02  0.47073561405E+03  0.49094083582E+03  0.79685835755E+02 0.  0.
          5    1    5    5  501    0 -0.32098910022E+02  0.89288370385E+02  0.19371773389E+03  0.21575774270E+03  0.47000000000E+01 0. -1.
        -11    1    6    6    0    0  0.15384915193E+02 -0.14401358238E+02  0.34068794056E+02  0.40059673776E+02  0.00000000000E+00 0.  1.
         12    1    6    6    0    0  0.77122059227E+02  0.81658426242E+02  0.43666682000E+03  0.45088116204E+03  0.00000000000E+00 0. -1.
         -5    1    3    3    0  503 -0.83772215804E+01 -0.66726490085E+02  0.18968915757E+03  0.20131236629E+03  0.47000000000E+01 0.  1.
         13    1    4    4    0    0 -0.20758420147E+02 -0.53822287578E+02  0.71215291914E+02  0.91648068444E+02  0.00000000000E+00 0. -1.
        -14    1    4    4    0    0 -0.31272422670E+02 -0.35996660727E+02 -0.15869575872E+02  0.50255024042E+02  0.00000000000E+00 0.  1.
</event>
<event>
12    1  0.8133506E-002  0.2471052E+03  0.7818608E-02  0.1115288E+00
         21   -1    0    0  501  502  0.00000000000E+00  0.00000000000E+00  0.32639602357E+03  0.32639602357E+03  0.00000000000E+00 0.  1.
         21   -1    0    0  502  503 -0.00000000000E+00 -0.00000000000E+00 -0.18664869494E+03  0.18664869494E+03  0.00000000000E+00 0. -1.
         -6    2    1    2    0  503  0.99028017546E+02  0.14827246630E+03  0.61010658690E+02  0.25452561962E+03  0.17108395029E+03 0.  0.
        -24    2    3    3    0    0  0.80284035090E+02  0.11611512218E+03 -0.21718061502E+02  0.16368750645E+03  0.79960475761E+02 0.  0.
          6    2    1    2  501    0 -0.99028017546E+02 -0.14827246630E+03  0.78736669949E+02  0.25851909889E+03  0.16982752655E+03 0.  0.
         24    2    5    5    0    0 -0.76019525602E+02 -0.15873283499E+03  0.10847519682E+03  0.21920904935E+03  0.72874260322E+02 0.  0.
          5    1    5    5  501    0 -0.23008491944E+02  0.10460368682E+02 -0.29738526867E+02  0.39310049539E+02  0.47000000000E+01 0. -1.
        -11    1    6    6    0    0 -0.49821663782E+02 -0.11599278380E+03  0.36341964188E+02  0.13136690008E+03  0.00000000000E+00 0.  1.
         12    1    6    6    0    0 -0.26197861819E+02 -0.42740051190E+02  0.72133232628E+02  0.87842149274E+02  0.00000000000E+00 0. -1.
         -5    1    3    3    0  503  0.18743982456E+02  0.32157344127E+02  0.82728720192E+02  0.90838113169E+02  0.47000000000E+01 0.  1.
         11    1    4    4    0    0 -0.15878818425E+02  0.24062377763E+02 -0.76423228871E+01  0.29825157121E+02  0.00000000000E+00 0. -1.
        -12    1    4    4    0    0  0.96162853515E+02  0.92052744415E+02 -0.14075738614E+02  0.13386234933E+03  0.00000000000E+00 0.  1.
</event>
<event>
12    1  0.8133506E-002  0.3011951E+03  0.7818608E-02  0.1084724E+00
         21   -1    0    0  501  502  0.00000000000E+00  0.00000000000E+00  0.49000343721E+03  0.49000343721E+03  0.00000000000E+00 0. -1.
         21   -1    0    0  502  503 -0.00000000000E+00 -0.00000000000E+00 -0.25537364842E+03  0.25537364842E+03  0.00000000000E+00 0. -1.
         -6    2    1    2    0  503  0.88626066228E+02  0.23115040753E+03  0.31340109291E+03  0.43467080125E+03  0.17156156302E+03 0.  0.
        -24    2    3    3    0    0  0.21745085677E+01  0.18826714842E+03  0.21465578929E+03  0.29652026480E+03  0.79986948316E+02 0.  0.
          6    2    1    2  501    0 -0.88626066228E+02 -0.23115040753E+03 -0.78771304113E+02  0.31070628438E+03  0.17043587148E+03 0.  0.
         24    2    5    5    0    0 -0.53669768217E+02 -0.23631994508E+03 -0.40257670868E+02  0.25822717583E+03  0.79580360706E+02 0.  0.
          5    1    5    5  501    0 -0.34956298011E+02  0.51695375447E+01 -0.38513633245E+02  0.52479108555E+02  0.47000000000E+01 0. -1.
        -13    1    6    6    0    0  0.10774843670E+02 -0.13053343589E+03 -0.15306483758E+02  0.13186873620E+03  0.00000000000E+00 0.  1.
         14    1    6    6    0    0 -0.64444611887E+02 -0.10578650919E+03 -0.24951187110E+02  0.12635843963E+03  0.00000000000E+00 0. -1.
         -5    1    3    3    0  503  0.86451557660E+02  0.42883259112E+02  0.98745303616E+02  0.13815053645E+03  0.47000000000E+01 0.  1.
         11    1    4    4    0    0  0.24921522784E+02  0.22125826089E+02  0.58786184599E+02  0.67575513152E+02  0.00000000000E+00 0. -1.
        -12    1    4    4    0    0 -0.22747014217E+02  0.16614132233E+03  0.15586960469E+03  0.22894475165E+03  0.00000000000E+00 0.  1.
</event>
<event>
12    1  0.8133506E-002  0.1827475E+03  0.7818608E-02  0.1165659E+00
         21   -1    0    0  501  502  0.00000000000E+00  0.00000000000E+00  0.19580074424E+03  0.19580074424E+03  0.00000000000E+00 0. -1.
         21   -1    0    0  502  503 -0.00000000000E+00 -0.00000000000E+00 -0.16958799943E+03  0.16958799943E+03  0.00000000000E+00 0. -1.
         -6    2    1    2    0  503 -0.58023732159E+02  0.11267422503E+02 -0.48532987760E+00  0.18070138241E+03  0.17076019957E+03 0.  0.
        -24    2    3    3    0    0 -0.70087212998E+02 -0.50262020649E+02 -0.13201371872E+02  0.11655165390E+03  0.77275634329E+02 0.  0.
          6    2    1    2  501    0  0.58023732159E+02 -0.11267422503E+02  0.26698074687E+02  0.18468736126E+03  0.17292462495E+03 0.  0.
         24    2    5    5    0    0  0.84485462627E+02 -0.52195897192E+02 -0.19171103640E+01  0.12797508714E+03  0.80695368754E+02 0.  0.
          5    1    5    5  501    0 -0.26461730468E+02  0.40928474689E+02  0.28615185051E+02  0.56712274115E+02  0.47000000000E+01 0. -1.
        -13    1    6    6    0    0  0.41860223819E+02  0.17747817927E+02 -0.65446388098E+01  0.45935777739E+02  0.00000000000E+00 0.  1.
         14    1    6    6    0    0  0.42625238808E+02 -0.69943715119E+02  0.46275284458E+01  0.82039309405E+02  0.00000000000E+00 0. -1.
         -5    1    3    3    0  503  0.12063480839E+02  0.61529443152E+02  0.12716041994E+02  0.64149728515E+02  0.47000000000E+01 0.  1.
         11    1    4    4    0    0 -0.33496618116E+02  0.73415986763E+01 -0.30781945293E+02  0.46080914187E+02  0.00000000000E+00 0. -1.
        -12    1    4    4    0    0 -0.36590594882E+02 -0.57603619325E+02  0.17580573421E+02  0.70470739708E+02  0.00000000000E+00 0.  1.
</event>
<event>
12    1  0.8133506E-002  0.1749767E+03  0.7818608E-02  0.1173223E+00
         21   -1    0    0  501  502  0.00000000000E+00  0.00000000000E+00  0.17055565268E+03  0.17055565268E+03  0.00000000000E+00 0.  1.
         21   -1    0    0  502  503 -0.00000000000E+00 -0.00000000000E+00 -0.24499516736E+03  0.24499516736E+03  0.00000000000E+00 0. -1.
         -6    2    1    2    0  503  0.14048711734E+02 -0.24866904765E+02 -0.14632608277E+03  0.22809681320E+03  0.17262996391E+03 0.  0.
        -24    2    3    3    0    0  0.36983241419E+02 -0.73286304961E+02 -0.12552660145E+03  0.17043279157E+03  0.80942980738E+02 0.  0.
          6    2    1    2  501    0 -0.14048711734E+02  0.24866904765E+02  0.71886568095E+02  0.18745400683E+03  0.17075010029E+03 0.  0.
         24    2    5    5    0    0  0.21138234207E+02 -0.42344126351E+02  0.17237361405E+02  0.93837396870E+02  0.79173735805E+02 0.  0.
          5    1    5    5  501    0 -0.35186945941E+02  0.67211031116E+02  0.54649206690E+02  0.93616609959E+02  0.47000000000E+01 0. -1.
        -13    1    6    6    0    0  0.18674253784E+02  0.16652616805E+02 -0.12224465560E+02  0.27847351025E+02  0.00000000000E+00 0.  1.
         14    1    6    6    0    0  0.24639804222E+01 -0.58996743156E+02  0.29461826964E+02  0.65990045845E+02  0.00000000000E+00 0. -1.
         -5    1    3    3    0  503 -0.22934529685E+02  0.48419400196E+02 -0.20799481325E+02  0.57664021630E+02  0.47000000000E+01 0.  1.
         13    1    4    4    0    0 -0.11720839113E+02 -0.52205057654E+02 -0.30490536051E+02  0.61582618512E+02  0.00000000000E+00 0. -1.
        -14    1    4    4    0    0  0.48704080532E+02 -0.21081247307E+02 -0.95036065399E+02  0.10885017306E+03  0.00000000000E+00 0.  1.
</event>
<event>
12    1  0.8133506E-002  0.3844656E+03  0.7818608E-02  0.1049329E+00
         21   -1    0    0  501  502  0.00000000000E+00  0.00000000000E+00  0.76288310551E+03  0.76288310551E+03  0.00000000000E+00 0. -1.
         21   -1    0    0  502  503 -0.00000000000E+00 -0.00000000000E+00 -0.19359562372E+03  0.19359562372E+03  0.00000000000E+00 0.  1.
         -6    2    1    2    0  503 -0.28976547547E+03  0.18400078839E+03  0.28994028186E+03  0.48124339572E+03  0.17236449163E+03 0.  0.
        -24    2    3    3    0    0 -0.13828859464E+03  0.16046622469E+03  0.20666853423E+03  0.30672865403E+03  0.80606696296E+02 0.  0.
          6    2    1    2  501    0  0.28976547547E+03 -0.18400078839E+03  0.27934719993E+03  0.47523533351E+03  0.17318615189E+03 0.  0.
         24    2    5    5    0    0  0.20338983923E+03 -0.70512058043E+02  0.11335420868E+03  0.25633762773E+03  0.80749153150E+02 0.  0.
          5    1    5    5  501    0  0.86375636239E+02 -0.11348873034E+03  0.16599299125E+03  0.21889770578E+03  0.47000000000E+01 0. -1.
        -11    1    6    6    0    0  0.50002324376E+02 -0.95979115129E+01 -0.79249411632E+01  0.51528215968E+02  0.00000000000E+00 0.  1.
         12    1    6    6    0    0  0.15338751486E+03 -0.60914146530E+02  0.12127914984E+03  0.20480941177E+03  0.00000000000E+00 0. -1.
         -5    1    3    3    0  503 -0.15147688083E+03  0.23534563699E+02  0.83271747635E+02  0.17451474169E+03  0.47000000000E+01 0.  1.
         13    1    4    4    0    0 -0.21739243931E+01  0.52637265483E+02  0.41384395821E+02  0.66993103244E+02  0.00000000000E+00 0. -1.
        -14    1    4    4    0    0 -0.13611467025E+03  0.10782895920E+03  0.16528413840E+03  0.23973555078E+03  0.00000000000E+00 0.  1.
</event>
<event>
12    1  0.8133506E-002  0.2232673E+03  0.7818608E-02  0.1131528E+00
         21   -1    0    0  503  502  0.00000000000E+00  0.00000000000E+00  0.31213499003E+02  0.31213499003E+02  0.00000000000E+00 0.  1.
         21   -1    0    0  501  503 -0.00000000000E+00 -0.00000000000E+00 -0.16059799293E+04  0.16059799293E+04  0.00000000000E+00 0. -1.
          6    2    1    2  501    0 -0.12730330062E+03  0.58833118723E+02 -0.71954893013E+03  0.75339161792E+03  0.17372622396E+03 0.  0.
         24    2    3    3    0    0 -0.16305950657E+03  0.36946286933E+02 -0.57512793101E+03  0.60293546266E+03  0.69322466062E+02 0.  0.
         -6    2    1    2    0  502  0.12730330062E+03 -0.58833118723E+02 -0.85521750016E+03  0.88380181038E+03  0.17332397768E+03 0.  0.
        -24    2    5    5    0    0  0.12572892737E+02 -0.77252260371E+02 -0.40860835662E+03  0.42229975365E+03  0.72458977822E+02 0.  0.
          5    1    3    3  501    0  0.35756205948E+02  0.21886831789E+02 -0.14442099912E+03  0.15045615527E+03  0.47000000000E+01 0. -1.
        -11    1    4    4    0    0 -0.12023957735E+03  0.19461557626E+02 -0.29730700757E+03  0.32129077941E+03  0.00000000000E+00 0.  1.
         12    1    4    4    0    0 -0.42819929215E+02  0.17484729307E+02 -0.27782092345E+03  0.28164468325E+03  0.00000000000E+00 0. -1.
         -5    1    5    5    0  502  0.11473040788E+03  0.18419141649E+02 -0.44660914354E+03  0.46150205673E+03  0.47000000000E+01 0.  1.
         13    1    6    6    0    0  0.31647522807E+02 -0.51595096316E+01 -0.11906623249E+03  0.12330836938E+03  0.00000000000E+00 0. -1.
        -14    1    6    6    0    0 -0.19074630070E+02 -0.72092750740E+02 -0.28954212412E+03  0.29899138426E+03  0.00000000000E+00 0.  1.
</event>
<event>
12    1  0.8133506E-002  0.2950886E+03  0.7818608E-02  0.1087756E+00
         21   -1    0    0  503  502  0.00000000000E+00  0.00000000000E+00  0.64706072422E+03  0.64706072422E+03  0.00000000000E+00 0. -1.
         21   -1    0    0  501  503 -0.00000000000E+00 -0.00000000000E+00 -0.23581170505E+03  0.23581170505E+03  0.00000000000E+00 0. -1.
          6    2    1    2  501    0  0.15835013791E+03  0.18047511127E+03 -0.83734464608E+02  0.30673886096E+03  0.17155534470E+03 0.  0.
         24    2    3    3    0    0  0.18749520281E+03  0.15297127617E+03 -0.71491238593E+02  0.26457391893E+03  0.79584539774E+02 0.  0.
         -6    2    1    2    0  502 -0.15835013791E+03 -0.18047511127E+03  0.49498348378E+03  0.57613356831E+03  0.17109999228E+03 0.  0.
        -24    2    5    5    0    0 -0.61472836815E+02 -0.64600547277E+02  0.33478182927E+03  0.35590916877E+03  0.81488175994E+02 0.  0.
          5    1    3    3  501    0 -0.29145064903E+02  0.27503835097E+02 -0.12243226015E+02  0.42164942031E+02  0.47000000000E+01 0. -1.
        -13    1    4    4    0    0  0.10979965032E+03  0.13071827695E+03 -0.28648613273E+02  0.17310105194E+03  0.00000000000E+00 0.  1.
         14    1    4    4    0    0  0.77695552490E+02  0.22252999221E+02 -0.42842625320E+02  0.91472866990E+02  0.00000000000E+00 0. -1.
         -5    1    5    5    0  502 -0.96877301090E+02 -0.11587456399E+03  0.16020165451E+03  0.22022439954E+03  0.47000000000E+01 0.  1.
         11    1    6    6    0    0 -0.72594059316E+02 -0.32441649665E+02  0.17034851505E+03  0.18799195372E+03  0.00000000000E+00 0. -1.
        -12    1    6    6    0    0  0.11121222501E+02 -0.32158897612E+02  0.16443331422E+03  0.16791721505E+03  0.00000000000E+00 0.  1.
</event>
<event>
12    1  0.8133506E-002  0.1769320E+03  0.7818608E-02  0.1171179E+00
         21   -1    0    0  501  502  0.00000000000E+00  0.00000000000E+00  0.73671296045E+03  0.73671296045E+03  0.00000000000E+00 0.  1.
         21   -1    0    0  502  503 -0.00000000000E+00 -0.00000000000E+00 -0.79613287904E+02  0.79613287904E+02  0.00000000000E+00 0.  1.
         -6    2    1    2    0  503 -0.31842588536E+02  0.22746603705E+02  0.47752682543E+02  0.18181172628E+03  0.17100826500E+03 0.  0.
        -24    2    3    3    0    0 -0.36763092240E+02  0.75611282430E+02  0.89792823414E+01  0.11590002644E+03  0.79269146806E+02 0.  0.
          6    2    1    2  501    0  0.31842588536E+02 -0.22746603705E+02  0.60934699000E+03  0.63451452207E+03  0.17255018420E+03 0.  0.
         24    2    5    5    0    0  0.44438251100E+02  0.40967395032E+02  0.47215707673E+03  0.48265509149E+03  0.79815704118E+02 0.  0.
          5    1    5    5  501    0 -0.12595662563E+02 -0.63713998737E+02  0.13718991327E+03  0.15185943057E+03  0.47000000000E+01 0. -1.
        -13    1    6    6    0    0 -0.15967290857E+02  0.53935295257E+01  0.25735987561E+02  0.30763380728E+02  0.00000000000E+00 0.  1.
         14    1    6    6    0    0  0.60405541956E+02  0.35573865506E+02  0.44642108916E+03  0.45189171076E+03  0.00000000000E+00 0. -1.
         -5    1    3    3    0  503  0.49205037035E+01 -0.52864678725E+02  0.38773400201E+02  0.65911699846E+02  0.47000000000E+01 0.  1.
         11    1    4    4    0    0  0.37816926609E+01  0.70927213965E+02 -0.84324159754E+01  0.71526753871E+02  0.00000000000E+00 0. -1.
        -12    1    4    4    0    0 -0.40544784901E+02  0.46840684654E+01  0.17411698317E+02  0.44373272567E+02  0.00000000000E+00 0.  1.
</event>
<event>
12    1  0.8133506E-002  0.2115702E+03  0.7818608E-02  0.1141717E+00
         21   -1    0    0  501  502  0.00000000000E+00  0.00000000000E+00  0.48756458347E+03  0.48756458347E+03  0.00000000000E+00 0. -1.
         21   -1    0    0  502  503 -0.00000000000E+00 -0.00000000000E+00 -0.10390022164E+03  0.10390022164E+03  0.00000000000E+00 0.  1.
         -6    2    1    2    0  503 -0.35285632523E+02 -0.11226370931E+03  0.81893444904E+02  0.22686666926E+03  0.17582301616E+03 0.  0.
        -24    2    3    3    0    0 -0.75463613454E+02 -0.55263116139E+02  0.45610091393E+01  0.12262784063E+03  0.79170799738E+02 0.  0.
          6    2    1    2  501    0  0.35285632523E+02  0.11226370931E+03  0.30177091692E+03  0.36459813585E+03  0.16738547749E+03 0.  0.
         24    2    5    5    0    0 -0.34740334110E+02  0.27044158605E+02  0.10374465219E+03  0.13787694286E+03  0.79428088147E+02 0.  0.
          5    1    5    5  501    0  0.70025966633E+02  0.85219550709E+02  0.19802626473E+03  0.22672119299E+03  0.47000000000E+01 0. -1.
        -11    1    6    6    0    0 -0.17377463318E+02  0.17597001321E+02 -0.67439033781E+01  0.25634174838E+02  0.00000000000E+00 0.  1.
         12    1    6    6    0    0 -0.17362870792E+02  0.94471572844E+01  0.11048855556E+03  0.11224276802E+03  0.00000000000E+00 0. -1.
         -5    1    3    3    0  503  0.40177980931E+02 -0.57000593176E+02  0.77332435765E+02  0.10423882864E+03  0.47000000000E+01 0.  1.
         13    1    4    4    0    0 -0.77253447261E+02 -0.67682835488E+02 -0.10246753749E+02  0.10321849299E+03  0.00000000000E+00 0. -1.
        -14    1    4    4    0    0  0.17898338067E+01  0.12419719349E+02  0.14807762888E+02  0.19409347632E+02  0.00000000000E+00 0.  1.
</event>
<event>
12    1  0.8133506E-002  0.2473802E+03  0.7818608E-02  0.1115008E+00
         21   -1    0    0  503  502  0.00000000000E+00  0.00000000000E+00  0.68202370913E+03  0.68202370913E+03  0.00000000000E+00 0. -1.
         21   -1    0    0  501  503 -0.00000000000E+00 -0.00000000000E+00 -0.91762736211E+02  0.91762736211E+02  0.00000000000E+00 0. -1.
          6    2    1    2  501    0  0.88722733679E+02 -0.15255053383E+03  0.35376043898E+03  0.43154465330E+03  0.17303453633E+03 0.  0.
         24    2    3    3    0    0  0.43145153602E+02 -0.44493076189E+02  0.26849204501E+03  0.28647046894E+03  0.78333985173E+02 0.  0.
         -6    2    1    2    0  502 -0.88722733679E+02  0.15255053383E+03  0.23650053394E+03  0.34224179204E+03  0.17335960551E+03 0.  0.
        -24    2    5    5    0    0 -0.89997751217E+02  0.12674551411E+03  0.96104573116E+02  0.19941098119E+03  0.79778630437E+02 0.  0.
          5    1    3    3  501    0  0.45577580076E+02 -0.10805745764E+03  0.85268393963E+02  0.14507418435E+03  0.47000000000E+01 0. -1.
        -13    1    4    4    0    0  0.45303700843E+02  0.19332276411E+01  0.18923064886E+03  0.19458777235E+03  0.00000000000E+00 0.  1.
         14    1    4    4    0    0 -0.21585472408E+01 -0.46426303830E+02  0.79261396153E+02  0.91882696595E+02  0.00000000000E+00 0. -1.
         -5    1    5    5    0  502  0.12750175380E+01  0.25805019718E+02  0.14039596083E+03  0.14283081085E+03  0.47000000000E+01 0.  1.
         13    1    6    6    0    0 -0.15465636108E+02  0.51255712612E+02  0.73523273047E+02  0.90950567096E+02  0.00000000000E+00 0. -1.
        -14    1    6    6    0    0 -0.74532115108E+02  0.75489801499E+02  0.22581300070E+02  0.10846041410E+03  0.00000000000E+00 0.  1.
</event>
<event>
12    1  0.8133506E-002  0.2342782E+03  0.7818608E-02  0.1123793E+00
         21   -1    0    0  503  502  0.00000000000E+00  0.00000000000E+00  0.24739330635E+03  0.24739330635E+03  0.00000000000E+00 0.  1.
         21   -1    0    0  501  503 -0.00000000000E+00 -0.00000000000E+00 -0.27024837749E+03  0.27024837749E+03  0.00000000000E+00 0. -1.
          6    2    1    2  501    0  0.15792727909E+03  0.14757405183E+02 -0.12175984181E+03  0.26402976412E+03  0.17241650378E+03 0.  0.
         24    2    3    3    0    0  0.13078965403E+03  0.35020376725E+02 -0.14845698691E+03  0.22064928157E+03  0.91182608582E+02 0.  0.
         -6    2    1    2    0  502 -0.15792727909E+03 -0.14757405183E+02  0.98904770666E+02  0.25361191973E+03  0.17140024994E+03 0.  0.
        -24    2    5    5    0    0 -0.64813671166E+02  0.55460662438E+02  0.56289370158E+02  0.12935861651E+03  0.79299819823E+02 0.  0.
          5    1    3    3  501    0  0.27137625059E+02 -0.20262971542E+02  0.26697145102E+02  0.43380482549E+02  0.47000000000E+01 0. -1.
        -11    1    4    4    0    0 -0.12087564927E+02 -0.39142689289E+01 -0.29598215853E+01  0.13045737654E+02  0.00000000000E+00 0.  1.
         12    1    4    4    0    0  0.14287721895E+03  0.38934645654E+02 -0.14549716533E+03  0.20760354392E+03  0.00000000000E+00 0. -1.
         -5    1    5    5    0  502 -0.93113607919E+02 -0.70218067621E+02  0.42615400508E+02  0.12425330322E+03  0.47000000000E+01 0.  1.
         11    1    6    6    0    0 -0.64387350012E+02  0.11631383925E+02  0.11027880161E+02  0.66352347919E+02  0.00000000000E+00 0. -1.
        -12    1    6    6    0    0 -0.42632115459E+00  0.43829278514E+02  0.45261489998E+02  0.63006268589E+02  0.00000000000E+00 0.  1.
</event>
<event>
12    1  0.8133506E-002  0.1916753E+03  0.7818608E-02  0.1157647E+00
         21   -1    0    0  503  502  0.00000000000E+00  0.00000000000E+00  0.56672324290E+03  0.56672324290E+03  0.00000000000E+00 0.  1.
         21   -1    0    0  501  503 -0.00000000000E+00 -0.00000000000E+00 -0.19395416409E+03  0.19395416409E+03  0.00000000000E+00 0.  1.
          6    2    1    2  501    0 -0.79964862736E+02 -0.23307353814E+02 -0.12468824992E+03  0.22866256074E+03  0.17263196403E+03 0.  0.
         24    2    3    3    0    0  0.42751597005E+01 -0.13906746563E+02 -0.11835372304E+03  0.14353342926E+03  0.79890969238E+02 0.  0.
         -6    2    1    2    0  502  0.79964862736E+02  0.23307353814E+02  0.49745732873E+03  0.53201484625E+03  0.16922881171E+03 0.  0.
        -24    2    5    5    0    0  0.19760573830E+02  0.34797545885E+02  0.12181997600E+03  0.15138104365E+03  0.80465920405E+02 0.  0.
          5    1    3    3  501    0 -0.84240022437E+02 -0.94006072511E+01 -0.63345268780E+01  0.85129131486E+02  0.47000000000E+01 0. -1.
        -11    1    4    4    0    0 -0.24897930869E+02 -0.26925842924E+02 -0.23775717326E+02  0.43705751488E+02  0.00000000000E+00 0.  1.
         12    1    4    4    0    0  0.29173090570E+02  0.13019096361E+02 -0.94578005718E+02  0.99827677770E+02  0.00000000000E+00 0. -1.
         -5    1    5    5    0  502  0.60204288907E+02 -0.11490192071E+02  0.37563735273E+03  0.38063380260E+03  0.47000000000E+01 0.  1.
         11    1    6    6    0    0 -0.19858403301E+02  0.98939349333E+01  0.94764132254E+02  0.97326701845E+02  0.00000000000E+00 0. -1.
        -12    1    6    6    0    0  0.39618977131E+02  0.24903610952E+02  0.27055843745E+02  0.54054341806E+02  0.00000000000E+00 0.  1.
</event>
<event>
12    1  0.8133506E-002  0.2527807E+03  0.7818608E-02  0.1111749E+00
         21   -1    0    0  501  502  0.00000000000E+00  0.00000000000E+00  0.31301524353E+03  0.31301524353E+03  0.00000000000E+00 0.  1.
         21   -1    0    0  502  503 -0.00000000000E+00 -0.00000000000E+00 -0.21457922759E+03  0.21457922759E+03  0.00000000000E+00 0. -1.
         -6    2    1    2    0  503 -0.39705022180E+02  0.18002872862E+03 -0.11519105031E+02  0.25304305775E+03  0.17294874206E+03 0.  0.
        -24    2    3    3    0    0  0.11551494336E+02  0.12265953982E+03 -0.64106274094E+02  0.15973735236E+03  0.78915192645E+02 0.  0.
          6    2    1    2  501    0  0.39705022180E+02 -0.18002872862E+03  0.10995512097E+03  0.27455141337E+03  0.17117686188E+03 0.  0.
         24    2    5    5    0    0 -0.35465301637E+02 -0.14296461585E+03  0.81223202604E+02  0.18582746412E+03  0.78980812697E+02 0.  0.
          5    1    5    5  501    0  0.75170323816E+02 -0.37064112767E+02  0.28731918364E+02  0.88723949251E+02  0.47000000000E+01 0. -1.
        -13    1    6    6    0    0 -0.43572669213E+00 -0.12751047157E+03  0.72040515693E+02  0.14645458722E+03  0.00000000000E+00 0.  1.
         14    1    6    6    0    0 -0.35029574945E+02 -0.15454144285E+02  0.91826869114E+01  0.39372876899E+02  0.00000000000E+00 0. -1.
         -5    1    3    3    0  503 -0.51256516516E+02  0.57369188798E+02  0.52587169063E+02  0.93305705392E+02  0.47000000000E+01 0.  1.
         13    1    4    4    0    0  0.43148789023E+00 -0.47340118557E+01 -0.25815755526E+02  0.26249767303E+02  0.00000000000E+00 0. -1.
        -14    1    4    4    0    0  0.11120006446E+02  0.12739355168E+03 -0.38290518568E+02  0.13348758506E+03  0.00000000000E+00 0.  1.
</event>
<event>
12    1  0.8133506E-002  0.2657539E+03  0.7818608E-02  0.1103807E+00
         21   -1    0    0  503  502  0.00000000000E+00  0.00000000000E+00  0.54338306627E+03  0.54338306627E+03  0.00000000000E+00 0. -1.
         21   -1    0    0  501  503 -0.00000000000E+00 -0.00000000000E+00 -0.13374804376E+03  0.13374804376E+03  0.00000000000E+00 0.  1.
          6    2    1    2  501    0 -0.16118462053E+03  0.12268472842E+03  0.26329678758E+03  0.37375009846E+03  0.17126562195E+03 0.  0.
         24    2    3    3    0    0 -0.84188853258E+02  0.18558259818E+02  0.64912050993E+02  0.13679174061E+03  0.84060894088E+02 0.  0.
         -6    2    1    2    0  502  0.16118462053E+03 -0.12268472842E+03  0.14633823493E+03  0.30338101157E+03  0.17202655230E+03 0.  0.
        -24    2    5    5    0    0  0.88771434637E+02 -0.82120819292E+02  0.16333489007E+03  0.21852774704E+03  0.80323678616E+02 0.  0.
          5    1    3    3  501    0 -0.76995767274E+02  0.10412646860E+03  0.19838473659E+03  0.23695835785E+03  0.47000000000E+01 0. -1.
        -11    1    4    4    0    0 -0.15449005418E+02 -0.31219427750E+01 -0.19966916935E+02  0.25438083005E+02  0.00000000000E+00 0.  1.
         12    1    4    4    0    0 -0.68739847840E+02  0.21680202593E+02  0.84878967929E+02  0.11135365761E+03  0.00000000000E+00 0. -1.
         -5    1    5    5    0  502  0.72413185896E+02 -0.40563909125E+02 -0.16996655135E+02  0.84853264527E+02  0.47000000000E+01 0.  1.
         11    1    6    6    0    0 -0.43365763634E+01  0.31257144422E+01  0.45586290417E+02  0.45898647685E+02  0.00000000000E+00 0. -1.
        -12    1    6    6    0    0  0.93108011000E+02 -0.85246533734E+02  0.11774859965E+03  0.17262909936E+03  0.00000000000E+00 0.  1.
</event>
<event>
12    1  0.8133506E-002  0.1860341E+03  0.7818608E-02  0.1162193E+00
         21   -1    0    0  501  502  0.00000000000E+00  0.00000000000E+00  0.11897027873E+03  0.11897027873E+03  0.00000000000E+00 0.  1.
         21   -1    0    0  502  503 -0.00000000000E+00 -0.00000000000E+00 -0.46398708333E+03  0.46398708333E+03  0.00000000000E+00 0. -1.
         -6    2    1    2    0  503 -0.21539032799E+02 -0.64341185358E+02 -0.35103037301E+03  0.39727951254E+03  0.17321942802E+03 0.  0.
        -24    2    3    3    0    0 -0.64957180570E+02  0.71690452690E+01 -0.18701020434E+03  0.21309603237E+03  0.78525613428E+02 0.  0.
          6    2    1    2  501    0  0.21539032799E+02  0.64341185358E+02  0.60135684062E+01  0.18567784953E+03  0.17273211263E+03 0.  0.
         24    2    5    5    0    0 -0.11906129129E+02  0.38869252809E+02  0.65689114010E+02  0.11252965100E+03  0.81824739111E+02 0.  0.
          5    1    5    5  501    0  0.33445161928E+02  0.25471932549E+02 -0.59675545604E+02  0.73148198524E+02  0.47000000000E+01 0. -1.
        -13    1    6    6    0    0 -0.39748058445E+02  0.12812750718E+02  0.61259457219E+02  0.74140379213E+02  0.00000000000E+00 0.  1.
         14    1    6    6    0    0  0.27841929316E+02  0.26056502091E+02  0.44296567911E+01  0.38389271790E+02  0.00000000000E+00 0. -1.
         -5    1    3    3    0  503  0.43418147771E+02 -0.71510230627E+02 -0.16402016866E+03  0.18418348017E+03  0.47000000000E+01 0.  1.
         11    1    4    4    0    0  0.15296486371E+02 -0.82234312116E+01 -0.16220000195E+02  0.23763327261E+02  0.00000000000E+00 0. -1.
        -12    1    4    4    0    0 -0.80253666940E+02  0.15392476481E+02 -0.17079020415E+03  0.18933270511E+03  0.00000000000E+00 0.  1.
</event>
<event>
12    1  0.8133506E-002  0.2074845E+03  0.7818608E-02  0.1144144E+00
         21   -1    0    0  501  502  0.00000000000E+00  0.00000000000E+00  0.14462644815E+04  0.14462644815E+04  0.00000000000E+00 0. -1.
         21   -1    0    0  502  503 -0.00000000000E+00 -0.00000000000E+00 -0.41516705721E+02  0.41516705721E+02  0.00000000000E+00 0.  1.
         -6    2    1    2    0  503  0.10890458485E+03 -0.33768658622E+02  0.29651030603E+03  0.36028833758E+03  0.16996703712E+03 0.  0.
        -24    2    3    3    0    0  0.20968075099E+02  0.33855447903E+02  0.16960198937E+03  0.19166550292E+03  0.79906061639E+02 0.  0.
          6    2    1    2  501    0 -0.10890458485E+03  0.33768658622E+02  0.11082374697E+04  0.11274928496E+04  0.17334735569E+03 0.  0.
         24    2    5    5    0    0 -0.13396552496E+03  0.41429171602E+02  0.10614628788E+04  0.10736719751E+04  0.80030799636E+02 0.  0.
          5    1    5    5  501    0  0.25060940105E+02 -0.76605129795E+01  0.46774590898E+02  0.53820874498E+02  0.47000000000E+01 0. -1.
        -13    1    6    6    0    0  0.86178843207E+01 -0.27400551539E+01  0.26502150300E+02  0.28002496370E+02  0.00000000000E+00 0.  1.
         14    1    6    6    0    0 -0.14258340928E+03  0.44169226756E+02  0.10349607285E+04  0.10456694788E+04  0.00000000000E+00 0. -1.
         -5    1    3    3    0  503  0.87936509753E+02 -0.67624106525E+02  0.12690831666E+03  0.16862283466E+03  0.47000000000E+01 0.  1.
         11    1    4    4    0    0 -0.27507018590E+02  0.59726605698E+01  0.90615316533E+02  0.94886481315E+02  0.00000000000E+00 0. -1.
        -12    1    4    4    0    0  0.48475093689E+02  0.27882787333E+02  0.78986672833E+02  0.96779021605E+02  0.00000000000E+00 0.  1.
</event>
<event>
12    1  0.8133506E-002  0.1855572E+03  0.7818608E-02  0.1162811E+00
         21   -1    0    0  503  502  0.00000000000E+00  0.00000000000E+00  0.29397048585E+03  0.29397048585E+03  0.00000000000E+00 0. -1.
         21   -1    0    0  501  503 -0.00000000000E+00 -0.00000000000E+00 -0.26027574973E+03  0.26027574973E+03  0.00000000000E+00 0. -1.
          6    2    1    2  501    0  0.19381662101E+02  0.67833669785E+02 -0.18918977433E+03  0.26499855912E+03  0.17162287155E+03 0.  0.
         24    2    3    3    0    0  0.59618639030E+01 -0.12453861640E+02 -0.15358991913E+03  0.17602879810E+03  0.84885994185E+02 0.  0.
         -6    2    1    2    0  502 -0.19381662101E+02 -0.67833669785E+02  0.22288451046E+03  0.28924767646E+03  0.17032221745E+03 0.  0.
        -24    2    5    5    0    0 -0.77639477684E+02 -0.46048237077E+02  0.17021650428E+03  0.20761075449E+03  0.77332001250E+02 0.  0.
          5    1    3    3  501    0  0.13419798198E+02  0.80287531424E+02 -0.35599855195E+02  0.88969761019E+02  0.47000000000E+01 0. -1.
        -13    1    4    4    0    0 -0.24870347640E+02 -0.10412476486E+02 -0.93823445206E+01  0.28547893916E+02  0.00000000000E+00 0.  1.
         14    1    4    4    0    0  0.30832211543E+02 -0.20413851536E+01 -0.14420757461E+03  0.14748090418E+03  0.00000000000E+00 0. -1.
         -5    1    5    5    0  502  0.58257815583E+02 -0.21785432707E+02  0.52668006175E+02  0.81636921973E+02  0.47000000000E+01 0.  1.
         11    1    6    6    0    0 -0.19958269065E+02 -0.40922642574E+00  0.11211415415E+03  0.11387749352E+03  0.00000000000E+00 0. -1.
        -12    1    6    6    0    0 -0.57681208620E+02 -0.45639010651E+02  0.58102350135E+02  0.93733260971E+02  0.00000000000E+00 0.  1.
</event>
<event>
12    1  0.8133506E-002  0.1865977E+03  0.7818608E-02  0.1162020E+00
         21   -1    0    0  501  502  0.00000000000E+00  0.00000000000E+00  0.32051695894E+02  0.32051695894E+02  0.00000000000E+00 0.  1.
         21   -1    0    0  502  503 -0.00000000000E+00 -0.00000000000E+00 -0.25865618542E+04  0.25865618542E+04  0.00000000000E+00 0.  1.
         -6    2    1    2    0  503 -0.15746481570E+02 -0.65765816086E+02 -0.22809494453E+04  0.22885692232E+04  0.17391268743E+03 0.  0.
        -24    2    3    3    0    0  0.49232446732E+02 -0.92720815124E+01 -0.93281004452E+03  0.93767480198E+03  0.81176658084E+02 0.  0.
          6    2    1    2  501    0  0.15746481570E+02  0.65765816086E+02 -0.27356071294E+03  0.33004432689E+03  0.17181588925E+03 0.  0.
         24    2    5    5    0    0  0.39834835197E+01 -0.26546805281E+02 -0.18174949114E+03  0.19923385852E+03  0.77075624157E+02 0.  0.
          5    1    5    5  501    0  0.11762998050E+02  0.92312621367E+02 -0.91811221809E+02  0.13081046838E+03  0.47000000000E+01 0. -1.
        -11    1    6    6    0    0  0.33837436133E+02 -0.56629049543E+01 -0.13848915854E+03  0.14267546254E+03  0.00000000000E+00 0.  1.
         12    1    6    6    0    0 -0.29853952613E+02 -0.20883900327E+02 -0.43260332596E+02  0.56558395980E+02  0.00000000000E+00 0. -1.
         -5    1    3    3    0  503 -0.64978928302E+02 -0.56493734573E+02 -0.13481394008E+04  0.13508944212E+04  0.47000000000E+01 0.  1.
         11    1    4    4    0    0  0.13625659965E+02 -0.42516650876E+02 -0.35081034409E+03  0.35363996059E+03  0.00000000000E+00 0. -1.
        -12    1    4    4    0    0  0.35606786767E+02  0.33244569363E+02 -0.58199970043E+03  0.58403484139E+03  0.00000000000E+00 0.  1.
</event>
<event>
12    1  0.8133506E-002  0.1915594E+03  0.7818608E-02  0.1157546E+00
         21   -1    0    0  503  502  0.00000000000E+00  0.00000000000E+00  0.68965854581E+03  0.68965854581E+03  0.00000000000E+00 0.  1.
         21   -1    0    0  501  503 -0.00000000000E+00 -0.00000000000E+00 -0.55708737857E+02  0.55708737857E+02  0.00000000000E+00 0. -1.
          6    2    1    2  501    0  0.46347703875E+02 -0.67290935823E+02  0.22738718246E+03  0.29593636144E+03  0.17087193912E+03 0.  0.
         24    2    3    3    0    0  0.51733804742E+02 -0.94517863278E+02  0.23136751863E+03  0.26750664570E+03  0.80117811902E+02 0.  0.
         -6    2    1    2    0  502 -0.46347703875E+02  0.67290935823E+02  0.40656262549E+03  0.44943092222E+03  0.17325935965E+03 0.  0.
        -24    2    5    5    0    0 -0.89302336528E+02  0.82461827801E+02  0.30523810706E+03  0.33823737715E+03  0.80370149614E+02 0.  0.
          5    1    3    3  501    0 -0.53861008671E+01  0.27226927455E+02 -0.39803361711E+01  0.28429715743E+02  0.47000000000E+01 0. -1.
        -13    1    4    4    0    0  0.84171379726E+01  0.17574864412E+01  0.93334771150E+02  0.93730019076E+02  0.00000000000E+00 0.  1.
         14    1    4    4    0    0  0.43316666769E+02 -0.96275349719E+02  0.13803274748E+03  0.17377662662E+03  0.00000000000E+00 0. -1.
         -5    1    5    5    0  502  0.42954632654E+02 -0.15170891978E+02  0.10132451843E+03  0.11119354507E+03  0.47000000000E+01 0.  1.
         13    1    6    6    0    0 -0.47540208129E+01  0.57283603234E+02  0.11759545033E+03  0.13089194724E+03  0.00000000000E+00 0. -1.
        -14    1    6    6    0    0 -0.84548315715E+02  0.25178224567E+02  0.18764265673E+03  0.20734542991E+03  0.00000000000E+00 0.  1.
</event>
<event>
12    1  0.8133506E-002  0.2580787E+03  0.7818608E-02  0.1108432E+00
         21   -1    0    0  501  502  0.00000000000E+00  0.00000000000E+00  0.59354082197E+02  0.59354082197E+02  0.00000000000E+00 0.  1.
         21   -1    0    0  502  503 -0.00000000000E+00 -0.00000000000E+00 -0.12243722601E+04  0.12243722601E+04  0.00000000000E+00 0. -1.
         -6    2    1    2    0  503  0.71240053741E+02 -0.17883091208E+03 -0.77216487305E+03  0.81415182899E+03  0.17189813585E+03 0.  0.
        -24    2    3    3    0    0  0.67360066298E+02 -0.12708621776E+03 -0.32562227331E+03  0.36457986471E+03  0.78742158947E+02 0.  0.
          6    2    1    2  501    0 -0.71240053741E+02  0.17883091208E+03 -0.39285330482E+03  0.46957451327E+03  0.17061906117E+03 0.  0.
         24    2    5    5    0    0 -0.19474617112E+02  0.18256957789E+03 -0.26950548609E+03  0.33567002329E+03  0.79562843217E+02 0.  0.
          5    1    5    5  501    0 -0.51765436630E+02 -0.37386658128E+01 -0.12334781872E+03  0.13390448998E+03  0.47000000000E+01 0. -1.
        -13    1    6    6    0    0 -0.41178012500E+02  0.93348589586E+02 -0.18298379502E+03  0.20950574486E+03  0.00000000000E+00 0.  1.
         14    1    6    6    0    0  0.21703395389E+02  0.89220988306E+02 -0.86521691074E+02  0.12616427843E+03  0.00000000000E+00 0. -1.
         -5    1    3    3    0  503  0.38799874438E+01 -0.51744694322E+02 -0.44654259974E+03  0.44957196429E+03  0.47000000000E+01 0.  1.
         13    1    4    4    0    0  0.74617714510E+02 -0.58055187817E+02 -0.19083336960E+03  0.21296850261E+03  0.00000000000E+00 0. -1.
        -14    1    4    4    0    0 -0.72576482127E+01 -0.69031029940E+02 -0.13478890371E+03  0.15161136210E+03  0.00000000000E+00 0.  1.
</event>
<event>
12    1  0.8133506E-002  0.2171040E+03  0.7818608E-02  0.1136148E+00
         21   -1    0    0  501  502  0.00000000000E+00  0.00000000000E+00  0.17975021306E+03  0.17975021306E+03  0.00000000000E+00 0.  1.
         21   -1    0    0  502  503 -0.00000000000E+00 -0.00000000000E+00 -0.57066639750E+03  0.57066639750E+03  0.00000000000E+00 0.  1.
         -6    2    1    2    0  503  0.24594903692E+02 -0.12924965401E+03 -0.47164982829E+03  0.51921835791E+03  0.17269557121E+03 0.  0.
        -24    2    3    3    0    0 -0.37491021419E+02 -0.69427029081E+02 -0.36604159647E+03  0.38280502580E+03  0.79545888479E+02 0.  0.
          6    2    1    2  501    0 -0.24594903692E+02  0.12924965401E+03  0.80733643843E+02  0.23119825266E+03  0.17211719390E+03 0.  0.
         24    2    5    5    0    0 -0.19713340256E+02  0.15936608341E+03  0.89169503171E+02  0.19919696044E+03  0.77084787272E+02 0.  0.
          5    1    5    5  501    0 -0.48815634358E+01 -0.30116429396E+02 -0.84358593279E+01  0.32001292220E+02  0.47000000000E+01 0. -1.
        -11    1    6    6    0    0 -0.32164799628E+02  0.45603552002E+02  0.58214815257E+02  0.80642563239E+02  0.00000000000E+00 0.  1.
         12    1    6    6    0    0  0.12451459372E+02  0.11376253140E+03  0.30954687914E+02  0.11855439720E+03  0.00000000000E+00 0. -1.
         -5    1    3    3    0  503  0.62085925111E+02 -0.59822624928E+02 -0.10560823182E+03  0.13641333211E+03  0.47000000000E+01 0.  1.
         13    1    4    4    0    0  0.18106382926E+02  0.42224052084E+01 -0.43123059745E+02  0.46960282050E+02  0.00000000000E+00 0. -1.
        -14    1    4    4    0    0 -0.55597404346E+02 -0.73649434290E+02 -0.32291853672E+03  0.33584474375E+03  0.00000000000E+00 0.  1.
</event>
<event>
12    1  0.8133506E-002  0.2022449E+03  0.7818608E-02  0.1147862E+00
         21   -1    0    0  503  502  0.00000000000E+00  0.00000000000E+00  0.23193849914E+03  0.23193849914E+03  0.00000000000E+00 0.  1.
         21   -1    0    0  501  503 -0.00000000000E+00 -0.00000000000E+00 -0.52811610648E+03  0.52811610648E+03  0.00000000000E+00 0. -1.
          6    2    1    2  501    0 -0.27330486483E+02  0.10431079542E+03 -0.45824565777E+03  0.50088466852E+03  0.17108088953E+03 0.  0.
         24    2    3    3    0    0 -0.41998002743E+02  0.13819834909E+03 -0.36794229774E+03  0.40321026471E+03  0.79588737781E+02 0.  0.
         -6    2    1    2    0  502  0.27330486483E+02 -0.10431079542E+03  0.16206805042E+03  0.25916993710E+03  0.17110027993E+03 0.  0.
        -24    2    5    5    0    0  0.78340964261E+02 -0.87953811074E+02  0.13845485101E+03  0.20043925545E+03  0.84456910866E+02 0.  0.
          5    1    3    3  501    0  0.14667516260E+02 -0.33887553661E+02 -0.90303360035E+02  0.97674403812E+02  0.47000000000E+01 0. -1.
        -11    1    4    4    0    0 -0.17311179515E+02  0.38859434305E+02 -0.35631375563E+02  0.55491688523E+02  0.00000000000E+00 0.  1.
         12    1    4    4    0    0 -0.24686823228E+02  0.99338914780E+02 -0.33231092217E+03  0.34771857619E+03  0.00000000000E+00 0. -1.
         -5    1    5    5    0  502 -0.51010477778E+02 -0.16356984351E+02  0.23613199412E+02  0.58730681646E+02  0.47000000000E+01 0.  1.
         13    1    6    6    0    0  0.20133763261E+02 -0.62025542570E+02  0.24086438834E+02  0.69517572525E+02  0.00000000000E+00 0. -1.
        -14    1    6    6    0    0  0.58207201000E+02 -0.25928268504E+02  0.11436841218E+03  0.13092168292E+03  0.00000000000E+00 0.  1.
</event>
<event>
12    1  0.8133506E-002  0.2716981E+03  0.7818608E-02  0.1100468E+00
         21   -1    0    0  503  502  0.00000000000E+00  0.00000000000E+00  0.55657178805E+03  0.55657178805E+03  0.00000000000E+00 0. -1.
         21   -1    0    0  501  503 -0.00000000000E+00 -0.00000000000E+00 -0.13742886496E+03  0.13742886496E+03  0.00000000000E+00 0. -1.
          6    2    1    2  501    0 -0.63294367905E+02  0.19898283265E+03  0.14082584644E+03  0.30505303072E+03  0.17211939991E+03 0.  0.
         24    2    3    3    0    0 -0.88733263040E+02  0.84570664187E+02  0.45560391456E+02  0.15394089159E+03  0.81217360353E+02 0.  0.
         -6    2    1    2    0  502  0.63294367905E+02 -0.19898283265E+03  0.27831707664E+03  0.38894762229E+03  0.17383760536E+03 0.  0.
        -24    2    5    5    0    0  0.64560052712E+02 -0.20841170011E+03  0.29095576566E+03  0.37244513886E+03  0.80353511095E+02 0.  0.
          5    1    3    3  501    0  0.25438895135E+02  0.11441216847E+03  0.95265454987E+02  0.15111213913E+03  0.47000000000E+01 0. -1.
        -11    1    4    4    0    0 -0.58442117083E+02  0.47740841581E+01  0.34076050825E+02  0.67819246299E+02  0.00000000000E+00 0.  1.
         12    1    4    4    0    0 -0.30291145957E+02  0.79796580029E+02  0.11484340631E+02  0.86121645290E+02  0.00000000000E+00 0. -1.
         -5    1    5    5    0  502 -0.12656848072E+01  0.94288674530E+01 -0.12638689013E+02  0.16502483433E+02  0.47000000000E+01 0.  1.
         11    1    6    6    0    0 -0.18045388718E+02 -0.37917867291E+02  0.39877594727E+02  0.57910476385E+02  0.00000000000E+00 0. -1.
        -12    1    6    6    0    0  0.82605441431E+02 -0.17049383281E+03  0.25107817093E+03  0.31453466248E+03  0.00000000000E+00 0.  1.
</event>
<event>
12    1  0.8133506E-002  0.1952230E+03  0.7818608E-02  0.1154410E+00
         21   -1    0    0  503  502  0.00000000000E+00  0.00000000000E+00  0.44028744126E+03  0.44028744126E+03  0.00000000000E+00 0. -1.
         21   -1    0    0  501  503 -0.00000000000E+00 -0.00000000000E+00 -0.85600136162E+02  0.85600136162E+02  0.00000000000E+00 0. -1.
          6    2    1    2  501    0  0.84320805068E+02 -0.27610999015E+02  0.19129555169E+03  0.27332396622E+03  0.17389547717E+03 0.  0.
         24    2    3    3    0    0  0.12008952137E+03 -0.33431022962E+02  0.18484020468E+03  0.23621554063E+03  0.78056094763E+02 0.  0.
         -6    2    1    2    0  502 -0.84320805068E+02  0.27610999015E+02  0.16339175341E+03  0.25256361120E+03  0.17093609095E+03 0.  0.
        -24    2    5    5    0    0  0.40712451996E+01  0.35833102354E+02  0.13073357656E+03  0.15785667350E+03  0.80789077642E+02 0.  0.
          5    1    3    3  501    0 -0.35768716304E+02  0.58200239470E+01  0.64553470091E+01  0.37108425590E+02  0.47000000000E+01 0. -1.
        -13    1    4    4    0    0  0.78789839373E+02 -0.36576057042E+02  0.62388447838E+02  0.10694842290E+03  0.00000000000E+00 0.  1.
         14    1    4    4    0    0  0.41299681999E+02  0.31450340808E+01  0.12245175684E+03  0.12926711773E+03  0.00000000000E+00 0. -1.
         -5    1    5    5    0  502 -0.88392050268E+02 -0.82221033394E+01  0.32658176848E+02  0.94706937702E+02  0.47000000000E+01 0.  1.
         13    1    6    6    0    0  0.40951332499E+02  0.82825748322E+01  0.52650442497E+02  0.67213702282E+02  0.00000000000E+00 0. -1.
        -14    1    6    6    0    0 -0.36880087300E+02  0.27550527522E+02  0.78083134067E+02  0.90642971220E+02  0.00000000000E+00 0.  1.
</event>
<event>
12    1  0.8133506E-002  0.5901543E+03  0.7818608E-02  0.9926075E-01
         21   -1    0    0  501  502  0.00000000000E+00  0.00000000000E+00  0.44235643618E+03  0.44235643618E+03  0.00000000000E+00 0.  1.
         21   -1    0    0  502  503 -0.00000000000E+00 -0.00000000000E+00 -0.79178298078E+03  0.79178298078E+03  0.00000000000E+00 0. -1.
         -6    2    1    2    0  503  0.52851373733E+03 -0.19824306677E+03 -0.22134034709E+03  0.63024523392E+03  0.17201866630E+03 0.  0.
        -24    2    3    3    0    0  0.26127853769E+03 -0.14146807779E+03 -0.61260516884E+02  0.31356606925E+03  0.79316691561E+02 0.  0.
          6    2    1    2  501    0 -0.52851373733E+03  0.19824306677E+03 -0.12808619751E+03  0.60389418305E+03  0.17220634792E+03 0.  0.
         24    2    5    5    0    0 -0.34370380880E+03  0.75487427120E+02 -0.12512587273E+03  0.38196061129E+03  0.80042268325E+02 0.  0.
          5    1    5    5  501    0 -0.18480992853E+03  0.12275563965E+03 -0.29603247784E+01  0.22193357176E+03  0.47000000000E+01 0. -1.
        -11    1    6    6    0    0 -0.24524921571E+03  0.80170571234E+02 -0.11623955467E+03  0.28299493347E+03  0.00000000000E+00 0.  1.
         12    1    6    6    0    0 -0.98454593090E+02 -0.46831441136E+01 -0.88863180573E+01  0.98965677828E+02  0.00000000000E+00 0. -1.
         -5    1    3    3    0  503  0.26723519963E+03 -0.56774988979E+02 -0.16007983021E+03  0.31667916467E+03  0.47000000000E+01 0.  1.
         13    1    4    4    0    0  0.16268262448E+03 -0.51386671831E+02 -0.57250383925E+02  0.17995508554E+03  0.00000000000E+00 0. -1.
        -14    1    4    4    0    0  0.98595913210E+02 -0.90081405961E+02 -0.40101329589E+01  0.13361098371E+03  0.00000000000E+00 0.  1.
</event>
<event>
12    1  0.8133506E-002  0.4035875E+03  0.7818608E-02  0.1042647E+00
         21   -1    0    0  501  502  0.00000000000E+00  0.00000000000E+00  0.72234448266E+03  0.72234448266E+03  0.00000000000E+00 0.  1.
         21   -1    0    0  502  503 -0.00000000000E+00 -0.00000000000E+00 -0.22801154423E+03  0.22801154423E+03  0.00000000000E+00 0. -1.
         -6    2    1    2    0  503  0.29182371615E+03 -0.21597892608E+03  0.19062313584E+03  0.44525946306E+03  0.17352472939E+03 0.  0.
        -24    2    3    3    0    0  0.17346591467E+03 -0.16423165637E+03  0.54788811204E+02  0.25775105567E+03  0.79820626143E+02 0.  0.
          6    2    1    2  501    0 -0.29182371615E+03  0.21597892608E+03  0.30370980260E+03  0.50509656383E+03  0.17628078959E+03 0.  0.
         24    2    5    5    0    0 -0.27414032752E+03  0.15205669908E+03  0.29553916987E+03  0.43810699317E+03  0.79499544834E+02 0.  0.
          5    1    5    5  501    0 -0.17683388627E+02  0.63922226998E+02  0.81706327312E+01  0.66989570658E+02  0.47000000000E+01 0. -1.
        -11    1    6    6    0    0 -0.16279411870E+03  0.13347542065E+03  0.19375329375E+03  0.28610828692E+03  0.00000000000E+00 0.  1.
         12    1    6    6    0    0 -0.11134620882E+03  0.18581278433E+02  0.10178587611E+03  0.15199870625E+03  0.00000000000E+00 0. -1.
         -5    1    3    3    0  503  0.11835780148E+03 -0.51747269707E+02  0.13583432463E+03  0.18750840739E+03  0.47000000000E+01 0.  1.
         13    1    4    4    0    0  0.80665597226E+02 -0.12946979034E+03  0.27936003856E+02  0.15507993261E+03  0.00000000000E+00 0. -1.
        -14    1    4    4    0    0  0.92800317447E+02 -0.34761866033E+02  0.26852807348E+02  0.10267112306E+03  0.00000000000E+00 0.  1.
</event>
<event>
12    1  0.8133506E-002  0.2773326E+03  0.7818608E-02  0.1097185E+00
         21   -1    0    0  503  502  0.00000000000E+00  0.00000000000E+00  0.87162028399E+02  0.87162028399E+02  0.00000000000E+00 0. -1.
         21   -1    0    0  501  503 -0.00000000000E+00 -0.00000000000E+00 -0.91570908177E+03  0.91570908177E+03  0.00000000000E+00 0. -1.
          6    2    1    2  501    0  0.16252762546E+03  0.14382419519E+03 -0.51073111785E+03  0.58106507178E+03  0.17230703623E+03 0.  0.
         24    2    3    3    0    0  0.15849950398E+03  0.10265071241E+03 -0.29063200948E+03  0.35706241788E+03  0.85833232535E+02 0.  0.
         -6    2    1    2    0  502 -0.16252762546E+03 -0.14382419519E+03 -0.31781593552E+03  0.42180603840E+03  0.17266365280E+03 0.  0.
        -24    2    5    5    0    0 -0.13579721333E+02 -0.70680009611E+02 -0.85058146915E+02  0.13591475105E+03  0.77832246564E+02 0.  0.
          5    1    3    3  501    0  0.40281214829E+01  0.41173482772E+02 -0.22009910837E+03  0.22400265390E+03  0.47000000000E+01 0. -1.
        -13    1    4    4    0    0  0.15364153601E+02  0.27273766971E+02 -0.95062176547E+01  0.32715191498E+02  0.00000000000E+00 0.  1.
         14    1    4    4    0    0  0.14313535037E+03  0.75376945442E+02 -0.28112579183E+03  0.32434722638E+03  0.00000000000E+00 0. -1.
         -5    1    5    5    0  502 -0.14894790412E+03 -0.73144185574E+02 -0.23275778861E+03  0.28589128735E+03  0.47000000000E+01 0.  1.
         11    1    6    6    0    0 -0.38275630101E+02 -0.71713587411E+02 -0.65643181112E+02  0.10448392080E+03  0.00000000000E+00 0. -1.
        -12    1    6    6    0    0  0.24695908767E+02  0.10335778004E+01 -0.19414965803E+02  0.31430830248E+02  0.00000000000E+00 0.  1.
</event>
<event>
12    1  0.8133506E-002  0.2090975E+03  0.7818608E-02  0.1143130E+00
         21   -1    0    0  503  502  0.00000000000E+00  0.00000000000E+00  0.76187557557E+02  0.76187557557E+02  0.00000000000E+00 0.  1.
         21   -1    0    0  501  503 -0.00000000000E+00 -0.00000000000E+00 -0.75243886655E+03  0.75243886655E+03  0.00000000000E+00 0.  1.
          6    2    1    2  501    0 -0.79993387327E+02  0.84894795455E+02 -0.54891575687E+03  0.58739278791E+03  0.17353878769E+03 0.  0.
         24    2    3    3    0    0  0.16949085835E+02  0.13491243460E+02 -0.15019294479E+03  0.17086153912E+03  0.78526808964E+02 0.  0.
         -6    2    1    2    0  502  0.79993387327E+02 -0.84894795455E+02 -0.12733555212E+03  0.24123363620E+03  0.16844362882E+03 0.  0.
        -24    2    5    5    0    0  0.73587037403E+02 -0.86118927460E+02 -0.15706548575E+03  0.21043592895E+03  0.82354062664E+02 0.  0.
          5    1    3    3  501    0 -0.96942473162E+02  0.71403551995E+02 -0.39872281209E+03  0.41653124879E+03  0.47000000000E+01 0. -1.
        -11    1    4    4    0    0 -0.21052169238E+02 -0.71261328994E+01 -0.10866176431E+03  0.11091147201E+03  0.00000000000E+00 0.  1.
         12    1    4    4    0    0  0.38001255073E+02  0.20617376360E+02 -0.41531180476E+02  0.59950067112E+02  0.00000000000E+00 0. -1.
         -5    1    5    5    0  502  0.64063499240E+01  0.12241320048E+01  0.29729933628E+02  0.30797707253E+02  0.47000000000E+01 0.  1.
         13    1    6    6    0    0  0.45752907851E+02  0.38033928825E+01 -0.52454742763E+02  0.69708639440E+02  0.00000000000E+00 0. -1.
        -14    1    6    6    0    0  0.27834129552E+02 -0.89922320342E+02 -0.10461074299E+03  0.14072728951E+03  0.00000000000E+00 0.  1.
</event>
<event>
12    1  0.8133506E-002  0.1846237E+03  0.7818608E-02  0.1163510E+00
         21   -1    0    0  501  502  0.00000000000E+00  0.00000000000E+00  0.27922089113E+03  0.27922089113E+03  0.00000000000E+00 0. -1.
         21   -1    0    0  502  503 -0.00000000000E+00 -0.00000000000E+00 -0.34674181241E+03  0.34674181241E+03  0.00000000000E+00 0. -1.
         -6    2    1    2    0  503 -0.35703363742E+02  0.57630068750E+02 -0.28587865470E+03  0.34031235551E+03  0.17172634944E+03 0.  0.
        -24    2    3    3    0    0  0.38015138489E+02 -0.50233685675E+01 -0.12676610867E+03  0.15403631550E+03  0.78658471879E+02 0.  0.
          6    2    1    2  501    0  0.35703363742E+02 -0.57630068750E+02  0.21835773342E+03  0.28565034802E+03  0.17123103275E+03 0.  0.
         24    2    5    5    0    0 -0.25073793148E+02 -0.13389769626E+02  0.48270876835E+02  0.99632349841E+02  0.82392636509E+02 0.  0.
          5    1    5    5  501    0  0.60777156890E+02 -0.44240299123E+02  0.17008685658E+03  0.18601799818E+03  0.47000000000E+01 0. -1.
        -13    1    6    6    0    0  0.76325905032E+01 -0.34554874913E+02 -0.26861987574E+01  0.35489596811E+02  0.00000000000E+00 0.  1.
         14    1    6    6    0    0 -0.32706383651E+02  0.21165105287E+02  0.50957075593E+02  0.64142753030E+02  0.00000000000E+00 0. -1.
         -5    1    3    3    0  503 -0.73718502231E+02  0.62653437317E+02 -0.15911254602E+03  0.18627604001E+03  0.47000000000E+01 0.  1.
         11    1    4    4    0    0  0.17081917027E+01  0.14764275067E+02 -0.10731739025E+03  0.10834170013E+03  0.00000000000E+00 0. -1.
        -12    1    4    4    0    0  0.36306946787E+02 -0.19787643634E+02 -0.19448718427E+02  0.45694615372E+02  0.00000000000E+00 0.  1.
</event>
<event>
12    1  0.8133506E-002  0.2584506E+03  0.7818608E-02  0.1108152E+00
         21   -1    0    0  503  502  0.00000000000E+00  0.00000000000E+00  0.22210252058E+03  0.22210252058E+03  0.00000000000E+00 0.  1.
         21   -1    0    0  501  503 -0.00000000000E+00 -0.00000000000E+00 -0.35502432874E+03  0.35502432874E+03  0.00000000000E+00 0.  1.
          6    2    1    2  501    0  0.22344252122E+02  0.19019623819E+03 -0.17982501306E+03  0.31445478214E+03  0.17283199953E+03 0.  0.
         24    2    3    3    0    0  0.70201151002E+01 -0.30630340074E+00 -0.54834899839E+02  0.86045793847E+02  0.65936610169E+02 0.  0.
         -6    2    1    2    0  502 -0.22344252122E+02 -0.19019623819E+03  0.46903204890E+02  0.26267206718E+03  0.17355929713E+03 0.  0.
        -24    2    5    5    0    0  0.18987878003E+01 -0.48593132135E+02 -0.30438661783E+02  0.99445173040E+02  0.81227657999E+02 0.  0.
          5    1    3    3  501    0  0.15324137022E+02  0.19050254159E+03 -0.12499011322E+03  0.22840898829E+03  0.47000000000E+01 0. -1.
        -13    1    4    4    0    0  0.26777017752E+02  0.20936702835E+02 -0.42757241218E+02  0.54621752826E+02  0.00000000000E+00 0.  1.
         14    1    4    4    0    0 -0.19756902652E+02 -0.21243006235E+02 -0.12077658622E+02  0.31424041021E+02  0.00000000000E+00 0. -1.
         -5    1    5    5    0  502 -0.24243039922E+02 -0.14160310606E+03  0.77341866673E+02  0.16322689414E+03  0.47000000000E+01 0.  1.
         11    1    6    6    0    0 -0.22702762912E+02  0.14261575762E+02 -0.47712644431E+01  0.27231837093E+02  0.00000000000E+00 0. -1.
        -12    1    6    6    0    0  0.24601550713E+02 -0.62854707898E+02 -0.25667397340E+02  0.72213335947E+02  0.00000000000E+00 0.  1.
</event>
<event>
12    1  0.8133506E-002  0.1754991E+03  0.7818608E-02  0.1174598E+00
         21   -1    0    0  501  502  0.00000000000E+00  0.00000000000E+00  0.54538807372E+03  0.54538807372E+03  0.00000000000E+00 0.  1.
         21   -1    0    0  502  503 -0.00000000000E+00 -0.00000000000E+00 -0.53917382258E+02  0.53917382258E+02  0.00000000000E+00 0.  1.
         -6    2    1    2    0  503 -0.13947899233E+02  0.34954792997E+02  0.27690368211E+03  0.32783470028E+03  0.17141633556E+03 0.  0.
        -24    2    3    3    0    0 -0.27558374970E+02  0.52816070739E+02  0.28667719605E+03  0.30289714091E+03  0.77549093326E+02 0.  0.
          6    2    1    2  501    0  0.13947899233E+02 -0.34954792997E+02  0.21456700936E+03  0.27147075570E+03  0.16199070421E+03 0.  0.
         24    2    5    5    0    0  0.46484503874E+02 -0.10483081685E+01  0.20289745001E+03  0.22282356698E+03  0.79505086207E+02 0.  0.
          5    1    5    5  501    0 -0.32536604641E+02 -0.33906484829E+02  0.11669559351E+02  0.48647188721E+02  0.47000000000E+01 0. -1.
        -11    1    6    6    0    0  0.11456272714E+02 -0.37850790069E+02  0.67833841990E+02  0.78519797583E+02  0.00000000000E+00 0.  1.
         12    1    6    6    0    0  0.35028231160E+02  0.36802481900E+02  0.13506360802E+03  0.14430376940E+03  0.00000000000E+00 0. -1.
         -5    1    3    3    0  503  0.13610475738E+02 -0.17861277742E+02 -0.97735139453E+01  0.24937559368E+02  0.47000000000E+01 0.  1.
         11    1    4    4    0    0 -0.27283961850E+02 -0.14087700674E+02  0.98891893177E+02  0.10354942984E+03  0.00000000000E+00 0. -1.
        -12    1    4    4    0    0 -0.27441312013E+00  0.66903771414E+02  0.18778530287E+03  0.19934771107E+03  0.00000000000E+00 0.  1.
</event>
<event>
12    1  0.8133506E-002  0.1896073E+03  0.7818608E-02  0.1159176E+00
         21   -1    0    0  503  502  0.00000000000E+00  0.00000000000E+00  0.20426491584E+03  0.20426491584E+03  0.00000000000E+00 0. -1.
         21   -1    0    0  501  503 -0.00000000000E+00 -0.00000000000E+00 -0.25779827855E+03  0.25779827855E+03  0.00000000000E+00 0. -1.
          6    2    1    2  501    0 -0.54276974808E+02  0.57913580880E+02 -0.15798912045E+03  0.24558702972E+03  0.17044780473E+03 0.  0.
         24    2    3    3    0    0 -0.32964982478E+02 -0.37403418340E+02 -0.90144604888E+02  0.12657232621E+03  0.73544532083E+02 0.  0.
         -6    2    1    2    0  502  0.54276974808E+02 -0.57913580880E+02  0.10445575774E+03  0.21647616468E+03  0.17219451705E+03 0.  0.
        -24    2    5    5    0    0  0.37519906264E+02 -0.10052993166E+03  0.10525889429E+03  0.17043609812E+03  0.80343127834E+02 0.  0.
          5    1    3    3  501    0 -0.21311992330E+02  0.95316999220E+02 -0.67844515567E+02  0.11901470350E+03  0.47000000000E+01 0. -1.
        -13    1    4    4    0    0 -0.51700494191E+02 -0.42277769990E+02 -0.81505042084E+02  0.10537278026E+03  0.00000000000E+00 0.  1.
         14    1    4    4    0    0  0.18735511712E+02  0.48743516494E+01 -0.86395628037E+01  0.21199545952E+02  0.00000000000E+00 0. -1.
         -5    1    5    5    0  502  0.16757068544E+02  0.42616350780E+02 -0.80313654744E+00  0.46040066554E+02  0.47000000000E+01 0.  1.
         13    1    6    6    0    0  0.59218520622E+02 -0.61141022915E+02  0.87544220411E+02  0.12210261420E+03  0.00000000000E+00 0. -1.
        -14    1    6    6    0    0 -0.21698614357E+02 -0.39388908745E+02  0.17714673879E+02  0.48333483920E+02  0.00000000000E+00 0.  1.
</event>
<event>
12    1  0.8133506E-002  0.1884695E+03  0.7818608E-02  0.1159953E+00
         21   -1    0    0  503  502  0.00000000000E+00  0.00000000000E+00  0.22810044394E+04  0.22810044394E+04  0.00000000000E+00 0.  1.
         21   -1    0    0  501  503 -0.00000000000E+00 -0.00000000000E+00 -0.35018338378E+02  0.35018338378E+02  0.00000000000E+00 0.  1.
          6    2    1    2  501    0 -0.17276398507E+02  0.70121194417E+02  0.25861212458E+03  0.31973220241E+03  0.17358857804E+03 0.  0.
         24    2    3    3    0    0  0.57701046642E+02  0.44246110589E+02  0.16456600638E+03  0.19661478044E+03  0.79298627640E+02 0.  0.
         -6    2    1    2    0  502  0.17276398507E+02 -0.70121194417E+02  0.19873739765E+04  0.19962905754E+04  0.17408412681E+03 0.  0.
        -24    2    5    5    0    0 -0.45634887886E+02 -0.28814281704E+02  0.14979126573E+04  0.15010547084E+04  0.80685208625E+02 0.  0.
          5    1    3    3  501    0 -0.74977445150E+02  0.25875083828E+02  0.94046118202E+02  0.12311742197E+03  0.47000000000E+01 0. -1.
        -11    1    4    4    0    0  0.26887627179E+02  0.64411755762E+02  0.94768454447E+02  0.11769825289E+03  0.00000000000E+00 0.  1.
         12    1    4    4    0    0  0.30813419463E+02 -0.20165645173E+02  0.69797551932E+02  0.78916527546E+02  0.00000000000E+00 0. -1.
         -5    1    5    5    0  502  0.62911286394E+02 -0.41306912713E+02  0.48946131917E+03  0.49523586700E+03  0.47000000000E+01 0.  1.
         11    1    6    6    0    0 -0.50051031326E+01  0.27194036500E+02  0.47560839483E+03  0.47641149431E+03  0.00000000000E+00 0. -1.
        -12    1    6    6    0    0 -0.40629784754E+02 -0.56008318204E+02  0.10223042625E+04  0.10246432141E+04  0.00000000000E+00 0.  1.
</event>
<event>
12    1  0.8133506E-002  0.2202354E+03  0.7818608E-02  0.1134146E+00
         21   -1    0    0  501  502  0.00000000000E+00  0.00000000000E+00  0.19407142756E+03  0.19407142756E+03  0.00000000000E+00 0. -1.
         21   -1    0    0  502  503 -0.00000000000E+00 -0.00000000000E+00 -0.76583499723E+03  0.76583499723E+03  0.00000000000E+00 0. -1.
         -6    2    1    2    0  503  0.10898722624E+03 -0.81999581998E+02 -0.68131305241E+03  0.71602451306E+03  0.17292044696E+03 0.  0.
        -24    2    3    3    0    0  0.32847779047E+02 -0.35156295463E+02 -0.54547720182E+03  0.55334391427E+03  0.79556068679E+02 0.  0.
          6    2    1    2  501    0 -0.10898722624E+03  0.81999581998E+02  0.10954948274E+03  0.24388191173E+03  0.16992689831E+03 0.  0.
         24    2    5    5    0    0 -0.45848136099E+02  0.55609503284E+02 -0.73470999923E+01  0.10834637391E+03  0.80563567581E+02 0.  0.
          5    1    5    5  501    0 -0.63139090146E+02  0.26390078714E+02  0.11689658273E+03  0.13553553782E+03  0.47000000000E+01 0. -1.
        -11    1    6    6    0    0  0.14506457584E+02 -0.39739950760E+01 -0.17333669990E+02  0.22949641910E+02  0.00000000000E+00 0.  1.
         12    1    6    6    0    0 -0.60354593683E+02  0.59583498360E+02  0.99865699973E+01  0.85396731997E+02  0.00000000000E+00 0. -1.
         -5    1    3    3    0  503  0.76139447198E+02 -0.46843286536E+02 -0.13583585060E+03  0.16268059878E+03  0.47000000000E+01 0.  1.
         11    1    4    4    0    0  0.46392005715E+02 -0.52320043820E+02 -0.44960672593E+03  0.45501188246E+03  0.00000000000E+00 0. -1.
        -12    1    4    4    0    0 -0.13544226669E+02  0.17163748357E+02 -0.95870475889E+02  0.98332031815E+02  0.00000000000E+00 0.  1.
</event>
<event>
12    1  0.8133506E-002  0.2293979E+03  0.7818608E-02  0.1127412E+00
         21   -1    0    0  503  502  0.00000000000E+00  0.00000000000E+00  0.83403242691E+03  0.83403242691E+03  0.00000000000E+00 0.  1.
         21   -1    0    0  501  503 -0.00000000000E+00 -0.00000000000E+00 -0.65692788115E+02  0.65692788115E+02  0.00000000000E+00 0. -1.
          6    2    1    2  501    0  0.92787669217E+02  0.11767187683E+03  0.28745653212E+03  0.36776982692E+03  0.17368697585E+03 0.  0.
         24    2    3    3    0    0  0.62170921640E+02  0.14397893311E+03  0.27374381379E+03  0.32487955896E+03  0.77562204457E+02 0.  0.
         -6    2    1    2    0  502 -0.92787669217E+02 -0.11767187683E+03  0.48088310668E+03  0.53195538811E+03  0.17108989009E+03 0.  0.
        -24    2    5    5    0    0 -0.48817740917E+02 -0.16278687222E+01  0.28586680681E+03  0.30075631019E+03  0.79678761922E+02 0.  0.
          5    1    3    3  501    0  0.30616747577E+02 -0.26307056275E+02  0.13712718321E+02  0.42890267961E+02  0.47000000000E+01 0. -1.
        -11    1    4    4    0    0 -0.49240704291E+01  0.85186260833E+02  0.12256663535E+03  0.14934364937E+03  0.00000000000E+00 0.  1.
         12    1    4    4    0    0  0.67094992069E+02  0.58792672276E+02  0.15117717844E+03  0.17553590959E+03  0.00000000000E+00 0. -1.
         -5    1    5    5    0  502 -0.43969928300E+02 -0.11604400811E+03  0.19501629988E+03  0.23119907792E+03  0.47000000000E+01 0.  1.
         13    1    6    6    0    0 -0.62283125406E+02 -0.22548573047E+02  0.17461723753E+03  0.18675868253E+03  0.00000000000E+00 0. -1.
        -14    1    6    6    0    0  0.13465384489E+02  0.20920704324E+02  0.11124956927E+03  0.11399762766E+03  0.00000000000E+00 0.  1.
</event>
<event>
12    1  0.8133506E-002  0.3094056E+03  0.7818608E-02  0.1081087E+00
         21   -1    0    0  501  502  0.00000000000E+00  0.00000000000E+00  0.57551546488E+03  0.57551546488E+03  0.00000000000E+00 0. -1.
         21   -1    0    0  502  503 -0.00000000000E+00 -0.00000000000E+00 -0.18973500754E+03  0.18973500754E+03  0.00000000000E+00 0.  1.
         -6    2    1    2    0  503  0.62886756920E+01  0.25726796031E+03  0.53883327359E+02  0.31406246915E+03  0.17177156551E+03 0.  0.
        -24    2    3    3    0    0  0.36915958766E+02  0.54558472538E+02  0.92364502727E+01  0.10419441409E+03  0.80198185621E+02 0.  0.
          6    2    1    2  501    0 -0.62886756920E+01 -0.25726796031E+03  0.33189712998E+03  0.45118800327E+03  0.16488953442E+03 0.  0.
         24    2    5    5    0    0 -0.59761121395E+02 -0.21480452514E+03  0.26562260176E+03  0.35591550531E+03  0.80050638388E+02 0.  0.
          5    1    5    5  501    0  0.53472445703E+02 -0.42463435167E+02  0.66274528226E+02  0.95272497958E+02  0.47000000000E+01 0. -1.
        -11    1    6    6    0    0 -0.37856863381E+02 -0.81926401129E+02  0.54291092817E+02  0.10532141314E+03  0.00000000000E+00 0.  1.
         12    1    6    6    0    0 -0.21904258014E+02 -0.13287812402E+03  0.21133150894E+03  0.25059409217E+03  0.00000000000E+00 0. -1.
         -5    1    3    3    0  503 -0.30627283074E+02  0.20270948777E+03  0.44646877086E+02  0.20986805506E+03  0.47000000000E+01 0.  1.
         11    1    4    4    0    0 -0.16350635828E+02  0.13100648060E+02  0.27211826026E+02  0.34343176138E+02  0.00000000000E+00 0. -1.
        -12    1    4    4    0    0  0.53266594594E+02  0.41457824478E+02 -0.17975375754E+02  0.69851237953E+02  0.00000000000E+00 0.  1.
</event>
<event>
12    1  0.8133506E-002  0.4641518E+03  0.7818608E-02  0.1023620E+00
         21   -1    0    0  501  502  0.00000000000E+00  0.00000000000E+00  0.15533980201E+04  0.15533980201E+04  0.00000000000E+00 0. -1.
         21   -1    0    0  502  503 -0.00000000000E+00 -0.00000000000E+00 -0.33606087621E+03  0.33606087621E+03  0.00000000000E+00 0.  1.
         -6    2    1    2    0  503 -0.37092042852E+03  0.21926742070E+03 -0.11547718289E+03  0.47830104092E+03  0.17255938082E+03 0.  0.
        -24    2    3    3    0    0 -0.29459216568E+03  0.19775985497E+03 -0.35416033758E+02  0.36551603886E+03  0.80337879570E+02 0.  0.
          6    2    1    2  501    0  0.37092042852E+03 -0.21926742070E+03  0.13328143268E+04  0.14111578554E+04  0.17120834412E+03 0.  0.
         24    2    5    5    0    0  0.10642777634E+03 -0.26309194543E+02  0.36140934312E+03  0.38605348394E+03  0.80009586124E+02 0.  0.
          5    1    5    5  501    0  0.26449265218E+03 -0.19295822616E+03  0.97140498365E+03  0.10251043714E+04  0.47000000000E+01 0. -1.
        -13    1    6    6    0    0  0.74148712679E+02 -0.31753671009E+02  0.13478742739E+03  0.15707952698E+03  0.00000000000E+00 0.  1.
         14    1    6    6    0    0  0.32279063663E+02  0.54444764663E+01  0.22662191573E+03  0.22897395696E+03  0.00000000000E+00 0. -1.
         -5    1    3    3    0  503 -0.76328262837E+02  0.21507565727E+02 -0.80061149130E+02  0.11278500207E+03  0.47000000000E+01 0.  1.
         13    1    4    4    0    0 -0.14632627032E+03  0.14559551463E+03 -0.26121616935E+02  0.20806674443E+03  0.00000000000E+00 0. -1.
        -14    1    4    4    0    0 -0.14826589536E+03  0.52164340339E+02 -0.92944168227E+01  0.15744929442E+03  0.00000000000E+00 0.  1.
</event>
<event>
12    1  0.8133506E-002  0.2580887E+03  0.7818608E-02  0.1108474E+00
         21   -1    0    0  503  502  0.00000000000E+00  0.00000000000E+00  0.44662468132E+03  0.44662468132E+03  0.00000000000E+00 0.  1.
         21   -1    0    0  501  503 -0.00000000000E+00 -0.00000000000E+00 -0.15155635423E+03  0.15155635423E+03  0.00000000000E+00 0.  1.
          6    2    1    2  501    0 -0.30769981822E+02 -0.18922204461E+03  0.10516757625E+03  0.27869340499E+03  0.17279473645E+03 0.  0.
         24    2    3    3    0    0 -0.24971722900E+02 -0.11131307064E+03  0.13649283504E+03  0.19439162643E+03  0.78381271793E+02 0.  0.
         -6    2    1    2    0  502  0.30769981822E+02  0.18922204461E+03  0.18990075085E+03  0.31948763056E+03  0.17105050998E+03 0.  0.
        -24    2    5    5    0    0 -0.45127881722E+01  0.10627205089E+03  0.18681251231E+03  0.22917039780E+03  0.79410593857E+02 0.  0.
          5    1    3    3  501    0 -0.57982589214E+01 -0.77908973963E+02 -0.31325258787E+02  0.84301778562E+02  0.47000000000E+01 0. -1.
        -13    1    4    4    0    0 -0.21593889791E+01 -0.33714042848E+02 -0.21812023531E+01  0.33853467911E+02  0.00000000000E+00 0.  1.
         14    1    4    4    0    0 -0.22812333921E+02 -0.77599027795E+02  0.13867403739E+03  0.16053815852E+03  0.00000000000E+00 0. -1.
         -5    1    5    5    0  502  0.35282769994E+02  0.82949993718E+02  0.30882385379E+01  0.90317232761E+02  0.47000000000E+01 0.  1.
         13    1    6    6    0    0 -0.39683197213E+02  0.38751952258E+02  0.93818720655E+02  0.10898817500E+03  0.00000000000E+00 0. -1.
        -14    1    6    6    0    0  0.35170409041E+02  0.67520098630E+02  0.92993791652E+02  0.12018222280E+03  0.00000000000E+00 0.  1.
</event>
<event>
12    1  0.8133506E-002  0.2097538E+03  0.7818608E-02  0.1145935E+00
         21   -1    0    0  503  502  0.00000000000E+00  0.00000000000E+00  0.27902061176E+03  0.27902061176E+03  0.00000000000E+00 0. -1.
         21   -1    0    0  501  503 -0.00000000000E+00 -0.00000000000E+00 -0.26116365261E+03  0.26116365261E+03  0.00000000000E+00 0. -1.
          6    2    1    2  501    0 -0.39860296720E+02  0.75672068284E+02 -0.17284030842E+03  0.25670217928E+03  0.16943178999E+03 0.  0.
         24    2    3    3    0    0  0.16259310543E+02 -0.37315120611E+01 -0.11271985311E+03  0.14228671687E+03  0.85214172254E+02 0.  0.
         -6    2    1    2    0  502  0.39860296720E+02 -0.75672068284E+02  0.19069726757E+03  0.28348208510E+03  0.19152425313E+03 0.  0.
        -24    2    5    5    0    0  0.46165193930E+02 -0.10414772106E+03  0.63303870902E+02  0.15270830315E+03  0.79589401606E+02 0.  0.
          5    1    3    3  501    0 -0.56119607262E+02  0.79403580345E+02 -0.60120455314E+02  0.11441546241E+03  0.47000000000E+01 0. -1.
        -11    1    4    4    0    0  0.37464834098E+02 -0.31384473697E+02 -0.83761532487E+02  0.96977282431E+02  0.00000000000E+00 0.  1.
         12    1    4    4    0    0 -0.21205523555E+02  0.27652961635E+02 -0.28958320619E+02  0.45309434443E+02  0.00000000000E+00 0. -1.
         -5    1    5    5    0  502 -0.63048972106E+01  0.28475652773E+02  0.12739339667E+03  0.13077378195E+03  0.47000000000E+01 0.  1.
         13    1    6    6    0    0  0.46114811671E+02 -0.66440024991E+02  0.21992141521E+01  0.80905434423E+02  0.00000000000E+00 0. -1.
        -14    1    6    6    0    0  0.50382259134E-01 -0.37707696066E+02  0.61104656750E+02  0.71802868727E+02  0.00000000000E+00 0.  1.
</event>
<event>
12    1  0.8133506E-002  0.2242164E+03  0.7818608E-02  0.1130846E+00
         21   -1    0    0  503  502  0.00000000000E+00  0.00000000000E+00  0.80614453462E+02  0.80614453462E+02  0.00000000000E+00 0. -1.
         21   -1    0    0  501  503 -0.00000000000E+00 -0.00000000000E+00 -0.78637740705E+03  0.78637740705E+03  0.00000000000E+00 0. -1.
          6    2    1    2  501    0  0.14113877926E+03  0.31617116505E+02 -0.55095508899E+03  0.59483149873E+03  0.17132776989E+03 0.  0.
         24    2    3    3    0    0  0.11267746854E+03 -0.23957254002E+02 -0.48082529412E+03  0.50081642020E+03  0.79711738979E+02 0.  0.
         -6    2    1    2    0  502 -0.14113877926E+03 -0.31617116505E+02 -0.15480786459E+03  0.27216036177E+03  0.17083907783E+03 0.  0.
        -24    2    5    5    0    0 -0.17485962272E+02 -0.50471149750E+02 -0.84984024950E+02  0.12883223368E+03  0.80761154682E+02 0.  0.
          5    1    3    3  501    0  0.28461310720E+02  0.55574370506E+02 -0.70129794865E+02  0.94015078540E+02  0.47000000000E+01 0. -1.
        -11    1    4    4    0    0  0.16624898906E+01 -0.12699863541E+02 -0.82247339524E+01  0.15221585174E+02  0.00000000000E+00 0.  1.
         12    1    4    4    0    0  0.11101497865E+03 -0.11257390460E+02 -0.47260056017E+03  0.48559483502E+03  0.00000000000E+00 0. -1.
         -5    1    5    5    0  502 -0.12365281699E+03  0.18854033246E+02 -0.69823839644E+02  0.14332812809E+03  0.47000000000E+01 0.  1.
         11    1    6    6    0    0 -0.48960153228E+02 -0.37458880257E+02 -0.45082996108E+02  0.76372382785E+02  0.00000000000E+00 0. -1.
        -12    1    6    6    0    0  0.31474190956E+02 -0.13012269494E+02 -0.39901028842E+02  0.52459850899E+02  0.00000000000E+00 0.  1.
</event>
<event>
12    1  0.8133506E-002  0.1900966E+03  0.7818608E-02  0.1158842E+00
         21   -1    0    0  501  502  0.00000000000E+00  0.00000000000E+00  0.63926986699E+02  0.63926986699E+02  0.00000000000E+00 0. -1.
         21   -1    0    0  502  503 -0.00000000000E+00 -0.00000000000E+00 -0.70019933158E+03  0.70019933158E+03  0.00000000000E+00 0.  1.
         -6    2    1    2    0  503  0.37711112916E+01 -0.75263973951E+02 -0.48822046010E+03  0.52317801489E+03  0.17227051562E+03 0.  0.
        -24    2    3    3    0    0 -0.46230986801E+02 -0.88720795231E+02 -0.27189004143E+03  0.30068703554E+03  0.80497298494E+02 0.  0.
          6    2    1    2  501    0 -0.37711112916E+01  0.75263973951E+02 -0.14805188478E+03  0.24094830339E+03  0.17452173865E+03 0.  0.
         24    2    5    5    0    0  0.98431590217E+01  0.10095164576E+03 -0.16197998278E+03  0.20837090704E+03  0.83022873460E+02 0.  0.
          5    1    5    5  501    0 -0.13614270313E+02 -0.25687671811E+02  0.13928097995E+02  0.32577396351E+02  0.47000000000E+01 0. -1.
        -13    1    6    6    0    0  0.37232087754E+02  0.46258470288E+02 -0.12088003889E+03  0.13467760851E+03  0.00000000000E+00 0.  1.
         14    1    6    6    0    0 -0.27388928732E+02  0.54693175474E+02 -0.41099943891E+02  0.73693298531E+02  0.00000000000E+00 0. -1.
         -5    1    3    3    0  503  0.50002098093E+02  0.13456821280E+02 -0.21633041867E+03  0.22249097935E+03  0.47000000000E+01 0.  1.
         13    1    4    4    0    0 -0.61688532787E+02 -0.74009808941E+02 -0.25753865933E+03  0.27497106747E+03  0.00000000000E+00 0. -1.
        -14    1    4    4    0    0  0.15457545985E+02 -0.14710986290E+02 -0.14351382104E+02  0.25715968071E+02  0.00000000000E+00 0.  1.
</event>
<event>
12    1  0.8133506E-002  0.1746147E+03  0.7818608E-02  0.1173815E+00
         21   -1    0    0  503  502  0.00000000000E+00  0.00000000000E+00  0.11111139068E+04  0.11111139068E+04  0.00000000000E+00 0. -1.
         21   -1    0    0  501  503 -0.00000000000E+00 -0.00000000000E+00 -0.29241202275E+02  0.29241202275E+02  0.00000000000E+00 0. -1.
          6    2    1    2  501    0 -0.22699714344E+02 -0.19983160792E+02  0.38746821934E+03  0.42499637345E+03  0.17197584917E+03 0.  0.
         24    2    3    3    0    0 -0.49459468329E+02 -0.99069500061E+01  0.10533932798E+03  0.14138322883E+03  0.79677203201E+02 0.  0.
         -6    2    1    2    0  502  0.22699714344E+02  0.19983160792E+02  0.69440448523E+03  0.71535873568E+03  0.16919198519E+03 0.  0.
        -24    2    5    5    0    0 -0.30734977997E+02 -0.37162932254E+02  0.37268180798E+03  0.38422656667E+03  0.80078724555E+02 0.  0.
          5    1    3    3  501    0  0.26759753985E+02 -0.10076210786E+02  0.28212889136E+03  0.28361314461E+03  0.47000000000E+01 0. -1.
        -11    1    4    4    0    0 -0.49412988844E+02  0.27635324178E+02  0.67127140292E+02  0.87814620495E+02  0.00000000000E+00 0.  1.
         12    1    4    4    0    0 -0.46479485470E-01 -0.37542274184E+02  0.38212187688E+02  0.53568608337E+02  0.00000000000E+00 0. -1.
         -5    1    5    5    0  502  0.53434692341E+02  0.57146093046E+02  0.32172267725E+03  0.33113216901E+03  0.47000000000E+01 0.  1.
         11    1    6    6    0    0 -0.58402999787E+01 -0.92744262745E+01  0.31682335219E+03  0.31701287132E+03  0.00000000000E+00 0. -1.
        -12    1    6    6    0    0 -0.24894678018E+02 -0.27888505980E+02  0.55858455788E+02  0.67213695348E+02  0.00000000000E+00 0.  1.
</event>
<event>
12    1  0.8133506E-002  0.2732976E+03  0.7818608E-02  0.1099566E+00
         21   -1    0    0  501  502  0.00000000000E+00  0.00000000000E+00  0.13903609104E+03  0.13903609104E+03  0.00000000000E+00 0. -1.
         21   -1    0    0  502  503 -0.00000000000E+00 -0.00000000000E+00 -0.56039640192E+03  0.56039640192E+03  0.00000000000E+00 0.  1.
         -6    2    1    2    0  503  0.16129425961E+03 -0.13657762056E+03 -0.13665245266E+03  0.30555765815E+03  0.17326945783E+03 0.  0.
        -24    2    3    3    0    0  0.88871031588E+02 -0.15071905736E+03 -0.13562394063E+03  0.23161002784E+03  0.68081254502E+02 0.  0.
          6    2    1    2  501    0 -0.16129425961E+03  0.13657762056E+03 -0.28470785822E+03  0.39387483481E+03  0.17149208829E+03 0.  0.
         24    2    5    5    0    0 -0.14910115238E+03  0.38097450211E+02 -0.18892451042E+03  0.25587644522E+03  0.78087868623E+02 0.  0.
          5    1    5    5  501    0 -0.12193107231E+02  0.98480170345E+02 -0.95783347800E+02  0.13799838960E+03  0.47000000000E+01 0. -1.
        -13    1    6    6    0    0 -0.83186935194E+02  0.32599800824E+02 -0.16089772241E+03  0.18404045826E+03  0.00000000000E+00 0.  1.
         14    1    6    6    0    0 -0.65914217185E+02  0.54976493861E+01 -0.28026788016E+02  0.71835986959E+02  0.00000000000E+00 0. -1.
         -5    1    3    3    0  503  0.72423228021E+02  0.14141436807E+02 -0.10285120246E+01  0.73947630314E+02  0.47000000000E+01 0.  1.
         13    1    4    4    0    0  0.80371247203E+02 -0.87433327931E+02 -0.11282015108E+03  0.16380632070E+03  0.00000000000E+00 0. -1.
        -14    1    4    4    0    0  0.84997843852E+01 -0.63285729432E+02 -0.22803789551E+02  0.67803707142E+02  0.00000000000E+00 0.  1.
</event>
<event>
12    1  0.8133506E-002  0.1981348E+03  0.7818608E-02  0.1151378E+00
         21   -1    0    0  503  502  0.00000000000E+00  0.00000000000E+00  0.14563614466E+03  0.14563614466E+03  0.00000000000E+00 0.  1.
         21   -1    0    0  501  503 -0.00000000000E+00 -0.00000000000E+00 -0.41781258220E+03  0.41781258220E+03  0.00000000000E+00 0.  1.
          6    2    1    2  501    0 -0.53447292000E+02  0.82952173187E+02 -0.30416570933E+03  0.36300715427E+03  0.17181309396E+03 0.  0.
         24    2    3    3    0    0  0.69730665534E+01  0.94345847826E+02 -0.25659061551E+03  0.28512316938E+03  0.80664211961E+02 0.  0.
         -6    2    1    2    0  502  0.53447292000E+02 -0.82952173187E+02  0.31989271786E+02  0.20044157259E+03  0.17151044999E+03 0.  0.
        -24    2    5    5    0    0  0.79094990164E+02 -0.10527237975E+03  0.48843166552E+02  0.16220363579E+03  0.81154624869E+02 0.  0.
          5    1    3    3  501    0 -0.60420358553E+02 -0.11393674639E+02 -0.47575093822E+02  0.77883984886E+02  0.47000000000E+01 0. -1.
        -11    1    4    4    0    0 -0.13561673508E+02 -0.53758064837E+01 -0.79700996010E+02  0.81025101350E+02  0.00000000000E+00 0.  1.
         12    1    4    4    0    0  0.20534740061E+02  0.99721654310E+02 -0.17688961950E+03  0.20409806803E+03  0.00000000000E+00 0. -1.
         -5    1    5    5    0  502 -0.25647698164E+02  0.22320206561E+02 -0.16853894766E+02  0.38237936801E+02  0.47000000000E+01 0.  1.
         13    1    6    6    0    0  0.15287881330E+01  0.91567737513E+01  0.18460505648E+02  0.20663348409E+02  0.00000000000E+00 0. -1.
        -14    1    6    6    0    0  0.77566202031E+02 -0.11442915350E+03  0.30382660904E+02  0.14154028738E+03  0.00000000000E+00 0.  1.
</event>
<event>
12    1  0.8133506E-002  0.3222518E+03  0.7818608E-02  0.1074830E+00
         21   -1    0    0  501  502  0.00000000000E+00  0.00000000000E+00  0.61199568357E+03  0.61199568357E+03  0.00000000000E+00 0.  1.
         21   -1    0    0  502  503 -0.00000000000E+00 -0.00000000000E+00 -0.39748601934E+03  0.39748601934E+03  0.00000000000E+00 0. -1.
         -6    2    1    2    0  503 -0.45978617723E+02  0.26706911153E+03 -0.27553954323E+03  0.42399084329E+03  0.17437388476E+03 0.  0.
        -24    2    3    3    0    0 -0.58325135781E+02  0.70006550652E+02 -0.13573297529E+03  0.18201138993E+03  0.80012292082E+02 0.  0.
          6    2    1    2  501    0  0.45978617723E+02 -0.26706911153E+03  0.49004920746E+03  0.58549085962E+03  0.17091336208E+03 0.  0.
         24    2    5    5    0    0  0.25778657627E+01 -0.14670128393E+03  0.16215972552E+03  0.23348852786E+03  0.81812003788E+02 0.  0.
          5    1    5    5  501    0  0.43400751961E+02 -0.12036782760E+03  0.32788948195E+03  0.35200233176E+03  0.47000000000E+01 0. -1.
        -13    1    6    6    0    0  0.42019908726E+02 -0.83723749855E+02  0.89486942814E+02  0.12955019087E+03  0.00000000000E+00 0.  1.
         14    1    6    6    0    0 -0.39442042964E+02 -0.62977534074E+02  0.72672782705E+02  0.10393833699E+03  0.00000000000E+00 0. -1.
         -5    1    3    3    0  503  0.12346518058E+02  0.19706256088E+03 -0.13980656794E+03  0.24197945336E+03  0.47000000000E+01 0.  1.
         13    1    4    4    0    0  0.59853037551E+01  0.54769140165E+02 -0.64941843449E+02  0.85164109846E+02  0.00000000000E+00 0. -1.
        -14    1    4    4    0    0 -0.64310439536E+02  0.15237410487E+02 -0.70791131846E+02  0.96847280084E+02  0.00000000000E+00 0.  1.
</event>
<event>
12    1  0.8133506E-002  0.2306449E+03  0.7818608E-02  0.1126207E+00
         21   -1    0    0  501  502  0.00000000000E+00  0.00000000000E+00  0.59079769084E+03  0.59079769084E+03  0.00000000000E+00 0. -1.
         21   -1    0    0  502  503 -0.00000000000E+00 -0.00000000000E+00 -0.98707024448E+02  0.98707024448E+02  0.00000000000E+00 0.  1.
         -6    2    1    2    0  503  0.15148153902E+03  0.20285837538E+02  0.34850951919E+03  0.41791858065E+03  0.17273935050E+03 0.  0.
        -24    2    3    3    0    0  0.30768317590E+00  0.51132745107E+01  0.11742522405E+03  0.14132179321E+03  0.78466080229E+02 0.  0.
          6    2    1    2  501    0 -0.15148153902E+03 -0.20285837538E+02  0.14358114720E+03  0.27158613465E+03  0.17258421374E+03 0.  0.
         24    2    5    5    0    0 -0.42991984219E+02 -0.52537471799E+02  0.25802376728E+02  0.10817230357E+03  0.80168497330E+02 0.  0.
          5    1    5    5  501    0 -0.10848955480E+03  0.32251634261E+02  0.11777877047E+03  0.16341383108E+03  0.47000000000E+01 0. -1.
        -11    1    6    6    0    0  0.21890104124E+02 -0.85710225193E+01 -0.48720909540E+01  0.24007839466E+02  0.00000000000E+00 0.  1.
         12    1    6    6    0    0 -0.64882088343E+02 -0.43966449280E+02  0.30674467682E+02  0.84164464102E+02  0.00000000000E+00 0. -1.
         -5    1    3    3    0  503  0.15117385584E+03  0.15172563028E+02  0.23108429514E+03  0.27659678744E+03  0.47000000000E+01 0.  1.
         11    1    4    4    0    0  0.18953860840E+02 -0.30876454826E+02  0.70871477677E+02  0.79595041626E+02  0.00000000000E+00 0. -1.
        -12    1    4    4    0    0 -0.18646177664E+02  0.35989729337E+02  0.46553746378E+02  0.61726751583E+02  0.00000000000E+00 0.  1.
</event>
<event>
12    1  0.8133506E-002  0.1944459E+03  0.7818608E-02  0.1154854E+00
         21   -1    0    0  501  502  0.00000000000E+00  0.00000000000E+00  0.69633588603E+03  0.69633588603E+03  0.00000000000E+00 0.  1.
         21   -1    0    0  502  503 -0.00000000000E+00 -0.00000000000E+00 -0.70281253455E+02  0.70281253455E+02  0.00000000000E+00 0.  1.
         -6    2    1    2    0  503  0.86775282540E+02  0.12486705860E+02  0.12872744949E+03  0.23319513105E+03  0.17356078304E+03 0.  0.
        -24    2    3    3    0    0 -0.68236056428E+01  0.48061715136E+02  0.55948023781E+02  0.10931911254E+03  0.80398985980E+02 0.  0.
          6    2    1    2  501    0 -0.86775282540E+02 -0.12486705860E+02  0.49732718309E+03  0.53342200844E+03  0.17181049027E+03 0.  0.
         24    2    5    5    0    0 -0.10146231211E+03 -0.11271459399E+02  0.17297595682E+03  0.20870213895E+03  0.56694396438E+02 0.  0.
          5    1    5    5  501    0  0.14687029572E+02 -0.12152464607E+01  0.32435122626E+03  0.32471986949E+03  0.47000000000E+01 0. -1.
        -11    1    6    6    0    0 -0.89239639127E+02 -0.26130001389E+02  0.11662524343E+03  0.14915742546E+03  0.00000000000E+00 0.  1.
         12    1    6    6    0    0 -0.12222672985E+02  0.14858541990E+02  0.56350713396E+02  0.59544713495E+02  0.00000000000E+00 0. -1.
         -5    1    3    3    0  503  0.93598888183E+02 -0.35575009276E+02  0.72779425706E+02  0.12387601850E+03  0.47000000000E+01 0.  1.
         11    1    4    4    0    0  0.28371778536E+02  0.47215137874E+02  0.48370923918E+02  0.73307389412E+02  0.00000000000E+00 0. -1.
        -12    1    4    4    0    0 -0.35195384179E+02  0.84657726249E+00  0.75770998635E+01  0.36011723132E+02  0.00000000000E+00 0.  1.
</event>
<event>
12    1  0.8133506E-002  0.1764802E+03  0.7818608E-02  0.1171665E+00
         21   -1    0    0  503  502  0.00000000000E+00  0.00000000000E+00  0.25900608266E+03  0.25900608266E+03  0.00000000000E+00 0.  1.
         21   -1    0    0  501  503 -0.00000000000E+00 -0.00000000000E+00 -0.15839178565E+03  0.15839178565E+03  0.00000000000E+00 0.  1.
          6    2    1    2  501    0 -0.15901672856E+02 -0.28898366132E+02 -0.53776610422E+02  0.18291588247E+03  0.17169250847E+03 0.  0.
         24    2    3    3    0    0  0.31180799275E+02 -0.19419981837E+02  0.25210925037E+02  0.90353904807E+02  0.78605721386E+02 0.  0.
         -6    2    1    2    0  502  0.15901672856E+02  0.28898366132E+02  0.15439090743E+03  0.23448198583E+03  0.17337032797E+03 0.  0.
        -24    2    5    5    0    0 -0.39478371937E+02  0.62171052360E+02  0.77656318642E+02  0.13406132996E+03  0.80735090035E+02 0.  0.
          5    1    3    3  501    0 -0.47082472131E+02 -0.94783842952E+01 -0.78987535459E+02  0.92561977662E+02  0.47000000000E+01 0. -1.
        -11    1    4    4    0    0 -0.78354984230E+01 -0.20441114583E+01 -0.23920095209E+02  0.25253601367E+02  0.00000000000E+00 0.  1.
         12    1    4    4    0    0  0.39016297698E+02 -0.17375870378E+02  0.49131020246E+02  0.65100303440E+02  0.00000000000E+00 0. -1.
         -5    1    5    5    0  502  0.55380044793E+02 -0.33272686228E+02  0.76734588788E+02  0.10042065588E+03  0.47000000000E+01 0.  1.
         11    1    6    6    0    0 -0.41115118583E+02 -0.36835356961E+01  0.43074562878E+02  0.59661037356E+02  0.00000000000E+00 0. -1.
        -12    1    6    6    0    0  0.16367466457E+01  0.65854588056E+02  0.34581755764E+02  0.74400292603E+02  0.00000000000E+00 0.  1.
</event>
<event>
12    1  0.8133506E-002  0.1829262E+03  0.7818608E-02  0.1165127E+00
         21   -1    0    0  501  502  0.00000000000E+00  0.00000000000E+00  0.15947959233E+03  0.15947959233E+03  0.00000000000E+00 0. -1.
         21   -1    0    0  502  503 -0.00000000000E+00 -0.00000000000E+00 -0.37084762972E+03  0.37084762972E+03  0.00000000000E+00 0. -1.
         -6    2    1    2    0  503 -0.49964674623E+02  0.34431436194E+02 -0.28083181324E+03  0.33515444037E+03  0.17256882414E+03 0.  0.
        -24    2    3    3    0    0 -0.73531380298E+02  0.69113563923E+02 -0.25165188179E+03  0.28385338775E+03  0.84026945225E+02 0.  0.
          6    2    1    2  501    0  0.49964674623E+02 -0.34431436194E+02  0.69463775847E+02  0.19517278167E+03  0.17200350590E+03 0.  0.
         24    2    5    5    0    0 -0.54602129558E+01 -0.59582737684E+02  0.87074137816E+02  0.13163758687E+03  0.78527907434E+02 0.  0.
          5    1    5    5  501    0  0.55424887578E+02  0.25151301490E+02 -0.17610361968E+02  0.63535194801E+02  0.47000000000E+01 0. -1.
        -13    1    6    6    0    0 -0.37207283761E+02 -0.40645623379E+02  0.27645344745E+02  0.61649929041E+02  0.00000000000E+00 0.  1.
         14    1    6    6    0    0  0.31747070805E+02 -0.18937114306E+02  0.59428793071E+02  0.69987657832E+02  0.00000000000E+00 0. -1.
         -5    1    3    3    0  503  0.23566705676E+02 -0.34682127729E+02 -0.29179931451E+02  0.51301052618E+02  0.47000000000E+01 0.  1.
         11    1    4    4    0    0 -0.16456542488E+02 -0.60758279145E+01 -0.12321558172E+03  0.12445807750E+03  0.00000000000E+00 0. -1.
        -12    1    4    4    0    0 -0.57074837811E+02  0.75189391838E+02 -0.12843630007E+03  0.15939531025E+03  0.00000000000E+00 0.  1.
</event>
<event>
12    1  0.8133506E-002  0.2199501E+03  0.7818608E-02  0.1134324E+00
         21   -1    0    0  503  502  0.00000000000E+00  0.00000000000E+00  0.83027329576E+02  0.83027329576E+02  0.00000000000E+00 0. -1.
         21   -1    0    0  501  503 -0.00000000000E+00 -0.00000000000E+00 -0.70721509299E+03  0.70721509299E+03  0.00000000000E+00 0. -1.
          6    2    1    2  501    0 -0.75179428043E+02  0.11352480270E+03 -0.48289906413E+03  0.53063127649E+03  0.17273742568E+03 0.  0.
         24    2    3    3    0    0 -0.17656784050E+02 -0.84642751014E+01 -0.14862170056E+03  0.17014045072E+03  0.80473331718E+02 0.  0.
         -6    2    1    2    0  502  0.75179428043E+02 -0.11352480270E+03 -0.14128869929E+03  0.25961114607E+03  0.16998712713E+03 0.  0.
        -24    2    5    5    0    0  0.88096432169E+02 -0.97050071001E+02 -0.44802198434E+02  0.16076783255E+03  0.81604910127E+02 0.  0.
          5    1    3    3  501    0 -0.57522643993E+02  0.12198907780E+03 -0.33427736356E+03  0.36049082577E+03  0.47000000000E+01 0. -1.
        -11    1    4    4    0    0 -0.39412447956E+01 -0.95258591489E+01  0.79171309152E+01  0.12998321622E+02  0.00000000000E+00 0.  1.
         12    1    4    4    0    0 -0.13715539255E+02  0.10615840475E+01 -0.15653883148E+03  0.15714212910E+03  0.00000000000E+00 0. -1.
         -5    1    5    5    0  502 -0.12917004126E+02 -0.16474731701E+02 -0.96486500856E+02  0.98843313520E+02  0.47000000000E+01 0.  1.
         13    1    6    6    0    0  0.76314270653E+02 -0.25529550823E+02 -0.12598572944E+02  0.81451518775E+02  0.00000000000E+00 0. -1.
        -14    1    6    6    0    0  0.11782161516E+02 -0.71520520178E+02 -0.32203625490E+02  0.79316313777E+02  0.00000000000E+00 0.  1.
</event>
<event>
12    1  0.8133506E-002  0.2270026E+03  0.7818608E-02  0.1129311E+00
         21   -1    0    0  503  502  0.00000000000E+00  0.00000000000E+00  0.17145638584E+04  0.17145638584E+04  0.00000000000E+00 0.  1.
         21   -1    0    0  501  503 -0.00000000000E+00 -0.00000000000E+00 -0.10561378799E+03  0.10561378799E+03  0.00000000000E+00 0.  1.
          6    2    1    2  501    0 -0.14522557680E+03 -0.62699952892E+01  0.34184593984E+02  0.22956213051E+03  0.17435711715E+03 0.  0.
         24    2    3    3    0    0 -0.11391323150E+03  0.35959619105E+02  0.72578230941E+02  0.16429372576E+03  0.86345296347E+02 0.  0.
         -6    2    1    2    0  502  0.14522557680E+03  0.62699952892E+01  0.15747654765E+04  0.15906155159E+04  0.17041605739E+03 0.  0.
        -24    2    5    5    0    0  0.10070143976E+03  0.53996887486E+02  0.74879485728E+03  0.76205664126E+03  0.83547246347E+02 0.  0.
          5    1    3    3  501    0 -0.31312345306E+02 -0.42229614394E+02 -0.38393636956E+02  0.65268404754E+02  0.47000000000E+01 0. -1.
        -13    1    4    4    0    0 -0.45595898348E+02 -0.27325574946E+02  0.16831559338E+02  0.55758177715E+02  0.00000000000E+00 0.  1.
         14    1    4    4    0    0 -0.68317333148E+02  0.63285194051E+02  0.55746671602E+02  0.10853554804E+03  0.00000000000E+00 0. -1.
         -5    1    5    5    0  502  0.44524137041E+02 -0.47726892197E+02  0.82597061918E+03  0.82855887466E+03  0.47000000000E+01 0.  1.
         11    1    6    6    0    0  0.19033424547E+01  0.38534286759E+02  0.28528873939E+03  0.28788570439E+03  0.00000000000E+00 0. -1.
        -12    1    6    6    0    0  0.98798097306E+02  0.15462600726E+02  0.46350611790E+03  0.47417093688E+03  0.00000000000E+00 0.  1.
</event>
<event>
12    1  0.8133506E-002  0.2166495E+03  0.7818608E-02  0.1136587E+00
         21   -1    0    0  501  502  0.00000000000E+00  0.00000000000E+00  0.15461632269E+03  0.15461632269E+03  0.00000000000E+00 0. -1.
         21   -1    0    0  502  503 -0.00000000000E+00 -0.00000000000E+00 -0.42098776581E+03  0.42098776581E+03  0.00000000000E+00 0.  1.
         -6    2    1    2    0  503  0.12919076052E+03  0.28326769422E+02 -0.28582876867E+03  0.35808263526E+03  0.17038905542E+03 0.  0.
        -24    2    3    3    0    0  0.87178471469E+02  0.40635683911E+02 -0.28807973652E+03  0.31399523725E+03  0.79697739802E+02 0.  0.
          6    2    1    2  501    0 -0.12919076052E+03 -0.28326769422E+02  0.19457325560E+02  0.21752145324E+03  0.17159352153E+03 0.  0.
         24    2    5    5    0    0  0.29271297144E+01 -0.82230267541E+01 -0.77107740163E+01  0.81068190086E+02  0.80227234469E+02 0.  0.
          5    1    5    5  501    0 -0.13211789024E+03 -0.20103742667E+02  0.27168099576E+02  0.13645326315E+03  0.47000000000E+01 0. -1.
        -11    1    6    6    0    0  0.10834118444E+02  0.35062545116E+02 -0.33521327448E+01  0.36851010657E+02  0.00000000000E+00 0.  1.
         12    1    6    6    0    0 -0.79069887295E+01 -0.43285571870E+02 -0.43586412715E+01  0.44217179429E+02  0.00000000000E+00 0. -1.
         -5    1    3    3    0  503  0.42012289052E+02 -0.12308914490E+02  0.22509678443E+01  0.44087398013E+02  0.47000000000E+01 0.  1.
         13    1    4    4    0    0  0.76676258961E+02  0.59290743160E+02 -0.26658357236E+03  0.28365726143E+03  0.00000000000E+00 0. -1.
        -14    1    4    4    0    0  0.10502212508E+02 -0.18655059249E+02 -0.21496164160E+02  0.30337975818E+02  0.00000000000E+00 0.  1.
</event>
<event>
12    1  0.8133506E-002  0.2752014E+03  0.7818608E-02  0.1098876E+00
         21   -1    0    0  501  502  0.00000000000E+00  0.00000000000E+00  0.20011971194E+04  0.20011971194E+04  0.00000000000E+00 0. -1.
         21   -1    0    0  502  503 -0.00000000000E+00 -0.00000000000E+00 -0.22162912459E+03  0.22162912459E+03  0.00000000000E+00 0. -1.
         -6    2    1    2    0  503  0.76639873895E+02 -0.19968303959E+03 -0.12477865149E+03  0.29869735565E+03  0.16704314364E+03 0.  0.
        -24    2    3    3    0    0  0.95173989479E+02 -0.20487105592E+03 -0.86622419199E+02  0.25570413506E+03  0.82770304774E+02 0.  0.
          6    2    1    2  501    0 -0.76639873895E+02  0.19968303959E+03  0.19043466463E+04  0.19241288883E+04  0.17317287044E+03 0.  0.
         24    2    5    5    0    0 -0.25240853496E+01  0.12586476751E+03  0.14602273686E+04  0.14678325918E+04  0.80126392806E+02 0.  0.
          5    1    5    5  501    0 -0.74115788545E+02  0.73818272079E+02  0.44411927771E+03  0.45629629654E+03  0.47000000000E+01 0. -1.
        -11    1    6    6    0    0  0.36602359903E+02  0.50837649999E+02  0.50656089218E+03  0.51041956947E+03  0.00000000000E+00 0.  1.
         12    1    6    6    0    0 -0.39126445252E+02  0.75027117509E+02  0.95366647643E+03  0.95741302234E+03  0.00000000000E+00 0. -1.
         -5    1    3    3    0  503 -0.18534115585E+02  0.51880163352E+01 -0.38156232294E+02  0.42993220592E+02  0.47000000000E+01 0.  1.
         13    1    4    4    0    0  0.40491678765E+02 -0.93725981884E+02 -0.83336894788E+02  0.13179216123E+03  0.00000000000E+00 0. -1.
        -14    1    4    4    0    0  0.54682310714E+02 -0.11114507404E+03 -0.32855244111E+01  0.12391197383E+03  0.00000000000E+00 0.  1.
</event>
<event>
12    1  0.8133506E-002  0.1924846E+03  0.7818608E-02  0.1156564E+00
         21   -1    0    0  501  502  0.00000000000E+00  0.00000000000E+00  0.10156247144E+03  0.10156247144E+03  0.00000000000E+00 0.  1.
         21   -1    0    0  502  503 -0.00000000000E+00 -0.00000000000E+00 -0.43184763779E+03  0.43184763779E+03  0.00000000000E+00 0.  1.
         -6    2    1    2    0  503  0.75728635814E+02 -0.33726621655E+02 -0.27184268263E+03  0.33224888590E+03  0.17210045552E+03 0.  0.
        -24    2    3    3    0    0  0.74900602656E+02 -0.50953604648E+02 -0.28615342730E+03  0.30935037077E+03  0.74883227999E+02 0.  0.
          6    2    1    2  501    0 -0.75728635814E+02  0.33726621655E+02 -0.58442483715E+02  0.20116122333E+03  0.17371816997E+03 0.  0.
         24    2    5    5    0    0 -0.11841663945E+03  0.28710307505E+02 -0.26944804472E+02  0.14766708477E+03  0.78947851030E+02 0.  0.
          5    1    5    5  501    0  0.42688003635E+02  0.50163141499E+01 -0.31497679243E+02  0.53494138555E+02  0.47000000000E+01 0. -1.
        -13    1    6    6    0    0 -0.14624282268E+02 -0.14525582099E+02 -0.28556031586E+02  0.35218022475E+02  0.00000000000E+00 0.  1.
         14    1    6    6    0    0 -0.10379235718E+03  0.43235889604E+02  0.16112271141E+01  0.11244906230E+03  0.00000000000E+00 0. -1.
         -5    1    3    3    0  503  0.82803315879E+00  0.17226982993E+02  0.14310744670E+02  0.22898515126E+02  0.47000000000E+01 0.  1.
         11    1    4    4    0    0  0.19800061532E+02 -0.20503516688E+02 -0.17561029233E+02  0.33478745211E+02  0.00000000000E+00 0. -1.
        -12    1    4    4    0    0  0.55100541124E+02 -0.30450087961E+02 -0.26859239807E+03  0.27587162556E+03  0.00000000000E+00 0.  1.
</event>
<event>
12    1  0.8133506E-002  0.1735673E+03  0.7818608E-02  0.1174196E+00
         21   -1    0    0  503  502  0.00000000000E+00  0.00000000000E+00  0.14908228557E+03  0.14908228557E+03  0.00000000000E+00 0. -1.
         21   -1    0    0  501  503 -0.00000000000E+00 -0.00000000000E+00 -0.88823965584E+03  0.88823965584E+03  0.00000000000E+00 0. -1.
          6    2    1    2  501    0 -0.11431082098E+02 -0.13970229765E+02 -0.82545049717E+03  0.84348668386E+03  0.17255557256E+03 0.  0.
         24    2    3    3    0    0 -0.62561818747E+02 -0.39466651109E+02 -0.40733876437E+03  0.42146306979E+03  0.78959815877E+02 0.  0.
         -6    2    1    2    0  502  0.11431082098E+02  0.13970229765E+02  0.86293126900E+02  0.19383525755E+03  0.17262608829E+03 0.  0.
        -24    2    5    5    0    0 -0.59979026143E+02 -0.95132581281E+00  0.59289835246E+02  0.11590372259E+03  0.79498426084E+02 0.  0.
          5    1    3    3  501    0  0.51130736649E+02  0.25496421344E+02 -0.41811173280E+03  0.42202361408E+03  0.47000000000E+01 0. -1.
        -13    1    4    4    0    0 -0.29121793633E+02 -0.45862799278E+02 -0.11543170459E+03  0.12757724580E+03  0.00000000000E+00 0.  1.
         14    1    4    4    0    0 -0.33440025114E+02  0.63961481697E+01 -0.29190705978E+03  0.29388582399E+03  0.00000000000E+00 0. -1.
         -5    1    5    5    0  502  0.71410108241E+02  0.14921555578E+02  0.27003291654E+02  0.77931534952E+02  0.47000000000E+01 0.  1.
         13    1    6    6    0    0 -0.14626154782E+02 -0.37876797401E+02  0.30080215565E+02  0.50531134496E+02  0.00000000000E+00 0. -1.
        -14    1    6    6    0    0 -0.45352871361E+02  0.36925471588E+02  0.29209619681E+02  0.65372588098E+02  0.00000000000E+00 0.  1.
</event>
<event>
12    1  0.8133506E-002  0.2321973E+03  0.7818608E-02  0.1125269E+00
         21   -1    0    0  501  502  0.00000000000E+00  0.00000000000E+00  0.77461307012E+03  0.77461307012E+03  0.00000000000E+00 0.  1.
         21   -1    0    0  502  503 -0.00000000000E+00 -0.00000000000E+00 -0.12823038086E+03  0.12823038086E+03  0.00000000000E+00 0.  1.
         -6    2    1    2    0  503  0.13564922425E+03 -0.75317565671E+02  0.17570763454E+02  0.23286118353E+03  0.17274880993E+03 0.  0.
        -24    2    3    3    0    0  0.63053582066E+02 -0.92149913515E+02 -0.33220254194E+02  0.14255463520E+03  0.82163726530E+02 0.  0.
          6    2    1    2  501    0 -0.13564922425E+03  0.75317565671E+02  0.62881192580E+03  0.66998226745E+03  0.17145947898E+03 0.  0.
         24    2    5    5    0    0 -0.14109028400E+03  0.38311491163E+02  0.59963087869E+03  0.62230965275E+03  0.79610769602E+02 0.  0.
          5    1    5    5  501    0  0.54410597545E+01  0.37006074507E+02  0.29181047114E+02  0.47672614700E+02  0.47000000000E+01 0. -1.
        -13    1    6    6    0    0 -0.39397214314E+02  0.40799179447E+02  0.31458341930E+03  0.31965519117E+03  0.00000000000E+00 0.  1.
         14    1    6    6    0    0 -0.10169306969E+03 -0.24876882835E+01  0.28504745938E+03  0.30265446158E+03  0.00000000000E+00 0. -1.
         -5    1    3    3    0  503  0.72595642179E+02  0.16832347844E+02  0.50791017649E+02  0.90306548329E+02  0.47000000000E+01 0.  1.
         11    1    4    4    0    0  0.66658418786E+01  0.15627729714E+02 -0.43651967025E+01  0.17541787999E+02  0.00000000000E+00 0. -1.
        -12    1    4    4    0    0  0.56387740187E+02 -0.10777764323E+03 -0.28855057492E+02  0.12501284720E+03  0.00000000000E+00 0.  1.
</event>
<event>
12    1  0.8133506E-002  0.1908221E+03  0.7818608E-02  0.1157770E+00
         21   -1    0    0  503  502  0.00000000000E+00  0.00000000000E+00  0.42516256677E+02  0.42516256677E+02  0.00000000000E+00 0.  1.
         21   -1    0    0  501  503 -0.00000000000E+00 -0.00000000000E+00 -0.87353687629E+03  0.87353687629E+03  0.00000000000E+00 0. -1.
          6    2    1    2  501    0 -0.11436979825E+02  0.83738649448E+02 -0.48112189706E+03  0.51750300830E+03  0.17084530385E+03 0.  0.
         24    2    3    3    0    0  0.17353254301E+02 -0.95696730712E+01 -0.11923249009E+03  0.14264122909E+03  0.75745755432E+02 0.  0.
         -6    2    1    2    0  502  0.11436979825E+02 -0.83738649448E+02 -0.34989872255E+03  0.39855012467E+03  0.17108512475E+03 0.  0.
        -24    2    5    5    0    0  0.71865283118E+02 -0.45693883840E+02 -0.18188723812E+03  0.21593322258E+03  0.79319854281E+02 0.  0.
          5    1    3    3  501    0 -0.28790234125E+02  0.93308322519E+02 -0.36188940697E+03  0.37486177920E+03  0.47000000000E+01 0. -1.
        -13    1    4    4    0    0  0.59577647726E+01  0.31994718601E+02 -0.70090818542E+02  0.77277938788E+02  0.00000000000E+00 0.  1.
         14    1    4    4    0    0  0.11395489528E+02 -0.41564391673E+02 -0.49141671552E+02  0.65363290306E+02  0.00000000000E+00 0. -1.
         -5    1    5    5    0  502 -0.60428303294E+02 -0.38044765607E+02 -0.16801148443E+03  0.18261690209E+03  0.47000000000E+01 0.  1.
         11    1    6    6    0    0  0.57423922815E+02 -0.16024360061E+02 -0.17114437359E+03  0.18123102283E+03  0.00000000000E+00 0. -1.
        -12    1    6    6    0    0  0.14441360303E+02 -0.29669523780E+02 -0.10742864536E+02  0.34702199745E+02  0.00000000000E+00 0.  1.
</event>
<event>
12    1  0.8133506E-002  0.2315708E+03  0.7818608E-02  0.1125564E+00
         21   -1    0    0  501  502  0.00000000000E+00  0.00000000000E+00  0.87690452254E+03  0.87690452254E+03  0.00000000000E+00 0. -1.
         21   -1    0    0  502  503 -0.00000000000E+00 -0.00000000000E+00 -0.35237768908E+03  0.35237768908E+03  0.00000000000E+00 0. -1.
         -6    2    1    2    0  503  0.61091735252E+01 -0.15395307452E+03 -0.29652726455E+03  0.37623588797E+03  0.17287612218E+03 0.  0.
        -24    2    3    3    0    0  0.34200758162E+02 -0.11539948848E+03 -0.29445422786E+03  0.32825773039E+03  0.81013032609E+02 0.  0.
          6    2    1    2  501    0 -0.61091735252E+01  0.15395307452E+03  0.82105409801E+03  0.85304632366E+03  0.17268273593E+03 0.  0.
         24    2    5    5    0    0  0.35804196266E+02  0.10404377790E+03  0.32361812620E+03  0.35133694114E+03  0.81252116366E+02 0.  0.
          5    1    5    5  501    0 -0.41913369791E+02  0.49909296626E+02  0.49743597181E+03  0.50170938252E+03  0.47000000000E+01 0. -1.
        -11    1    6    6    0    0 -0.59543907727E+01  0.77761014741E+01 -0.13133398832E+01  0.98816691534E+01  0.00000000000E+00 0.  1.
         12    1    6    6    0    0  0.41758587039E+02  0.96267676422E+02  0.32493146608E+03  0.34145527198E+03  0.00000000000E+00 0. -1.
         -5    1    3    3    0  503 -0.28091584636E+02 -0.38553586037E+02 -0.20730366831E+01  0.47978157580E+02  0.47000000000E+01 0.  1.
         13    1    4    4    0    0  0.80200157979E+01 -0.11791463769E+03 -0.22857151610E+03  0.25731910230E+03  0.00000000000E+00 0. -1.
        -14    1    4    4    0    0  0.26180742364E+02  0.25151492063E+01 -0.65882711761E+02  0.70938628089E+02  0.00000000000E+00 0.  1.
</event>
<event>
12    1  0.8133506E-002  0.2585938E+03  0.7818608E-02  0.1108007E+00
         21   -1    0    0  501  502  0.00000000000E+00  0.00000000000E+00  0.37216728589E+03  0.37216728589E+03  0.00000000000E+00 0.  1.
         21   -1    0    0  502  503 -0.00000000000E+00 -0.00000000000E+00 -0.26130705024E+03  0.26130705024E+03  0.00000000000E+00 0. -1.
         -6    2    1    2    0  503 -0.84920170749E+02 -0.17282815989E+03 -0.12167120854E+03  0.28578774552E+03  0.17259705748E+03 0.  0.
        -24    2    3    3    0    0 -0.21801794387E+02 -0.22610421479E+02 -0.80429137957E+02  0.11764406662E+03  0.79904510394E+02 0.  0.
          6    2    1    2  501    0  0.84920170749E+02  0.17282815989E+03  0.23253144418E+03  0.34768659061E+03  0.17243574021E+03 0.  0.
         24    2    5    5    0    0  0.83491251063E+02  0.16303131397E+03  0.11695750286E+03  0.23159418812E+03  0.80042564655E+02 0.  0.
          5    1    5    5  501    0  0.14289196865E+01  0.97968459139E+01  0.11557394132E+03  0.11609240248E+03  0.47000000000E+01 0. -1.
        -13    1    6    6    0    0  0.20789821148E+02  0.76155455714E+02  0.92670876299E+02  0.12173644242E+03  0.00000000000E+00 0.  1.
         14    1    6    6    0    0  0.62701429914E+02  0.86875858261E+02  0.24286626563E+02  0.10985774571E+03  0.00000000000E+00 0. -1.
         -5    1    3    3    0  503 -0.63118376362E+02 -0.15021773841E+03 -0.41242070583E+02  0.16814367890E+03  0.47000000000E+01 0.  1.
         11    1    4    4    0    0 -0.40643163996E+02 -0.28296115513E+02 -0.18837922074E+02  0.52984943529E+02  0.00000000000E+00 0. -1.
        -12    1    4    4    0    0  0.18841369609E+02  0.56856940336E+01 -0.61591215884E+02  0.64659123095E+02  0.00000000000E+00 0.  1.
</event>
<event>
12    1  0.8133506E-002  0.2005238E+03  0.7818608E-02  0.1149698E+00
         21   -1    0    0  501  502  0.00000000000E+00  0.00000000000E+00  0.12154925279E+03  0.12154925279E+03  0.00000000000E+00 0.  1.
         21   -1    0    0  502  503 -0.00000000000E+00 -0.00000000000E+00 -0.53005469353E+03  0.53005469353E+03  0.00000000000E+00 0.  1.
         -6    2    1    2    0  503  0.55286599169E+02 -0.82871881955E+02 -0.40615468649E+03  0.45295852707E+03  0.17402712727E+03 0.  0.
        -24    2    3    3    0    0 -0.26125012565E+02 -0.65901295576E+02 -0.14986428663E+03  0.18347251559E+03  0.78596199200E+02 0.  0.
          6    2    1    2  501    0 -0.55286599169E+02  0.82871881955E+02 -0.23507542577E+01  0.19864541925E+03  0.17184329977E+03 0.  0.
         24    2    5    5    0    0 -0.84402209105E+02  0.10951617659E+03 -0.65553655651E+01  0.15867785821E+03  0.77576826644E+02 0.  0.
          5    1    5    5  501    0  0.29115609936E+02 -0.26644294638E+02  0.42046113075E+01  0.39967561034E+02  0.47000000000E+01 0. -1.
        -11    1    6    6    0    0 -0.71305370795E+02  0.50041025210E+02 -0.31824376057E+02  0.92743468879E+02  0.00000000000E+00 0.  1.
         12    1    6    6    0    0 -0.13096838310E+02  0.59475151382E+02  0.25269010492E+02  0.65934389334E+02  0.00000000000E+00 0. -1.
         -5    1    3    3    0  503  0.81411611734E+02 -0.16970586379E+02 -0.25629039986E+03  0.26948601148E+03  0.47000000000E+01 0.  1.
         13    1    4    4    0    0  0.14520707080E+02 -0.59231622121E+02 -0.11198195734E+03  0.12751154757E+03  0.00000000000E+00 0. -1.
        -14    1    4    4    0    0 -0.40645719645E+02 -0.66696734551E+01 -0.37882329296E+02  0.55960968025E+02  0.00000000000E+00 0.  1.
</event>
<event>
12    1  0.8133506E-002  0.1770863E+03  0.7818608E-02  0.1170843E+00
         21   -1    0    0  503  502  0.00000000000E+00  0.00000000000E+00  0.33405212201E+02  0.33405212201E+02  0.00000000000E+00 0. -1.
         21   -1    0    0  501  503 -0.00000000000E+00 -0.00000000000E+00 -0.97727755681E+03  0.97727755681E+03  0.00000000000E+00 0. -1.
          6    2    1    2  501    0  0.70841530647E+01  0.39407490015E+02 -0.57643943235E+03  0.60280228888E+03  0.17171209864E+03 0.  0.
         24    2    3    3    0    0 -0.11302150823E+02 -0.32167856238E+02 -0.43124799480E+03  0.43981845563E+03  0.79391002701E+02 0.  0.
         -6    2    1    2    0  502 -0.70841530647E+01 -0.39407490015E+02 -0.36743291225E+03  0.40788048012E+03  0.17250045092E+03 0.  0.
        -24    2    5    5    0    0  0.56790545581E+02 -0.46829589742E+02 -0.23611850045E+03  0.26159094038E+03  0.85203857257E+02 0.  0.
          5    1    3    3  501    0  0.18386303888E+02  0.71575346253E+02 -0.14519143756E+03  0.16298383325E+03  0.47000000000E+01 0. -1.
        -13    1    4    4    0    0  0.23656102670E+02 -0.23023913770E+02 -0.77604303219E+02  0.84333502696E+02  0.00000000000E+00 0.  1.
         14    1    4    4    0    0 -0.34958253493E+02 -0.91439424687E+01 -0.35364369158E+03  0.35548495294E+03  0.00000000000E+00 0. -1.
         -5    1    5    5    0  502 -0.63874698646E+02  0.74220997269E+01 -0.13131441181E+03  0.14628953975E+03  0.47000000000E+01 0.  1.
         11    1    6    6    0    0  0.29019149261E+02 -0.65550945385E+02 -0.19938609168E+03  0.21188169109E+03  0.00000000000E+00 0. -1.
        -12    1    6    6    0    0  0.27771396320E+02  0.18721355643E+02 -0.36732408767E+02  0.49709249285E+02  0.00000000000E+00 0.  1.
</event>
<event>
12    1  0.8133506E-002  0.1747598E+03  0.7818608E-02  0.1173204E+00
         21   -1    0    0  501  502  0.00000000000E+00  0.00000000000E+00  0.81646857339E+03  0.81646857339E+03  0.00000000000E+00 0.  1.
         21   -1    0    0  502  503 -0.00000000000E+00 -0.00000000000E+00 -0.13709550723E+03  0.13709550723E+03  0.00000000000E+00 0.  1.
         -6    2    1    2    0  503 -0.11567910787E+02 -0.26217844907E+02 -0.67037177495E+02  0.18717631210E+03  0.17239430586E+03 0.  0.
        -24    2    3    3    0    0  0.19509331356E+02  0.16092929670E+02  0.19327004166E+02  0.85998950505E+02  0.79891739264E+02 0.  0.
          6    2    1    2  501    0  0.11567910787E+02  0.26217844907E+02  0.74641024366E+03  0.76638776853E+03  0.17146652141E+03 0.  0.
         24    2    5    5    0    0  0.44399876274E+02 -0.38367022067E+02  0.46414269355E+03  0.47493244975E+03  0.81786395306E+02 0.  0.
          5    1    5    5  501    0 -0.32831965487E+02  0.64584866974E+02  0.28226755011E+03  0.29145531878E+03  0.47000000000E+01 0. -1.
        -11    1    6    6    0    0 -0.12423298808E+02 -0.50174888851E+01  0.26159747129E+03  0.26194035682E+03  0.00000000000E+00 0.  1.
         12    1    6    6    0    0  0.56823175082E+02 -0.33349533182E+02  0.20254522226E+03  0.21299209293E+03  0.00000000000E+00 0. -1.
         -5    1    3    3    0  503 -0.31077242143E+02 -0.42310774577E+02 -0.86364181660E+02  0.10117736159E+03  0.47000000000E+01 0.  1.
         13    1    4    4    0    0 -0.13128162079E+02 -0.13307748419E+02  0.34736691794E+02  0.39447212377E+02  0.00000000000E+00 0. -1.
        -14    1    4    4    0    0  0.32637493436E+02  0.29400678089E+02 -0.15409687628E+02  0.46551738128E+02  0.00000000000E+00 0.  1.
</event>
<event>
12    1  0.8133506E-002  0.1799537E+03  0.7818608E-02  0.1167934E+00
         21   -1    0    0  503  502  0.00000000000E+00  0.00000000000E+00  0.16401181438E+03  0.16401181438E+03  0.00000000000E+00 0.  1.
         21   -1    0    0  501  503 -0.00000000000E+00 -0.00000000000E+00 -0.19328973260E+04  0.19328973260E+04  0.00000000000E+00 0.  1.
          6    2    1    2  501    0  0.20402971709E+02 -0.48912473728E+02 -0.18781072679E+04  0.18867088410E+04  0.17197275856E+03 0.  0.
         24    2    3    3    0    0  0.70608346702E+02 -0.51268595398E+02 -0.97387760665E+03  0.98107121963E+03  0.80306523713E+02 0.  0.
         -6    2    1    2    0  502 -0.20402971709E+02  0.48912473728E+02  0.10922175624E+03  0.21020029940E+03  0.17159855037E+03 0.  0.
        -24    2    5    5    0    0  0.54175766183E+02  0.19450340628E+02  0.60323243645E+02  0.11616222218E+03  0.80879161377E+02 0.  0.
          5    1    3    3  501    0 -0.50205374993E+02  0.23561216703E+01 -0.90422966124E+03  0.90563762137E+03  0.47000000000E+01 0. -1.
        -11    1    4    4    0    0  0.61743700318E+02 -0.13209403789E+01 -0.68455049313E+03  0.68733063882E+03  0.00000000000E+00 0.  1.
         12    1    4    4    0    0  0.88646463839E+01 -0.49947655019E+02 -0.28932711352E+03  0.29374058081E+03  0.00000000000E+00 0. -1.
         -5    1    5    5    0  502 -0.74578737893E+02  0.29462133100E+02  0.48898512600E+02  0.94038077219E+02  0.47000000000E+01 0.  1.
         13    1    6    6    0    0 -0.13244738955E+01 -0.15651145158E+02 -0.11027412813E+02  0.19191571306E+02  0.00000000000E+00 0. -1.
        -14    1    6    6    0    0  0.55500240079E+02  0.35101485786E+02  0.71350656458E+02  0.96970650870E+02  0.00000000000E+00 0.  1.
</event>
<event>
12    1  0.8133506E-002  0.2098976E+03  0.7818608E-02  0.1141884E+00
         21   -1    0    0  503  502  0.00000000000E+00  0.00000000000E+00  0.12878791179E+03  0.12878791179E+03  0.00000000000E+00 0.  1.
         21   -1    0    0  501  503 -0.00000000000E+00 -0.00000000000E+00 -0.34016616364E+03  0.34016616364E+03  0.00000000000E+00 0.  1.
          6    2    1    2  501    0  0.11611295376E+03  0.26125579125E+02 -0.10751137104E+03  0.23582984302E+03  0.17289377097E+03 0.  0.
         24    2    3    3    0    0  0.11726869173E+03 -0.30607241290E+02 -0.48197203190E+02  0.15360935196E+03  0.81142549463E+02 0.  0.
         -6    2    1    2    0  502 -0.11611295376E+03 -0.26125579125E+02 -0.10386688082E+03  0.23312423241E+03  0.17144624490E+03 0.  0.
        -24    2    5    5    0    0 -0.10985262091E+03 -0.17860974893E+01 -0.10774299082E+02  0.13658449496E+03  0.80426676401E+02 0.  0.
          5    1    3    3  501    0 -0.11557379719E+01  0.56732820416E+02 -0.59314167848E+02  0.82220491060E+02  0.47000000000E+01 0. -1.
        -11    1    4    4    0    0  0.71881418139E+02 -0.25090922993E+02  0.12981527963E+02  0.77233495056E+02  0.00000000000E+00 0.  1.
         12    1    4    4    0    0  0.45387273592E+02 -0.55163182974E+01 -0.61178731154E+02  0.76375856900E+02  0.00000000000E+00 0. -1.
         -5    1    5    5    0  502 -0.62603328500E+01 -0.24339481636E+02 -0.93092581736E+02  0.96539737455E+02  0.47000000000E+01 0.  1.
         13    1    6    6    0    0 -0.32425643538E+02 -0.48590982134E+00  0.34121128918E+02  0.47073452240E+02  0.00000000000E+00 0. -1.
        -14    1    6    6    0    0 -0.77426977372E+02 -0.13001876679E+01 -0.44895428000E+02  0.89511042716E+02  0.00000000000E+00 0.  1.
</event>
<event>
12    1  0.8133506E-002  0.2102064E+03  0.7818608E-02  0.1141795E+00
         21   -1    0    0  501  502  0.00000000000E+00  0.00000000000E+00  0.29140507588E+02  0.29140507588E+02  0.00000000000E+00 0. -1.
         21   -1    0    0  502  503 -0.00000000000E+00 -0.00000000000E+00 -0.24061593386E+04  0.24061593386E+04  0.00000000000E+00 0.  1.
         -6    2    1    2    0  503  0.10568672499E+03  0.56588224121E+02 -0.44564608879E+03  0.49273439172E+03  0.17266972340E+03 0.  0.
        -24    2    3    3    0    0  0.10073181478E+03  0.34655148729E+02 -0.16579957937E+03  0.21194662531E+03  0.77999959085E+02 0.  0.
          6    2    1    2  501    0 -0.10568672499E+03 -0.56588224121E+02 -0.19313727422E+04  0.19425654545E+04  0.17025852270E+03 0.  0.
         24    2    5    5    0    0 -0.13331926791E+03 -0.75124477918E+02 -0.16861864321E+04  0.16950870376E+04  0.81716992999E+02 0.  0.
          5    1    5    5  501    0  0.27632542922E+02  0.18536253797E+02 -0.24518631011E+03  0.24747841684E+03  0.47000000000E+01 0. -1.
        -13    1    6    6    0    0 -0.75226347419E+02 -0.71811536249E+02 -0.13413637349E+04  0.13453893746E+04  0.00000000000E+00 0.  1.
         14    1    6    6    0    0 -0.58092920493E+02 -0.33129416687E+01 -0.34482269724E+03  0.34969766302E+03  0.00000000000E+00 0. -1.
         -5    1    3    3    0  503  0.49549102055E+01  0.21933075392E+02 -0.27984650942E+03  0.28078776641E+03  0.47000000000E+01 0.  1.
         13    1    4    4    0    0  0.10935527864E+03  0.24969876865E+02 -0.16423456136E+03  0.19888454656E+03  0.00000000000E+00 0. -1.
        -14    1    4    4    0    0 -0.86234638530E+01  0.96852718637E+01 -0.15650180164E+01  0.13062078751E+02  0.00000000000E+00 0.  1.
</event>
<event>
12    1  0.8133506E-002  0.1830947E+03  0.7818608E-02  0.1164968E+00
         21   -1    0    0  501  502  0.00000000000E+00  0.00000000000E+00  0.17001098843E+03  0.17001098843E+03  0.00000000000E+00 0.  1.
         21   -1    0    0  502  503 -0.00000000000E+00 -0.00000000000E+00 -0.27371392726E+03  0.27371392726E+03  0.00000000000E+00 0. -1.
         -6    2    1    2    0  503  0.61517492206E+02 -0.31298827860E+01 -0.16954931088E+03  0.24915000000E+03  0.17185620637E+03 0.  0.
        -24    2    3    3    0    0 -0.19948581547E+02 -0.42662101698E+02 -0.73443080484E+02  0.11702121803E+03  0.77987682171E+02 0.  0.
          6    2    1    2  501    0 -0.61517492206E+02  0.31298827860E+01  0.65846372055E+02  0.19457491569E+03  0.17242231610E+03 0.  0.
         24    2    5    5    0    0 -0.52264789206E+02  0.68154653262E+02  0.40605713638E+02  0.12405531468E+03  0.79776137844E+02 0.  0.
          5    1    5    5  501    0 -0.92527029994E+01 -0.65024770476E+02  0.25240658417E+02  0.70519601003E+02  0.47000000000E+01 0. -1.
        -11    1    6    6    0    0 -0.50758328789E+02  0.15793764182E+02 -0.65669444988E+01  0.53562820021E+02  0.00000000000E+00 0.  1.
         12    1    6    6    0    0 -0.15064604170E+01  0.52360889080E+02  0.47172658137E+02  0.70492494664E+02  0.00000000000E+00 0. -1.
         -5    1    3    3    0  503  0.81466073753E+02  0.39532218912E+02 -0.96106230398E+02  0.13212878197E+03  0.47000000000E+01 0.  1.
         11    1    4    4    0    0  0.19116857579E+02  0.12952856157E+02 -0.20310747663E+02  0.30753165642E+02  0.00000000000E+00 0. -1.
        -12    1    4    4    0    0 -0.39065439126E+02 -0.55614957855E+02 -0.53132332820E+02  0.86268052385E+02  0.00000000000E+00 0.  1.
</event>
<event>
12    1  0.8133506E-002  0.1923187E+03  0.7818608E-02  0.1157554E+00
         21   -1    0    0  503  502  0.00000000000E+00  0.00000000000E+00  0.88828964962E+03  0.88828964962E+03  0.00000000000E+00 0.  1.
         21   -1    0    0  501  503 -0.00000000000E+00 -0.00000000000E+00 -0.40741684479E+02  0.40741684479E+02  0.00000000000E+00 0.  1.
          6    2    1    2  501    0  0.27214108642E+02 -0.73165952791E+02  0.38396436805E+03  0.42713869254E+03  0.17007340292E+03 0.  0.
         24    2    3    3    0    0  0.76789978847E+02 -0.79555323065E+02  0.29227953270E+03  0.32260740540E+03  0.80140267683E+02 0.  0.
         -6    2    1    2    0  502 -0.27214108642E+02  0.73165952791E+02  0.46358359710E+03  0.50189264156E+03  0.17576293067E+03 0.  0.
        -24    2    5    5    0    0  0.51945570370E+02  0.53715911421E+02  0.24123311582E+03  0.26502477667E+03  0.80380188244E+02 0.  0.
          5    1    3    3  501    0 -0.49575870206E+02  0.63893702740E+01  0.91684835345E+02  0.10453128714E+03  0.47000000000E+01 0. -1.
        -11    1    4    4    0    0  0.47908847522E+02  0.27185194853E+01  0.82716786219E+02  0.95628001869E+02  0.00000000000E+00 0.  1.
         12    1    4    4    0    0  0.28881131326E+02 -0.82273842550E+02  0.20956274648E+03  0.22697940353E+03  0.00000000000E+00 0. -1.
         -5    1    5    5    0  502 -0.79159679012E+02  0.19450041370E+02  0.22235048128E+03  0.23686786489E+03  0.47000000000E+01 0.  1.
         13    1    6    6    0    0  0.85672535173E+01 -0.20117278213E+02  0.30245531893E+02  0.37321507405E+02  0.00000000000E+00 0. -1.
        -14    1    6    6    0    0  0.43378316853E+02  0.73833189634E+02  0.21098758392E+03  0.22770326927E+03  0.00000000000E+00 0.  1.
</event>
<event>
12    1  0.8133506E-002  0.1951582E+03  0.7818608E-02  0.1154974E+00
         21   -1    0    0  503  502  0.00000000000E+00  0.00000000000E+00  0.40889438364E+02  0.40889438364E+02  0.00000000000E+00 0.  1.
         21   -1    0    0  501  503 -0.00000000000E+00 -0.00000000000E+00 -0.19652263238E+04  0.19652263238E+04  0.00000000000E+00 0.  1.
          6    2    1    2  501    0 -0.82301432486E+01 -0.79574693839E+02 -0.16921235626E+04  0.17027846489E+04  0.17260805995E+03 0.  0.
         24    2    3    3    0    0  0.18973865792E+02 -0.76935131372E+02 -0.16405727387E+04  0.16442474570E+04  0.76103657915E+02 0.  0.
         -6    2    1    2    0  502  0.82301432486E+01  0.79574693839E+02 -0.23221332288E+03  0.30333111328E+03  0.17800806106E+03 0.  0.
        -24    2    5    5    0    0 -0.97824992559E+01  0.77515174463E+02 -0.25224381370E+03  0.27590835864E+03  0.79963624576E+02 0.  0.
          5    1    3    3  501    0 -0.27204009041E+02 -0.26395624668E+01 -0.51550823883E+02  0.58537191946E+02  0.47000000000E+01 0. -1.
        -11    1    4    4    0    0 -0.48071306761E+01  0.11363245482E+02 -0.75151206924E+02  0.76157309270E+02  0.00000000000E+00 0.  1.
         12    1    4    4    0    0  0.23780996469E+02 -0.88298376854E+02 -0.15654215318E+04  0.15680901477E+04  0.00000000000E+00 0. -1.
         -5    1    5    5    0  502  0.18012642504E+02  0.20595193766E+01  0.20030490813E+02  0.27422754644E+02  0.47000000000E+01 0.  1.
         11    1    6    6    0    0  0.34311267770E+02  0.38553663334E+02 -0.13935390285E+03  0.14860403188E+03  0.00000000000E+00 0. -1.
        -12    1    6    6    0    0 -0.44093767026E+02  0.38961511129E+02 -0.11288991085E+03  0.12730432676E+03  0.00000000000E+00 0.  1.
</event>
<event>
12    1  0.8133506E-002  0.1985196E+03  0.7818608E-02  0.1151705E+00
         21   -1    0    0  501  502  0.00000000000E+00  0.00000000000E+00  0.82620903391E+03  0.82620903391E+03  0.00000000000E+00 0.  1.
         21   -1    0    0  502  503 -0.00000000000E+00 -0.00000000000E+00 -0.51149078774E+02  0.51149078774E+02  0.00000000000E+00 0.  1.
         -6    2    1    2    0  503 -0.45113036437E+01 -0.97580565139E+02  0.25823954922E+03  0.32372161853E+03  0.16901391354E+03 0.  0.
        -24    2    3    3    0    0 -0.17758909572E+02 -0.30928204864E+02  0.23656103658E+03  0.25223676627E+03  0.79939536552E+02 0.  0.
          6    2    1    2  501    0  0.45113036437E+01  0.97580565139E+02  0.51682040592E+03  0.55363649415E+03  0.17282279112E+03 0.  0.
         24    2    5    5    0    0  0.34616544659E+02 -0.74300024321E+01  0.20035579723E+03  0.21881492467E+03  0.80523385883E+02 0.  0.
          5    1    5    5  501    0 -0.30105241016E+02  0.10501056757E+03  0.31646460869E+03  0.33482156948E+03  0.47000000000E+01 0. -1.
        -13    1    6    6    0    0 -0.13148093728E+02  0.16317597534E+02  0.12347776469E+03  0.12524334206E+03  0.00000000000E+00 0.  1.
         14    1    6    6    0    0  0.47764638387E+02 -0.23747599966E+02  0.76878032539E+02  0.93571582606E+02  0.00000000000E+00 0. -1.
         -5    1    3    3    0  503  0.13247605928E+02 -0.66652360275E+02  0.21678512638E+02  0.71484852264E+02  0.47000000000E+01 0.  1.
         13    1    4    4    0    0  0.30050891825E+02 -0.25258320292E+02  0.11321337206E+03  0.11982615097E+03  0.00000000000E+00 0. -1.
        -14    1    4    4    0    0 -0.47809801397E+02 -0.56698845726E+01  0.12334766452E+03  0.13241061530E+03  0.00000000000E+00 0.  1.
</event>
<event>
12    1  0.8133506E-002  0.1777194E+03  0.7818608E-02  0.1170054E+00
         21   -1    0    0  501  502  0.00000000000E+00  0.00000000000E+00  0.10091415465E+03  0.10091415465E+03  0.00000000000E+00 0. -1.
         21   -1    0    0  502  503 -0.00000000000E+00 -0.00000000000E+00 -0.62048920884E+03  0.62048920884E+03  0.00000000000E+00 0. -1.
         -6    2    1    2    0  503  0.43811212644E+02 -0.12171746289E+02 -0.51382631944E+03  0.54369263609E+03  0.17180402275E+03 0.  0.
        -24    2    3    3    0    0 -0.99739588473E+01 -0.26359637340E+02 -0.13187877638E+03  0.15768725197E+03  0.81724827548E+02 0.  0.
          6    2    1    2  501    0 -0.43811212644E+02  0.12171746289E+02 -0.57487347563E+01  0.17771072740E+03  0.17169880874E+03 0.  0.
         24    2    5    5    0    0 -0.38323481489E+02 -0.33375836378E+02 -0.56258772723E+02  0.10931444523E+03  0.78752541164E+02 0.  0.
          5    1    5    5  501    0 -0.54877311553E+01  0.45547582668E+02  0.50510037967E+02  0.68396282176E+02  0.47000000000E+01 0. -1.
        -13    1    6    6    0    0 -0.43512003123E+02 -0.55636506585E+02 -0.39081845038E+02  0.80722400189E+02  0.00000000000E+00 0.  1.
         14    1    6    6    0    0  0.51885216340E+01  0.22260670207E+02 -0.17176927685E+02  0.28592045039E+02  0.00000000000E+00 0. -1.
         -5    1    3    3    0  503  0.53785171492E+02  0.14187891051E+02 -0.38194754306E+03  0.38600538412E+03  0.47000000000E+01 0.  1.
         13    1    4    4    0    0 -0.38488019649E+02 -0.19604857265E+02 -0.11721439143E+03  0.12491954068E+03  0.00000000000E+00 0. -1.
        -14    1    4    4    0    0  0.28514060801E+02 -0.67547800755E+01 -0.14664384952E+02  0.32767711291E+02  0.00000000000E+00 0.  1.
</event>
<event>
12    1  0.8133506E-002  0.2217679E+03  0.7818608E-02  0.1133077E+00
         21   -1    0    0  503  502  0.00000000000E+00  0.00000000000E+00  0.22711701797E+03  0.22711701797E+03  0.00000000000E+00 0.  1.
         21   -1    0    0  501  503 -0.00000000000E+00 -0.00000000000E+00 -0.21486760642E+03  0.21486760642E+03  0.00000000000E+00 0.  1.
          6    2    1    2  501    0 -0.13215844624E+03 -0.24999998142E+02 -0.87736952268E+01  0.21922245523E+03  0.17288913306E+03 0.  0.
         24    2    3    3    0    0 -0.65520849974E+02 -0.57332529517E+02 -0.56868727912E+02  0.13078499716E+03  0.79313697081E+02 0.  0.
         -6    2    1    2    0  502  0.13215844624E+03  0.24999998142E+02  0.21023106773E+02  0.22276216917E+03  0.17632401474E+03 0.  0.
        -24    2    5    5    0    0  0.13251586209E+03 -0.19623080719E+02 -0.27836111118E+02  0.15642469796E+03  0.75817663167E+02 0.  0.
          5    1    3    3  501    0 -0.66637596262E+02  0.32332531375E+02  0.48095032685E+02  0.88437458069E+02  0.47000000000E+01 0. -1.
        -11    1    4    4    0    0 -0.23010854822E+02  0.13604080296E+02 -0.37149905033E+02  0.45767738466E+02  0.00000000000E+00 0.  1.
         12    1    4    4    0    0 -0.42509995152E+02 -0.70936609813E+02 -0.19718822879E+02  0.85017258690E+02  0.00000000000E+00 0. -1.
         -5    1    5    5    0  502 -0.35741585425E+00  0.44623078860E+02  0.48859217891E+02  0.66337471206E+02  0.47000000000E+01 0.  1.
         11    1    6    6    0    0  0.20802343664E+02 -0.30505312427E+02 -0.24154561256E+02  0.44122040044E+02  0.00000000000E+00 0. -1.
        -12    1    6    6    0    0  0.11171351843E+03  0.10882231708E+02 -0.36815498619E+01  0.11230265792E+03  0.00000000000E+00 0.  1.
</event>
<event>
12    1  0.8133506E-002  0.2302702E+03  0.7818608E-02  0.1126656E+00
         21   -1    0    0  501  502  0.00000000000E+00  0.00000000000E+00  0.29415536596E+03  0.29415536596E+03  0.00000000000E+00 0.  1.
         21   -1    0    0  502  503 -0.00000000000E+00 -0.00000000000E+00 -0.21434314900E+03  0.21434314900E+03  0.00000000000E+00 0.  1.
         -6    2    1    2    0  503  0.63735603138E+02 -0.13620151955E+03  0.14255768157E+03  0.26983272796E+03  0.17284075755E+03 0.  0.
        -24    2    3    3    0    0  0.30199448311E+02 -0.83873653891E+02  0.16463052790E+03  0.20371026771E+03  0.80298604951E+02 0.  0.
          6    2    1    2  501    0 -0.63735603138E+02  0.13620151955E+03 -0.62745464604E+02  0.23866578700E+03  0.17438831245E+03 0.  0.
         24    2    5    5    0    0 -0.92965858326E+02  0.72462999502E+02 -0.83500258974E+02  0.16538647037E+03  0.80541009562E+02 0.  0.
          5    1    5    5  501    0  0.29230255187E+02  0.63738520045E+02  0.20754794370E+02  0.73279316626E+02  0.47000000000E+01 0. -1.
        -13    1    6    6    0    0 -0.75900005144E+02  0.88358453133E+02 -0.55745219998E+02  0.12913387074E+03  0.00000000000E+00 0.  1.
         14    1    6    6    0    0 -0.17065853182E+02 -0.15895453631E+02 -0.27755038976E+02  0.36252599624E+02  0.00000000000E+00 0. -1.
         -5    1    3    3    0  503  0.33536154828E+02 -0.52327865657E+02 -0.22072846333E+02  0.66122460254E+02  0.47000000000E+01 0.  1.
         13    1    4    4    0    0  0.54178399063E+02 -0.32371538243E+02  0.89697360451E+02  0.10967603150E+03  0.00000000000E+00 0. -1.
        -14    1    4    4    0    0 -0.23978950752E+02 -0.51502115647E+02  0.74933167450E+02  0.94034236209E+02  0.00000000000E+00 0.  1.
</event>
<event>
12    1  0.8133506E-002  0.3030126E+03  0.7818608E-02  0.1084225E+00
         21   -1    0    0  503  502  0.00000000000E+00  0.00000000000E+00  0.47515701074E+03  0.47515701074E+03  0.00000000000E+00 0.  1.
         21   -1    0    0  501  503 -0.00000000000E+00 -0.00000000000E+00 -0.53390182158E+03  0.53390182158E+03  0.00000000000E+00 0. -1.
          6    2    1    2  501    0 -0.24334512610E+03  0.42608274144E+02 -0.43376909616E+03  0.52691795856E+03  0.16868488624E+03 0.  0.
         24    2    3    3    0    0 -0.17950868576E+03  0.78052320048E+02 -0.24287529253E+03  0.32248238003E+03  0.81798195442E+02 0.  0.
         -6    2    1    2    0  502  0.24334512610E+03 -0.42608274144E+02  0.37502428532E+03  0.48214087376E+03  0.17545453014E+03 0.  0.
        -24    2    5    5    0    0  0.72366252244E+02 -0.20685443777E+02  0.64903950577E+02  0.12730133563E+03  0.79550896950E+02 0.  0.
          5    1    3    3  501    0 -0.63836440332E+02 -0.35444045904E+02 -0.19089380363E+03  0.20443557853E+03  0.47000000000E+01 0. -1.
        -13    1    4    4    0    0 -0.20387218296E+02  0.26095975781E+02 -0.80081866892E+01  0.34070070088E+02  0.00000000000E+00 0.  1.
         14    1    4    4    0    0 -0.15912146747E+03  0.51956344267E+02 -0.23486710584E+03  0.28841230994E+03  0.00000000000E+00 0. -1.
         -5    1    5    5    0  502  0.17097887385E+03 -0.21922830367E+02  0.31012033474E+03  0.35483953812E+03  0.47000000000E+01 0.  1.
         11    1    6    6    0    0 -0.46346396127E+01  0.39529809839E+01  0.43151630891E+02  0.43579458367E+02  0.00000000000E+00 0. -1.
        -12    1    6    6    0    0  0.77000891857E+02 -0.24638424761E+02  0.21752319686E+02  0.83721877267E+02  0.00000000000E+00 0.  1.
</event>
<event>
12    1  0.8133506E-002  0.1886549E+03  0.7818608E-02  0.1159856E+00
         21   -1    0    0  501  502  0.00000000000E+00  0.00000000000E+00  0.54096918437E+03  0.54096918437E+03  0.00000000000E+00 0.  1.
         21   -1    0    0  502  503 -0.00000000000E+00 -0.00000000000E+00 -0.10367977487E+03  0.10367977487E+03  0.00000000000E+00 0.  1.
         -6    2    1    2    0  503  0.73932736705E+02  0.25406729233E+02  0.22820760921E+02  0.18926456702E+03  0.17084711807E+03 0.  0.
        -24    2    3    3    0    0  0.18297779299E+02 -0.20305414011E+02  0.60728441278E+02  0.10775425629E+03  0.84710787992E+02 0.  0.
          6    2    1    2  501    0 -0.73932736705E+02 -0.25406729233E+02  0.41446864858E+03  0.45538439223E+03  0.17169488223E+03 0.  0.
         24    2    5    5    0    0 -0.87233661097E+02 -0.72365896060E+02  0.31726808931E+03  0.34651696523E+03  0.81045864534E+02 0.  0.
          5    1    5    5  501    0  0.13300924392E+02  0.46959166827E+02  0.97200559263E+02  0.10886742699E+03  0.47000000000E+01 0. -1.
        -13    1    6    6    0    0 -0.79483825908E+02 -0.14316098028E+02  0.18185756270E+03  0.19898442742E+03  0.00000000000E+00 0.  1.
         14    1    6    6    0    0 -0.77498351892E+01 -0.58049798032E+02  0.13541052661E+03  0.14753253781E+03  0.00000000000E+00 0. -1.
         -5    1    3    3    0  503  0.55634957406E+02  0.45712143244E+02 -0.37907680357E+02  0.81510310732E+02  0.47000000000E+01 0.  1.
         11    1    4    4    0    0 -0.24717074245E+02  0.70520193084E+01 -0.32960935876E+01  0.25913875984E+02  0.00000000000E+00 0. -1.
        -12    1    4    4    0    0  0.43014853544E+02 -0.27357433319E+02  0.64024534865E+02  0.81840380302E+02  0.00000000000E+00 0.  1.
</event>
<event>
12    1  0.8133506E-002  0.2329940E+03  0.7818608E-02  0.1124698E+00
         21   -1    0    0  501  502  0.00000000000E+00  0.00000000000E+00  0.27365552326E+04  0.27365552326E+04  0.00000000000E+00 0. -1.
         21   -1    0    0  502  503 -0.00000000000E+00 -0.00000000000E+00 -0.21478533479E+03  0.21478533479E+03  0.00000000000E+00 0. -1.
         -6    2    1    2    0  503 -0.12450466666E+03  0.95127999633E+02 -0.14503735829E+03  0.27444861160E+03  0.17243971925E+03 0.  0.
        -24    2    3    3    0    0 -0.14610919022E+03  0.60785906584E+02 -0.14804179565E+03  0.23349435130E+03  0.86950657973E+02 0.  0.
          6    2    1    2  501    0  0.12450466666E+03 -0.95127999633E+02  0.26668072561E+04  0.26768919558E+04  0.17128588211E+03 0.  0.
         24    2    5    5    0    0  0.12777450534E+03 -0.16586967749E+02  0.19383678836E+04  0.19442082621E+04  0.77937556113E+02 0.  0.
          5    1    5    5  501    0 -0.32698386788E+01 -0.78541031883E+02  0.72843937251E+03  0.73268369366E+03  0.47000000000E+01 0. -1.
        -13    1    6    6    0    0  0.10680119934E+03 -0.34746379739E+02  0.11799137078E+04  0.11852468793E+04  0.00000000000E+00 0.  1.
         14    1    6    6    0    0  0.20973305997E+02  0.18159411990E+02  0.75845417583E+03  0.75896138284E+03  0.00000000000E+00 0. -1.
         -5    1    3    3    0  503  0.21604523561E+02  0.34342093049E+02  0.30044373592E+01  0.40954260305E+02  0.47000000000E+01 0.  1.
         11    1    4    4    0    0 -0.56628309272E+02  0.65404678892E+02 -0.98543462698E+02  0.13113104694E+03  0.00000000000E+00 0. -1.
        -12    1    4    4    0    0 -0.89480880949E+02 -0.46187723087E+01 -0.49498332953E+02  0.10236330435E+03  0.00000000000E+00 0.  1.
</event>
<event>
12    1  0.8133506E-002  0.1755054E+03  0.7818608E-02  0.1172602E+00
         21   -1    0    0  503  502  0.00000000000E+00  0.00000000000E+00  0.62116024045E+03  0.62116024045E+03  0.00000000000E+00 0.  1.
         21   -1    0    0  501  503 -0.00000000000E+00 -0.00000000000E+00 -0.56812529006E+02  0.56812529006E+02  0.00000000000E+00 0.  1.
          6    2    1    2  501    0  0.32261312733E+02 -0.16702677059E+02  0.15885234720E+03  0.23671971717E+03  0.17170435220E+03 0.  0.
         24    2    3    3    0    0  0.80617524073E+02 -0.43010633879E+02  0.10781481146E+03  0.16150434758E+03  0.78169820927E+02 0.  0.
         -6    2    1    2    0  502 -0.32261312733E+02  0.16702677059E+02  0.40549536425E+03  0.44125305229E+03  0.17017048513E+03 0.  0.
        -24    2    5    5    0    0 -0.51498865872E+02  0.61369078616E+02  0.16480458292E+03  0.19565314778E+03  0.68566075352E+02 0.  0.
          5    1    3    3  501    0 -0.48356211341E+02  0.26307956820E+02  0.51037535738E+02  0.75215369583E+02  0.47000000000E+01 0. -1.
        -13    1    4    4    0    0  0.24982810703E+02  0.11598497045E+02 -0.10987180510E+01  0.27565796663E+02  0.00000000000E+00 0.  1.
         14    1    4    4    0    0  0.55634713371E+02 -0.54609130924E+02  0.10891352951E+03  0.13393855092E+03  0.00000000000E+00 0. -1.
         -5    1    5    5    0  502  0.19237553139E+02 -0.44666401557E+02  0.24069078133E+03  0.24559990451E+03  0.47000000000E+01 0.  1.
         11    1    6    6    0    0  0.11218866012E+02  0.14668747471E+02  0.73976662570E+01  0.19893732003E+02  0.00000000000E+00 0. -1.
        -12    1    6    6    0    0 -0.62717731884E+02  0.46700331145E+02  0.15740691666E+03  0.17575941578E+03  0.00000000000E+00 0.  1.
</event>
<event>
12    1  0.8133506E-002  0.1809645E+03  0.7818608E-02  0.1166942E+00
         21   -1    0    0  503  502  0.00000000000E+00  0.00000000000E+00  0.17432417209E+03  0.17432417209E+03  0.00000000000E+00 0. -1.
         21   -1    0    0  501  503 -0.00000000000E+00 -0.00000000000E+00 -0.51554041376E+03  0.51554041376E+03  0.00000000000E+00 0. -1.
          6    2    1    2  501    0  0.42242953214E+02 -0.38980918761E+02 -0.44568158608E+03  0.48091201645E+03  0.17129014061E+03 0.  0.
         24    2    3    3    0    0  0.79505715452E+02  0.46473495103E+01 -0.36181726893E+03  0.37919056869E+03  0.80814569507E+02 0.  0.
         -6    2    1    2    0  502 -0.42242953214E+02  0.38980918761E+02  0.10446534441E+03  0.20895256940E+03  0.17159309122E+03 0.  0.
        -24    2    5    5    0    0 -0.79530701132E+01  0.43882528139E+02 -0.22684337169E+01  0.96640454071E+02  0.85704748826E+02 0.  0.
          5    1    3    3  501    0 -0.37262762238E+02 -0.43628268271E+02 -0.83864317156E+02  0.10172144776E+03  0.47000000000E+01 0. -1.
        -11    1    4    4    0    0  0.65075085179E+01  0.33916118700E+02 -0.98473394012E+02  0.10435353421E+03  0.00000000000E+00 0.  1.
         12    1    4    4    0    0  0.72998206934E+02 -0.29268769190E+02 -0.26334387492E+03  0.27483703448E+03  0.00000000000E+00 0. -1.
         -5    1    5    5    0  502 -0.34289883101E+02 -0.49016093780E+01  0.10673377812E+03  0.11231211533E+03  0.47000000000E+01 0.  1.
         13    1    6    6    0    0  0.41115876429E+01 -0.25652439178E+02  0.90104153290E+00  0.25995473924E+02  0.00000000000E+00 0. -1.
        -14    1    6    6    0    0 -0.12064657756E+02  0.69534967317E+02 -0.31694752498E+01  0.70644980146E+02  0.00000000000E+00 0.  1.
</event>
<event>
12    1  0.8133506E-002  0.1912566E+03  0.7818608E-02  0.1157769E+00
         21   -1    0    0  503  502  0.00000000000E+00  0.00000000000E+00  0.10973543943E+04  0.10973543943E+04  0.00000000000E+00 0.  1.
         21   -1    0    0  501  503 -0.00000000000E+00 -0.00000000000E+00 -0.72525284071E+02  0.72525284071E+02  0.00000000000E+00 0. -1.
          6    2    1    2  501    0 -0.80328255324E+02 -0.22136606505E+02  0.79389490887E+02  0.20528899920E+03  0.16999477632E+03 0.  0.
         24    2    3    3    0    0  0.78648529234E+01 -0.20139002728E+02  0.82444252415E+02  0.11689535502E+03  0.80000212037E+02 0.  0.
         -6    2    1    2    0  502  0.80328255324E+02  0.22136606505E+02  0.94543961935E+03  0.96459067918E+03  0.17215239346E+03 0.  0.
        -24    2    5    5    0    0 -0.22725399165E+02 -0.26824645302E+01  0.48388817724E+03  0.49100028052E+03  0.80061651335E+02 0.  0.
          5    1    3    3  501    0 -0.88193108248E+02 -0.19976037767E+01 -0.30547615282E+01  0.88393644179E+02  0.47000000000E+01 0. -1.
        -13    1    4    4    0    0  0.35010680153E+02 -0.36867774847E+02  0.47317665988E+02  0.69454604322E+02  0.00000000000E+00 0.  1.
         14    1    4    4    0    0 -0.27145827230E+02  0.16728772119E+02  0.35126586427E+02  0.47440750696E+02  0.00000000000E+00 0. -1.
         -5    1    5    5    0  502  0.10305365449E+03  0.24819071035E+02  0.46155144211E+03  0.47359039866E+03  0.47000000000E+01 0.  1.
         13    1    6    6    0    0 -0.40572045827E+02 -0.92705225226E+01  0.45168122419E+03  0.45359449046E+03  0.00000000000E+00 0. -1.
        -14    1    6    6    0    0  0.17846646662E+02  0.65880579925E+01  0.32206953053E+02  0.37405790062E+02  0.00000000000E+00 0.  1.
</event>
<event>
12    1  0.8133506E-002  0.2073251E+03  0.7818608E-02  0.1144094E+00
         21   -1    0    0  503  502  0.00000000000E+00  0.00000000000E+00  0.16879767087E+03  0.16879767087E+03  0.00000000000E+00 0.  1.
         21   -1    0    0  501  503 -0.00000000000E+00 -0.00000000000E+00 -0.44233883856E+03  0.44233883856E+03  0.00000000000E+00 0.  1.
          6    2    1    2  501    0 -0.44178286218E+02 -0.10633671716E+03 -0.33670450023E+03  0.39440321219E+03  0.17007279302E+03 0.  0.
         24    2    3    3    0    0 -0.83252382130E+01  0.11838930202E+02 -0.11699523483E+03  0.14232152705E+03  0.79737458138E+02 0.  0.
         -6    2    1    2    0  502  0.44178286218E+02  0.10633671716E+03  0.63163332537E+02  0.21673329723E+03  0.17240793822E+03 0.  0.
        -24    2    5    5    0    0  0.58685196910E+02  0.85826206152E+02 -0.18045717230E+02  0.13159733959E+03  0.78626470589E+02 0.  0.
          5    1    3    3  501    0 -0.35853048005E+02 -0.11817564736E+03 -0.21970926540E+03  0.25208168514E+03  0.47000000000E+01 0. -1.
        -11    1    4    4    0    0 -0.23752037693E+02  0.40217496455E+02 -0.53053124655E+02  0.70684088389E+02  0.00000000000E+00 0.  1.
         12    1    4    4    0    0  0.15426799480E+02 -0.28378566253E+02 -0.63942110175E+02  0.71637438664E+02  0.00000000000E+00 0. -1.
         -5    1    5    5    0  502 -0.14506910692E+02  0.20510511009E+02  0.81209049767E+02  0.85135957643E+02  0.47000000000E+01 0.  1.
         13    1    6    6    0    0  0.69757504519E+02  0.37430464990E+02 -0.12112109893E+01  0.79174593010E+02  0.00000000000E+00 0. -1.
        -14    1    6    6    0    0 -0.11072307609E+02  0.48395741162E+02 -0.16834506240E+02  0.52422746578E+02  0.00000000000E+00 0.  1.
</event>
<event>
12    1  0.8133506E-002  0.1743264E+03  0.7818608E-02  0.1173437E+00
         21   -1    0    0  503  502  0.00000000000E+00  0.00000000000E+00  0.37214717245E+02  0.37214717245E+02  0.00000000000E+00 0.  1.
         21   -1    0    0  501  503 -0.00000000000E+00 -0.00000000000E+00 -0.23414447859E+04  0.23414447859E+04  0.00000000000E+00 0.  1.
          6    2    1    2  501    0 -0.27550182580E+02  0.13465111527E+02 -0.21121795391E+04  0.21193612444E+04  0.17160814891E+03 0.  0.
         24    2    3    3    0    0 -0.71244655129E+02 -0.14264774021E+02 -0.17674539487E+04  0.17707411414E+04  0.79695949910E+02 0.  0.
         -6    2    1    2    0  502  0.27550182580E+02 -0.13465111527E+02 -0.19205052947E+03  0.25929825873E+03  0.17149886100E+03 0.  0.
        -24    2    5    5    0    0  0.32950322604E+02  0.55954623196E+02 -0.10178296841E+03  0.14519925058E+03  0.80662296610E+02 0.  0.
          5    1    3    3  501    0  0.43694472549E+02  0.27729885548E+02 -0.34472559046E+03  0.34862010298E+03  0.47000000000E+01 0. -1.
        -13    1    4    4    0    0 -0.44099860684E+02 -0.47045083726E+02 -0.95646646461E+03  0.95863764559E+03  0.00000000000E+00 0.  1.
         14    1    4    4    0    0 -0.27144794444E+02  0.32780309705E+02 -0.81098748408E+03  0.81210349581E+03  0.00000000000E+00 0. -1.
         -5    1    5    5    0  502 -0.54001400239E+01 -0.69419734723E+02 -0.90267561055E+02  0.11409900815E+03  0.47000000000E+01 0.  1.
         13    1    6    6    0    0  0.28263222034E+02 -0.13868531010E+02 -0.45823507368E+02  0.55596220192E+02  0.00000000000E+00 0. -1.
        -14    1    6    6    0    0  0.46871005701E+01  0.69823154206E+02 -0.55959461045E+02  0.89603030392E+02  0.00000000000E+00 0.  1.
</event>
<event>
12    1  0.8133506E-002  0.3037799E+03  0.7818608E-02  0.1083794E+00
         21   -1    0    0  501  502  0.00000000000E+00  0.00000000000E+00  0.30364149605E+03  0.30364149605E+03  0.00000000000E+00 0. -1.
         21   -1    0    0  502  503 -0.00000000000E+00 -0.00000000000E+00 -0.33058947251E+03  0.33058947251E+03  0.00000000000E+00 0.  1.
         -6    2    1    2    0  503 -0.23626691535E+03 -0.75860735445E+02 -0.10912709552E+03  0.31953170268E+03  0.16915933189E+03 0.  0.
        -24    2    3    3    0    0 -0.96754724904E+02 -0.88582268099E+02 -0.23249978837E+02  0.15514661257E+03  0.79508583591E+02 0.  0.
          6    2    1    2  501    0  0.23626691535E+03  0.75860735445E+02  0.82179119063E+02  0.31469926589E+03  0.17522931796E+03 0.  0.
         24    2    5    5    0    0  0.87103170240E+02  0.96856985957E+02  0.25426301425E+02  0.15366002316E+03  0.77438155437E+02 0.  0.
          5    1    5    5  501    0  0.14916374511E+03 -0.20996250512E+02  0.56752817637E+02  0.16103924274E+03  0.47000000000E+01 0. -1.
        -13    1    6    6    0    0  0.68137823200E+02  0.35131636980E+02 -0.14103402765E+02  0.77948064998E+02  0.00000000000E+00 0.  1.
         14    1    6    6    0    0  0.18965347040E+02  0.61725348977E+02  0.39529704191E+02  0.75711958158E+02  0.00000000000E+00 0. -1.
         -5    1    3    3    0  503 -0.13951219045E+03  0.12721532654E+02 -0.85877116687E+02  0.16438509010E+03  0.47000000000E+01 0.  1.
         11    1    4    4    0    0 -0.80510639468E+02 -0.45065950117E+02  0.16839380704E+02  0.93789485924E+02  0.00000000000E+00 0. -1.
        -12    1    4    4    0    0 -0.16244085436E+02 -0.43516317982E+02 -0.40089359541E+02  0.61357126650E+02  0.00000000000E+00 0.  1.
</event>
<event>
12    1  0.8133506E-002  0.2173902E+03  0.7818608E-02  0.1136162E+00
         21   -1    0    0  503  502  0.00000000000E+00  0.00000000000E+00  0.35534890478E+03  0.35534890478E+03  0.00000000000E+00 0.  1.
         21   -1    0    0  501  503 -0.00000000000E+00 -0.00000000000E+00 -0.13208382426E+03  0.13208382426E+03  0.00000000000E+00 0.  1.
          6    2    1    2  501    0 -0.32708349970E+02 -0.12770452257E+03  0.10402048273E+03  0.23948557693E+03  0.17074776568E+03 0.  0.
         24    2    3    3    0    0 -0.58788300656E+01 -0.14492383547E+03  0.11822472175E+03  0.20426941188E+03  0.81923312088E+02 0.  0.
         -6    2    1    2    0  502  0.32708349970E+02  0.12770452257E+03  0.11924459779E+03  0.24794715211E+03  0.17285900293E+03 0.  0.
        -24    2    5    5    0    0  0.43767899955E+01  0.15692915901E+03  0.96082953747E+02  0.20088008910E+03  0.80467129676E+02 0.  0.
          5    1    3    3  501    0 -0.26829519905E+02  0.17219312898E+02 -0.14204239021E+02  0.35216165055E+02  0.47000000000E+01 0. -1.
        -13    1    4    4    0    0 -0.29195269823E+02 -0.44292571217E+02  0.87716416139E+01  0.53769297388E+02  0.00000000000E+00 0.  1.
         14    1    4    4    0    0  0.23316439757E+02 -0.10063126425E+03  0.10945308014E+03  0.15050011449E+03  0.00000000000E+00 0. -1.
         -5    1    5    5    0  502  0.28331559975E+02 -0.29224636437E+02  0.23161644043E+02  0.47067063009E+02  0.47000000000E+01 0.  1.
         13    1    6    6    0    0 -0.15142291529E+02 -0.99488956213E+00  0.18262679058E+02  0.23744562417E+02  0.00000000000E+00 0. -1.
        -14    1    6    6    0    0  0.19519081525E+02  0.15792404857E+03  0.77820274689E+02  0.17713552668E+03  0.00000000000E+00 0.  1.
</event>
<event>
12    1  0.8133506E-002  0.1802550E+03  0.7818608E-02  0.1169025E+00
         21   -1    0    0  503  502  0.00000000000E+00  0.00000000000E+00  0.52478771551E+02  0.52478771551E+02  0.00000000000E+00 0.  1.
         21   -1    0    0  501  503 -0.00000000000E+00 -0.00000000000E+00 -0.76163828481E+03  0.76163828481E+03  0.00000000000E+00 0.  1.
          6    2    1    2  501    0  0.26112500584E+02  0.19709175464E+02 -0.53808245909E+03  0.56560305096E+03  0.17118342263E+03 0.  0.
         24    2    3    3    0    0 -0.81952878908E+01 -0.73509998559E+01 -0.65426580336E+02  0.90908467922E+02  0.62149112487E+02 0.  0.
         -6    2    1    2    0  502 -0.26112500584E+02 -0.19709175464E+02 -0.17107705417E+03  0.24851400541E+03  0.17726121442E+03 0.  0.
        -24    2    5    5    0    0  0.53184631383E+02 -0.29791497368E+02 -0.10032968508E+03  0.14166378975E+03  0.79287106689E+02 0.  0.
          5    1    3    3  501    0  0.34307788475E+02  0.27060175319E+02 -0.47265587876E+03  0.47469458303E+03  0.47000000000E+01 0. -1.
        -13    1    4    4    0    0 -0.51478879176E+01  0.35124517497E+00 -0.76725377291E+02  0.76898684278E+02  0.00000000000E+00 0.  1.
         14    1    4    4    0    0 -0.30473999732E+01 -0.77022450308E+01  0.11298796955E+02  0.14009783644E+02  0.00000000000E+00 0. -1.
         -5    1    5    5    0  502 -0.79297131967E+02  0.10082321904E+02 -0.70747369090E+02  0.10685021566E+03  0.47000000000E+01 0.  1.
         13    1    6    6    0    0  0.32494017727E+02  0.76988181633E+01 -0.92222518958E+02  0.98082240962E+02  0.00000000000E+00 0. -1.
        -14    1    6    6    0    0  0.20690613656E+02 -0.37490315531E+02 -0.81071661198E+01  0.43581548786E+02  0.00000000000E+00 0.  1.
</event>
<event>
12    1  0.8133506E-002  0.1984881E+03  0.7818608E-02  0.1151124E+00
         21   -1    0    0  501  502  0.00000000000E+00  0.00000000000E+00  0.84257819536E+03  0.84257819536E+03  0.00000000000E+00 0. -1.
         21   -1    0    0  502  503 -0.00000000000E+00 -0.00000000000E+00 -0.46771669319E+02  0.46771669319E+02  0.00000000000E+00 0. -1.
         -6    2    1    2    0  503 -0.11307681868E+02 -0.96763413398E+02  0.42060414836E+03  0.46488038973E+03  0.17238011865E+03 0.  0.
        -24    2    3    3    0    0  0.66191367281E+01 -0.35775928812E+02  0.81807107478E+02  0.12013937244E+03  0.80108276238E+02 0.  0.
          6    2    1    2  501    0  0.11307681868E+02  0.96763413398E+02  0.37520237769E+03  0.42446947494E+03  0.17293492735E+03 0.  0.
         24    2    5    5    0    0  0.71521859569E+02  0.38552220236E+02  0.22544174992E+03  0.25281684364E+03  0.80565028012E+02 0.  0.
          5    1    5    5  501    0 -0.60214177702E+02  0.58211193162E+02  0.14976062776E+03  0.17165263131E+03  0.47000000000E+01 0. -1.
        -11    1    6    6    0    0  0.27940810054E+02  0.45223546152E+02  0.53914995583E+02  0.75714494925E+02  0.00000000000E+00 0.  1.
         12    1    6    6    0    0  0.43581049515E+02 -0.66713259155E+01  0.17152675434E+03  0.17710234871E+03  0.00000000000E+00 0. -1.
         -5    1    3    3    0  503 -0.17926818596E+02 -0.60987484586E+02  0.33879704088E+03  0.34474101730E+03  0.47000000000E+01 0.  1.
         11    1    4    4    0    0  0.46033595237E+01  0.22083155702E+02  0.48151276653E+02  0.53173321581E+02  0.00000000000E+00 0. -1.
        -12    1    4    4    0    0  0.20157772044E+01 -0.57859084514E+02  0.33655830825E+02  0.66966050855E+02  0.00000000000E+00 0.  1.
</event>
<event>
12    1  0.8133506E-002  0.2237128E+03  0.7818608E-02  0.1131371E+00
         21   -1    0    0  503  502  0.00000000000E+00  0.00000000000E+00  0.11701909911E+04  0.11701909911E+04  0.00000000000E+00 0.  1.
         21   -1    0    0  501  503 -0.00000000000E+00 -0.00000000000E+00 -0.43238298128E+02  0.43238298128E+02  0.00000000000E+00 0. -1.
          6    2    1    2  501    0  0.48037497494E+02  0.13372159383E+03  0.48441732729E+03  0.53306239787E+03  0.17119085031E+03 0.  0.
         24    2    3    3    0    0  0.86077792513E+02  0.48719678080E+02  0.30904246196E+03  0.33444008514E+03  0.80993418616E+02 0.  0.
         -6    2    1    2    0  502 -0.48037497494E+02 -0.13372159383E+03  0.64253536573E+03  0.68036689140E+03  0.17279567378E+03 0.  0.
        -24    2    5    5    0    0 -0.57582620113E+02 -0.12744610470E+03  0.32820563658E+03  0.36579454717E+03  0.80798781616E+02 0.  0.
          5    1    3    3  501    0 -0.38040295019E+02  0.85001915752E+02  0.17537486533E+03  0.19862231273E+03  0.47000000000E+01 0. -1.
        -11    1    4    4    0    0  0.98765851264E+02  0.52288081626E+02  0.24838430255E+03  0.27236647850E+03  0.00000000000E+00 0.  1.
         12    1    4    4    0    0 -0.12688058751E+02 -0.35684035457E+01  0.60658159409E+02  0.62073606642E+02  0.00000000000E+00 0. -1.
         -5    1    5    5    0  502  0.95451226188E+01 -0.62754891312E+01  0.31432972914E+03  0.31457234423E+03  0.47000000000E+01 0.  1.
         13    1    6    6    0    0 -0.62233918668E+02 -0.48574754133E+02  0.20222395778E+03  0.21708776214E+03  0.00000000000E+00 0. -1.
        -14    1    6    6    0    0  0.46512985552E+01 -0.78871350568E+02  0.12598167880E+03  0.14870678503E+03  0.00000000000E+00 0.  1.
</event>
<event>
12    1  0.8133506E-002  0.1868015E+03  0.7818608E-02  0.1162027E+00
         21   -1    0    0  501  502  0.00000000000E+00  0.00000000000E+00  0.63747504178E+02  0.63747504178E+02  0.00000000000E+00 0. -1.
         21   -1    0    0  502  503 -0.00000000000E+00 -0.00000000000E+00 -0.23746848786E+04  0.23746848786E+04  0.00000000000E+00 0.  1.
         -6    2    1    2    0  503  0.31055910297E+02  0.59330913842E+02 -0.22253716105E+04  0.22329663103E+04  0.17139168950E+03 0.  0.
        -24    2    3    3    0    0 -0.16710451680E+02  0.92820549581E+02 -0.14041060702E+04  0.14096180494E+04  0.81328317445E+02 0.  0.
          6    2    1    2  501    0 -0.31055910297E+02 -0.59330913842E+02 -0.85565763847E+02  0.20546607240E+03  0.17438514863E+03 0.  0.
         24    2    5    5    0    0  0.27552223802E+02  0.16697698444E+02 -0.66552051541E+02  0.10749222628E+03  0.78022208221E+02 0.  0.
          5    1    5    5  501    0 -0.58608134100E+02 -0.76028612286E+02 -0.19013712306E+02  0.97973846125E+02  0.47000000000E+01 0. -1.
        -13    1    6    6    0    0 -0.21724836359E+02 -0.13732142542E+02 -0.27501192428E+02  0.37641145554E+02  0.00000000000E+00 0.  1.
         14    1    6    6    0    0  0.49277060161E+02  0.30429840987E+02 -0.39050859113E+02  0.69851080722E+02  0.00000000000E+00 0. -1.
         -5    1    3    3    0  503  0.47766361978E+02 -0.33489635739E+02 -0.82126554035E+03  0.82334826095E+03  0.47000000000E+01 0.  1.
         11    1    4    4    0    0 -0.35789857041E+02  0.78877578752E+01 -0.34520745736E+03  0.34714740271E+03  0.00000000000E+00 0. -1.
        -12    1    4    4    0    0  0.19079405361E+02  0.84932791706E+02 -0.10588986128E+04  0.10624706467E+04  0.00000000000E+00 0.  1.
</event>
<event>
12    1  0.8133506E-002  0.2045040E+03  0.7818608E-02  0.1146348E+00
         21   -1    0    0  503  502  0.00000000000E+00  0.00000000000E+00  0.70592638012E+03  0.70592638012E+03  0.00000000000E+00 0. -1.
         21   -1    0    0  501  503 -0.00000000000E+00 -0.00000000000E+00 -0.16447574652E+03  0.16447574652E+03  0.00000000000E+00 0.  1.
          6    2    1    2  501    0  0.38591928820E+02  0.10038274254E+03 -0.77793389031E+02  0.21880058794E+03  0.17394209938E+03 0.  0.
         24    2    3    3    0    0 -0.23042268336E+02  0.92784313753E+02 -0.92030024757E+02  0.15491567442E+03  0.79934133602E+02 0.  0.
         -6    2    1    2    0  502 -0.38591928820E+02 -0.10038274254E+03  0.61924402263E+03  0.65160153869E+03  0.17191676384E+03 0.  0.
        -24    2    5    5    0    0 -0.78148873146E+02 -0.54818724480E+02  0.27280902256E+03  0.29991967840E+03  0.80091895790E+02 0.  0.
          5    1    3    3  501    0  0.61634197156E+02  0.75984287917E+01  0.14236635726E+02  0.63884913524E+02  0.47000000000E+01 0. -1.
        -13    1    4    4    0    0 -0.85934374518E+01 -0.13906352288E+02 -0.17646413099E+02  0.24054722956E+02  0.00000000000E+00 0.  1.
         14    1    4    4    0    0 -0.14448830884E+02  0.10669066604E+03 -0.74383611658E+02  0.13086095146E+03  0.00000000000E+00 0. -1.
         -5    1    5    5    0  502  0.39556944325E+02 -0.45564018064E+02  0.34643500007E+03  0.35168186029E+03  0.47000000000E+01 0.  1.
         13    1    6    6    0    0  0.96858323342E+01 -0.32001379534E+02  0.84831924995E+02  0.91183107747E+02  0.00000000000E+00 0. -1.
        -14    1    6    6    0    0 -0.87834705480E+02 -0.22817344946E+02  0.18797709757E+03  0.20873657065E+03  0.00000000000E+00 0.  1.
</event>
<event>
12    1  0.8133506E-002  0.1882509E+03  0.7818608E-02  0.1160496E+00
         21   -1    0    0  501  502  0.00000000000E+00  0.00000000000E+00  0.13375338765E+03  0.13375338765E+03  0.00000000000E+00 0.  1.
         21   -1    0    0  502  503 -0.00000000000E+00 -0.00000000000E+00 -0.31501755431E+03  0.31501755431E+03  0.00000000000E+00 0.  1.
         -6    2    1    2    0  503  0.72883065929E+02 -0.96582434730E+01 -0.18289203591E+03  0.26246506817E+03  0.17330087202E+03 0.  0.
        -24    2    3    3    0    0  0.87915059547E+02  0.11784591731E+02 -0.53801705107E+02  0.13066157990E+03  0.79434820395E+02 0.  0.
          6    2    1    2  501    0 -0.72883065929E+02  0.96582434730E+01  0.16278692455E+01  0.18630587380E+03  0.17117828626E+03 0.  0.
         24    2    5    5    0    0 -0.36915851935E+02 -0.22822273953E+01  0.66295570393E+02  0.11120449632E+03  0.81260991025E+02 0.  0.
          5    1    5    5  501    0 -0.35967213994E+02  0.11940470868E+02 -0.64667701148E+02  0.75101377476E+02  0.47000000000E+01 0. -1.
        -11    1    6    6    0    0 -0.34838212626E+02  0.51755192317E+00 -0.88737956972E+01  0.35954320589E+02  0.00000000000E+00 0.  1.
         12    1    6    6    0    0 -0.20776393095E+01 -0.27997793185E+01  0.75169366090E+02  0.75250175732E+02  0.00000000000E+00 0. -1.
         -5    1    3    3    0  503 -0.15031993618E+02 -0.21442835204E+02 -0.12909033080E+03  0.13180348827E+03  0.47000000000E+01 0.  1.
         11    1    4    4    0    0 -0.13081148914E+02 -0.56991922273E+01 -0.15941065561E+02  0.21394270733E+02  0.00000000000E+00 0. -1.
        -12    1    4    4    0    0  0.10099620846E+03  0.17483783958E+02 -0.37860639546E+02  0.10926730916E+03  0.00000000000E+00 0.  1.
</event>
<event>
12    1  0.8133506E-002  0.1947039E+03  0.7818608E-02  0.1154589E+00
         21   -1    0    0  501  502  0.00000000000E+00  0.00000000000E+00  0.87215513311E+03  0.87215513311E+03  0.00000000000E+00 0. -1.
         21   -1    0    0  502  503 -0.00000000000E+00 -0.00000000000E+00 -0.48798976891E+02  0.48798976891E+02  0.00000000000E+00 0. -1.
         -6    2    1    2    0  503  0.69224573060E+02 -0.58467740983E+02  0.56953232193E+03  0.60189422714E+03  0.17233420056E+03 0.  0.
        -24    2    3    3    0    0 -0.20676247365E+02 -0.65415089736E+02  0.29811420272E+03  0.31585173273E+03  0.78635857188E+02 0.  0.
          6    2    1    2  501    0 -0.69224573060E+02  0.58467740983E+02  0.25382383428E+03  0.31905988286E+03  0.17076929393E+03 0.  0.
         24    2    5    5    0    0  0.16863115813E+02  0.25283308140E+02  0.19690424569E+03  0.21055077576E+03  0.68093588957E+02 0.  0.
          5    1    5    5  501    0 -0.86087688873E+02  0.33184432844E+02  0.56919588595E+02  0.10850910710E+03  0.47000000000E+01 0. -1.
        -13    1    6    6    0    0  0.42985093227E+02  0.20672063891E+02  0.11658607463E+03  0.12596573051E+03  0.00000000000E+00 0.  1.
         14    1    6    6    0    0 -0.26121977414E+02  0.46112442486E+01  0.80318171058E+02  0.84585045249E+02  0.00000000000E+00 0. -1.
         -5    1    3    3    0  503  0.89900820425E+02  0.69473487527E+01  0.27141811921E+03  0.28604249440E+03  0.47000000000E+01 0.  1.
         11    1    4    4    0    0  0.23697300350E+02 -0.38348110767E+02  0.81992989831E+02  0.93568103672E+02  0.00000000000E+00 0. -1.
        -12    1    4    4    0    0 -0.44373547715E+02 -0.27066978969E+02  0.21612121289E+03  0.22228362906E+03  0.00000000000E+00 0.  1.
</event>
<event>
12    1  0.8133506E-002  0.5178191E+03  0.7818608E-02  0.1009232E+00
         21   -1    0    0  503  502  0.00000000000E+00  0.00000000000E+00  0.16417398730E+04  0.16417398730E+04  0.00000000000E+00 0.  1.
         21   -1    0    0  501  503 -0.00000000000E+00 -0.00000000000E+00 -0.16348143557E+03  0.16348143557E+03  0.00000000000E+00 0. -1.
          6    2    1    2  501    0 -0.42376170584E+03  0.24292260230E+03  0.76810363178E+03  0.92632627466E+03  0.17178999949E+03 0.  0.
         24    2    3    3    0    0 -0.39633830618E+03  0.24251721293E+03  0.76464628749E+03  0.89828611740E+03  0.79594925938E+02 0.  0.
         -6    2    1    2    0  502  0.42376170584E+03 -0.24292260230E+03  0.71015480567E+03  0.87889503394E+03  0.17190479525E+03 0.  0.
        -24    2    5    5    0    0  0.10583889678E+03 -0.10060872107E+03  0.18454880487E+03  0.24833027804E+03  0.79282272831E+02 0.  0.
          5    1    3    3  501    0 -0.27423399660E+02  0.40538937305E+00  0.34573442921E+01  0.28040157257E+02  0.47000000000E+01 0. -1.
        -13    1    4    4    0    0 -0.97190596075E+02  0.22664996689E+02  0.17692755348E+03  0.20313314161E+03  0.00000000000E+00 0.  1.
         14    1    4    4    0    0 -0.29914771010E+03  0.21985221624E+03  0.58771873401E+03  0.69515297579E+03  0.00000000000E+00 0. -1.
         -5    1    5    5    0  502  0.31792280906E+03 -0.14231388123E+03  0.52560600081E+03  0.63056475591E+03  0.47000000000E+01 0.  1.
         11    1    6    6    0    0  0.10854679490E+03 -0.10309420605E+03  0.14434052757E+03  0.20795434572E+03  0.00000000000E+00 0. -1.
        -12    1    6    6    0    0 -0.27078981174E+01  0.24854849739E+01  0.40208277295E+02  0.40375932322E+02  0.00000000000E+00 0.  1.
</event>
<event>
12    1  0.8133506E-002  0.2054880E+03  0.7818608E-02  0.1145197E+00
         21   -1    0    0  501  502  0.00000000000E+00  0.00000000000E+00  0.51397248219E+03  0.51397248219E+03  0.00000000000E+00 0.  1.
         21   -1    0    0  502  503 -0.00000000000E+00 -0.00000000000E+00 -0.10224078953E+03  0.10224078953E+03  0.00000000000E+00 0. -1.
         -6    2    1    2    0  503  0.53123076906E+02 -0.98071457943E+02  0.34246535734E+03  0.39936502760E+03  0.17253936398E+03 0.  0.
        -24    2    3    3    0    0 -0.38159040102E+02 -0.63024024135E+02  0.17920860052E+03  0.20900850380E+03  0.78362568886E+02 0.  0.
          6    2    1    2  501    0 -0.53123076906E+02  0.98071457943E+02  0.69266335315E+02  0.21684824412E+03  0.17258407692E+03 0.  0.
         24    2    5    5    0    0  0.84927329883E+01  0.10551907448E+03  0.78409998831E+02  0.15393821627E+03  0.79639468355E+02 0.  0.
          5    1    5    5  501    0 -0.61615809894E+02 -0.74476165334E+01 -0.91436635163E+01  0.62910027845E+02  0.47000000000E+01 0. -1.
        -13    1    6    6    0    0 -0.33376060339E+02  0.52356910365E+02  0.53068007915E+02  0.81678766707E+02  0.00000000000E+00 0.  1.
         14    1    6    6    0    0  0.41868793327E+02  0.53162164111E+02  0.25341990916E+02  0.72259449563E+02  0.00000000000E+00 0. -1.
         -5    1    3    3    0  503  0.91282117008E+02 -0.35047433808E+02  0.16325675683E+03  0.19035652379E+03  0.47000000000E+01 0.  1.
         13    1    4    4    0    0 -0.10198210900E+02 -0.75957924459E+02  0.13205305501E+03  0.15268143021E+03  0.00000000000E+00 0. -1.
        -14    1    4    4    0    0 -0.27960829202E+02  0.12933900324E+02  0.47155545513E+02  0.56327073596E+02  0.00000000000E+00 0.  1.
</event>
<event>
12    1  0.8133506E-002  0.1922113E+03  0.7818608E-02  0.1157088E+00
         21   -1    0    0  503  502  0.00000000000E+00  0.00000000000E+00  0.10136445127E+03  0.10136445127E+03  0.00000000000E+00 0.  1.
         21   -1    0    0  501  503 -0.00000000000E+00 -0.00000000000E+00 -0.75940240851E+03  0.75940240851E+03  0.00000000000E+00 0.  1.
          6    2    1    2  501    0  0.39529932707E+02  0.70289220905E+02 -0.64028255849E+03  0.66773726319E+03  0.17148792315E+03 0.  0.
         24    2    3    3    0    0 -0.28996829928E+02  0.26388072511E+02 -0.47682308225E+03  0.48507824096E+03  0.80021881827E+02 0.  0.
         -6    2    1    2    0  502 -0.39529932707E+02 -0.70289220905E+02 -0.17755398745E+02  0.19302959659E+03  0.17447630446E+03 0.  0.
        -24    2    5    5    0    0  0.19273891417E+01 -0.49377689187E+02 -0.74230680212E+02  0.11976603736E+03  0.79948976245E+02 0.  0.
          5    1    3    3  501    0  0.68526762635E+02  0.43901148393E+02 -0.16345947624E+03  0.18265902223E+03  0.47000000000E+01 0. -1.
        -11    1    4    4    0    0 -0.23039163257E+02  0.40097190763E+01 -0.44555547296E+03  0.44616875773E+03  0.00000000000E+00 0.  1.
         12    1    4    4    0    0 -0.59576666717E+01  0.22378353435E+02 -0.31267609296E+02  0.38909483236E+02  0.00000000000E+00 0. -1.
         -5    1    5    5    0  502 -0.41457321849E+02 -0.20911531718E+02  0.56475281467E+02  0.73263559226E+02  0.47000000000E+01 0.  1.
         13    1    6    6    0    0  0.55298915371E+01  0.10177503260E+02 -0.56280843932E+02  0.57460374753E+02  0.00000000000E+00 0. -1.
        -14    1    6    6    0    0 -0.36025023954E+01 -0.59555192447E+02 -0.17949836280E+02  0.62305662611E+02  0.00000000000E+00 0.  1.
</event>
<event>
12    1  0.8133506E-002  0.1777641E+03  0.7818608E-02  0.1170218E+00
         21   -1    0    0  501  502  0.00000000000E+00  0.00000000000E+00  0.39740223435E+03  0.39740223435E+03  0.00000000000E+00 0.  1.
         21   -1    0    0  502  503 -0.00000000000E+00 -0.00000000000E+00 -0.87018271965E+02  0.87018271965E+02  0.00000000000E+00 0.  1.
         -6    2    1    2    0  503  0.27758639868E+02 -0.25179619804E+02  0.22866250230E+03  0.28963186336E+03  0.17376858455E+03 0.  0.
        -24    2    3    3    0    0  0.60463569859E+02 -0.10804594830E+02  0.55427166754E+02  0.11268886330E+03  0.76511610548E+02 0.  0.
          6    2    1    2  501    0 -0.27758639868E+02  0.25179619804E+02  0.81721460089E+02  0.19478864296E+03  0.17279948797E+03 0.  0.
         24    2    5    5    0    0 -0.60882314887E+02  0.20588528475E+02 -0.11273405775E+01  0.10532205848E+03  0.83432136099E+02 0.  0.
          5    1    5    5  501    0  0.33123675019E+02  0.45910913289E+01  0.82848800667E+02  0.89466584479E+02  0.47000000000E+01 0. -1.
        -11    1    6    6    0    0 -0.73989883394E+01  0.45230179591E+02 -0.60533416777E+01  0.46229396705E+02  0.00000000000E+00 0.  1.
         12    1    6    6    0    0 -0.53483326548E+02 -0.24641651116E+02  0.49260011001E+01  0.59092661771E+02  0.00000000000E+00 0. -1.
         -5    1    3    3    0  503 -0.32704929992E+02 -0.14375024974E+02  0.17323533554E+03  0.17694300006E+03  0.47000000000E+01 0.  1.
         13    1    4    4    0    0  0.24539944718E+02  0.32114236758E+02  0.33796910819E+02  0.52685522397E+02  0.00000000000E+00 0. -1.
        -14    1    4    4    0    0  0.35923625141E+02 -0.42918831588E+02  0.21630255935E+02  0.60003340907E+02  0.00000000000E+00 0.  1.
</event>
<event>
12    1  0.8133506E-002  0.2174358E+03  0.7818608E-02  0.1136787E+00
         21   -1    0    0  501  502  0.00000000000E+00  0.00000000000E+00  0.50735764145E+02  0.50735764145E+02  0.00000000000E+00 0.  1.
         21   -1    0    0  502  503 -0.00000000000E+00 -0.00000000000E+00 -0.10003262496E+04  0.10003262496E+04  0.00000000000E+00 0.  1.
         -6    2    1    2    0  503 -0.10879453514E+03 -0.60907278754E+02 -0.62746579815E+03  0.66241998032E+03  0.17187482359E+03 0.  0.
        -24    2    3    3    0    0 -0.16521386684E+02 -0.51306610483E+02 -0.17374096543E+03  0.19928412488E+03  0.81381293085E+02 0.  0.
          6    2    1    2  501    0  0.10879453514E+03  0.60907278754E+02 -0.32212468734E+03  0.38864203347E+03  0.17813581477E+03 0.  0.
         24    2    5    5    0    0  0.11580368028E+02  0.18900435252E+02 -0.22762960427E+03  0.24663294956E+03  0.92310582776E+02 0.  0.
          5    1    5    5  501    0  0.97214167113E+02  0.42006843503E+02 -0.94495083074E+02  0.14200908391E+03  0.47000000000E+01 0. -1.
        -13    1    6    6    0    0  0.34782043835E+02 -0.26407172372E+02 -0.94463561346E+02  0.10406965815E+03  0.00000000000E+00 0.  1.
         14    1    6    6    0    0 -0.23201675806E+02  0.45307607624E+02 -0.13316604292E+03  0.14256329141E+03  0.00000000000E+00 0. -1.
         -5    1    3    3    0  503 -0.92273148457E+02 -0.96006682715E+01 -0.45372483272E+03  0.46313585543E+03  0.47000000000E+01 0.  1.
         13    1    4    4    0    0 -0.11683389635E+02 -0.57495811480E+02 -0.17994866091E+03  0.18927173718E+03  0.00000000000E+00 0. -1.
        -14    1    4    4    0    0 -0.48379970490E+01  0.61892009974E+01  0.62076954774E+01  0.10012387706E+02  0.00000000000E+00 0.  1.
</event>
<event>
12    1  0.8133506E-002  0.1978692E+03  0.7818608E-02  0.1151727E+00
         21   -1    0    0  501  502  0.00000000000E+00  0.00000000000E+00  0.29443422290E+03  0.29443422290E+03  0.00000000000E+00 0.  1.
         21   -1    0    0  502  503 -0.00000000000E+00 -0.00000000000E+00 -0.16422622114E+03  0.16422622114E+03  0.00000000000E+00 0.  1.
         -6    2    1    2    0  503  0.17835983225E+02 -0.95418915298E+02 -0.35934520054E+02  0.20028944771E+03  0.17146918510E+03 0.  0.
        -24    2    3    3    0    0 -0.10210937449E+02 -0.14411473049E+02 -0.70337400831E+02  0.10779899596E+03  0.79757882214E+02 0.  0.
          6    2    1    2  501    0 -0.17835983225E+02  0.95418915298E+02  0.16614252181E+03  0.25837099633E+03  0.17242198961E+03 0.  0.
         24    2    5    5    0    0 -0.79271865806E+02  0.53284314233E+02  0.98806144429E+02  0.15784254268E+03  0.77642560824E+02 0.  0.
          5    1    5    5  501    0  0.61435882581E+02  0.42134601065E+02  0.67336377380E+02  0.10052845365E+03  0.47000000000E+01 0. -1.
        -13    1    6    6    0    0 -0.31055629251E+02  0.62532317671E+02  0.77533459427E+02  0.10433685922E+03  0.00000000000E+00 0.  1.
         14    1    6    6    0    0 -0.48216236556E+02 -0.92480034386E+01  0.21272685002E+02  0.53505683459E+02  0.00000000000E+00 0. -1.
         -5    1    3    3    0  503  0.28046920674E+02 -0.81007442248E+02  0.34402880778E+02  0.92490451749E+02  0.47000000000E+01 0.  1.
         13    1    4    4    0    0 -0.37751194092E+02  0.95654743696E+01 -0.15497577968E+02  0.41914506774E+02  0.00000000000E+00 0. -1.
        -14    1    4    4    0    0  0.27540256643E+02 -0.23976947419E+02 -0.54839822864E+02  0.65884489186E+02  0.00000000000E+00 0.  1.
</event>
<event>
12    1  0.8133506E-002  0.1815592E+03  0.7818608E-02  0.1168141E+00
         21   -1    0    0  503  502  0.00000000000E+00  0.00000000000E+00  0.19900198606E+02  0.19900198606E+02  0.00000000000E+00 0.  1.
         21   -1    0    0  501  503 -0.00000000000E+00 -0.00000000000E+00 -0.15949609035E+04  0.15949609035E+04  0.00000000000E+00 0.  1.
          6    2    1    2  501    0  0.25868662106E+02  0.53841602590E+02 -0.85497335153E+03  0.87403842110E+03  0.17145152049E+03 0.  0.
         24    2    3    3    0    0 -0.36140491289E+02 -0.85983596657E+01 -0.52555813419E+03  0.53303936038E+03  0.80867424884E+02 0.  0.
         -6    2    1    2    0  502 -0.25868662106E+02 -0.53841602590E+02 -0.72008735333E+03  0.74082268098E+03  0.16347581586E+03 0.  0.
        -24    2    5    5    0    0 -0.17283950445E+02  0.24993125995E+02 -0.49156298979E+03  0.49888449375E+03  0.79549820140E+02 0.  0.
          5    1    3    3  501    0  0.62009153395E+02  0.62439962256E+02 -0.32941521734E+03  0.34099906071E+03  0.47000000000E+01 0. -1.
        -11    1    4    4    0    0  0.11309473049E+02  0.18483727542E+02 -0.30671452736E+03  0.30747902962E+03  0.00000000000E+00 0.  1.
         12    1    4    4    0    0 -0.47449964338E+02 -0.27082087207E+02 -0.21884360683E+03  0.22556033076E+03  0.00000000000E+00 0. -1.
         -5    1    5    5    0  502 -0.85847116608E+01 -0.78834728586E+02 -0.22852436354E+03  0.24193818723E+03  0.47000000000E+01 0.  1.
         13    1    6    6    0    0  0.14615616554E+02  0.78618683850E+01 -0.20246118848E+02  0.26178818731E+02  0.00000000000E+00 0. -1.
        -14    1    6    6    0    0 -0.31899566999E+02  0.17131257610E+02 -0.47131687094E+03  0.47270567502E+03  0.00000000000E+00 0.  1.
</event>
<event>
12    1  0.8133506E-002  0.1980904E+03  0.7818608E-02  0.1151864E+00
         21   -1    0    0  503  502  0.00000000000E+00  0.00000000000E+00  0.43650162455E+03  0.43650162455E+03  0.00000000000E+00 0.  1.
         21   -1    0    0  501  503 -0.00000000000E+00 -0.00000000000E+00 -0.17733606112E+03  0.17733606112E+03  0.00000000000E+00 0.  1.
          6    2    1    2  501    0 -0.10260629437E+02 -0.96323478385E+02 -0.87621445827E+02  0.21446190139E+03  0.17009672652E+03 0.  0.
         24    2    3    3    0    0  0.14584850692E+02 -0.11281270693E+03 -0.10919793524E+03  0.17735627599E+03  0.81188883839E+02 0.  0.
         -6    2    1    2    0  502  0.10260629437E+02  0.96323478385E+02  0.34678700926E+03  0.39937578428E+03  0.17278974009E+03 0.  0.
        -24    2    5    5    0    0 -0.30465636946E+01  0.20919189829E+02  0.55159880862E+02  0.97827512630E+02  0.77978944064E+02 0.  0.
          5    1    3    3  501    0 -0.24845480129E+02  0.16489228542E+02  0.21576489411E+02  0.37105625397E+02  0.47000000000E+01 0. -1.
        -11    1    4    4    0    0  0.39667486389E+02 -0.29136681840E+02 -0.21941690897E+02  0.53887786227E+02  0.00000000000E+00 0.  1.
         12    1    4    4    0    0 -0.25082635697E+02 -0.83676025088E+02 -0.87256244342E+02  0.12346848976E+03  0.00000000000E+00 0. -1.
         -5    1    5    5    0  502  0.13307193132E+02  0.75404288556E+02  0.29162712839E+03  0.30154827165E+03  0.47000000000E+01 0.  1.
         11    1    6    6    0    0  0.58342960656E+01  0.47617024274E+02  0.18048125852E+02  0.51255778777E+02  0.00000000000E+00 0. -1.
        -12    1    6    6    0    0 -0.88808597602E+01 -0.26697834445E+02  0.37111755010E+02  0.46571733853E+02  0.00000000000E+00 0.  1.
</event>
<event>
12    1  0.8133506E-002  0.2209252E+03  0.7818608E-02  0.1134845E+00
         21   -1    0    0  503  502  0.00000000000E+00  0.00000000000E+00  0.15117029926E+03  0.15117029926E+03  0.00000000000E+00 0.  1.
         21   -1    0    0  501  503 -0.00000000000E+00 -0.00000000000E+00 -0.16654438110E+04  0.16654438110E+04  0.00000000000E+00 0.  1.
          6    2    1    2  501    0  0.10172399556E+02 -0.12377164125E+03 -0.15792870984E+04  0.15946647583E+04  0.18271577718E+03 0.  0.
         24    2    3    3    0    0  0.24612599132E+02 -0.71687144931E+02 -0.43367489532E+03  0.44776863222E+03  0.81719069901E+02 0.  0.
         -6    2    1    2    0  502 -0.10172399556E+02  0.12377164125E+03  0.65013586635E+02  0.22194935201E+03  0.17208094467E+03 0.  0.
        -24    2    5    5    0    0 -0.69337101464E+02  0.10235526479E+03  0.53191166896E+02  0.15775447105E+03  0.82297867717E+02 0.  0.
          5    1    3    3  501    0 -0.14440199576E+02 -0.52084496324E+02 -0.11456122031E+04  0.11468961261E+04  0.47000000000E+01 0. -1.
        -11    1    4    4    0    0  0.22914081752E+02 -0.52601004401E+02 -0.42077664898E+03  0.42467035349E+03  0.00000000000E+00 0.  1.
         12    1    4    4    0    0  0.16985173798E+01 -0.19086140530E+02 -0.12898246337E+02  0.23098278727E+02  0.00000000000E+00 0. -1.
         -5    1    5    5    0  502  0.59164701909E+02  0.21416376462E+02  0.11822419739E+02  0.64194880958E+02  0.47000000000E+01 0.  1.
         13    1    6    6    0    0 -0.34592749233E+02  0.53089768913E+02 -0.16627513930E+02  0.65510732573E+02  0.00000000000E+00 0. -1.
        -14    1    6    6    0    0 -0.34744352231E+02  0.49265495879E+02  0.69818680826E+02  0.92243738478E+02  0.00000000000E+00 0.  1.
</event>
<event>
12    1  0.8133506E-002  0.1742835E+03  0.7818608E-02  0.1174118E+00
         21   -1    0    0  503  502  0.00000000000E+00  0.00000000000E+00  0.50790239075E+03  0.50790239075E+03  0.00000000000E+00 0. -1.
         21   -1    0    0  501  503 -0.00000000000E+00 -0.00000000000E+00 -0.81943731085E+02  0.81943731085E+02  0.00000000000E+00 0. -1.
          6    2    1    2  501    0 -0.56379554618E+01  0.22677902833E+02  0.36817836241E+03  0.40623433555E+03  0.17007338126E+03 0.  0.
         24    2    3    3    0    0 -0.26728660073E+02 -0.40720422884E+02  0.14369394663E+03  0.17197057725E+03  0.80952795089E+02 0.  0.
         -6    2    1    2    0  502  0.56379554618E+01 -0.22677902833E+02  0.57780297254E+02  0.18361178628E+03  0.17270973190E+03 0.  0.
        -24    2    5    5    0    0 -0.50646387207E+02 -0.55449756991E+02  0.48991465212E+02  0.11772358383E+03  0.76282019098E+02 0.  0.
          5    1    3    3  501    0  0.21090704611E+02  0.63398325717E+02  0.22448441577E+03  0.23426375829E+03  0.47000000000E+01 0. -1.
        -13    1    4    4    0    0 -0.11586182802E+02 -0.37648572884E+02  0.15014559448E+03  0.15522678317E+03  0.00000000000E+00 0.  1.
         14    1    4    4    0    0 -0.15142477271E+02 -0.30718500001E+01 -0.64516478468E+01  0.16743794082E+02  0.00000000000E+00 0. -1.
         -5    1    5    5    0  502  0.56284342669E+02  0.32771854158E+02  0.87888320424E+01  0.65888202459E+02  0.47000000000E+01 0.  1.
         11    1    6    6    0    0  0.16565336800E+02 -0.31663196748E+02  0.17251826657E+02  0.39681153393E+02  0.00000000000E+00 0. -1.
        -12    1    6    6    0    0 -0.67211724007E+02 -0.23786560244E+02  0.31739638555E+02  0.78042430433E+02  0.00000000000E+00 0.  1.
</event>
<event>
12    1  0.8133506E-002  0.2188909E+03  0.7818608E-02  0.1135176E+00
         21   -1    0    0  503  502  0.00000000000E+00  0.00000000000E+00  0.62695065442E+02  0.62695065442E+02  0.00000000000E+00 0. -1.
         21   -1    0    0  501  503 -0.00000000000E+00 -0.00000000000E+00 -0.11432978685E+04  0.11432978685E+04  0.00000000000E+00 0. -1.
          6    2    1    2  501    0  0.13290487950E+03 -0.19451366934E+02 -0.89341131426E+03  0.91983530564E+03  0.17283272371E+03 0.  0.
         24    2    3    3    0    0  0.74706646889E+02  0.42821748412E+02 -0.67840123405E+03  0.68849918704E+03  0.79925659067E+02 0.  0.
         -6    2    1    2    0  502 -0.13290487950E+03  0.19451366934E+02 -0.18719148878E+03  0.28615762828E+03  0.16971585690E+03 0.  0.
        -24    2    5    5    0    0 -0.11942927160E+03 -0.85217412063E+01 -0.60800886463E+02  0.15592414126E+03  0.79244047385E+02 0.  0.
          5    1    3    3  501    0  0.58198232611E+02 -0.62273115346E+02 -0.21501008022E+03  0.23133611860E+03  0.47000000000E+01 0. -1.
        -13    1    4    4    0    0 -0.12590260216E+02 -0.81331482896E+01 -0.57366450968E+02  0.59292262986E+02  0.00000000000E+00 0.  1.
         14    1    4    4    0    0  0.87296907104E+02  0.50954896701E+02 -0.62103478308E+03  0.62920692406E+03  0.00000000000E+00 0. -1.
         -5    1    5    5    0  502 -0.13475607899E+02  0.27973108141E+02 -0.12639060232E+03  0.13023348702E+03  0.47000000000E+01 0.  1.
         11    1    6    6    0    0 -0.11741187940E+03  0.86181537698E+01 -0.31418248231E+02  0.12184797216E+03  0.00000000000E+00 0. -1.
        -12    1    6    6    0    0 -0.20173922008E+01 -0.17139894976E+02 -0.29382638231E+02  0.34076169100E+02  0.00000000000E+00 0.  1.
</event>
<event>
12    1  0.8133506E-002  0.2056936E+03  0.7818608E-02  0.1145386E+00
         21   -1    0    0  501  502  0.00000000000E+00  0.00000000000E+00  0.15762924024E+03  0.15762924024E+03  0.00000000000E+00 0.  1.
         21   -1    0    0  502  503 -0.00000000000E+00 -0.00000000000E+00 -0.37222446020E+03  0.37222446020E+03  0.00000000000E+00 0.  1.
         -6    2    1    2    0  503 -0.86637257546E+02  0.74497483995E+02 -0.24842539129E+03  0.32139668641E+03  0.16889276326E+03 0.  0.
        -24    2    3    3    0    0 -0.28306788200E+02  0.42549199726E+02 -0.42154552239E+02  0.10461826137E+03  0.80970770537E+02 0.  0.
          6    2    1    2  501    0  0.86637257546E+02 -0.74497483995E+02  0.33830171337E+02  0.20845701402E+03  0.17103788085E+03 0.  0.
         24    2    5    5    0    0  0.12154219331E+03 -0.86065288581E+02  0.29744380004E+02  0.17116154064E+03  0.78941789943E+02 0.  0.
          5    1    5    5  501    0 -0.34904935767E+02  0.11567804586E+02  0.40857913330E+01  0.37295473380E+02  0.47000000000E+01 0. -1.
        -11    1    6    6    0    0  0.34949991893E+02 -0.46719571399E+01 -0.21982118063E+02  0.41551686263E+02  0.00000000000E+00 0.  1.
         12    1    6    6    0    0  0.86592201420E+02 -0.81393331441E+02  0.51726498067E+02  0.12960985438E+03  0.00000000000E+00 0. -1.
         -5    1    3    3    0  503 -0.58330469346E+02  0.31948284269E+02 -0.20627083906E+03  0.21677842505E+03  0.47000000000E+01 0.  1.
         11    1    4    4    0    0 -0.33122206572E+02 -0.13862114694E+02 -0.35246860520E+01  0.36078556010E+02  0.00000000000E+00 0. -1.
        -12    1    4    4    0    0  0.48154183721E+01  0.56411314421E+02 -0.38629866187E+02  0.68539705357E+02  0.00000000000E+00 0.  1.
</event>
<event>
12    1  0.8133506E-002  0.2138006E+03  0.7818608E-02  0.1138704E+00
         21   -1    0    0  503  502  0.00000000000E+00  0.00000000000E+00  0.99638703548E+02  0.99638703548E+02  0.00000000000E+00 0. -1.
         21   -1    0    0  501  503 -0.00000000000E+00 -0.00000000000E+00 -0.45860019444E+03  0.45860019444E+03  0.00000000000E+00 0. -1.
          6    2    1    2  501    0 -0.11641287466E+03  0.49462144216E+02 -0.19284366186E+03  0.28748840868E+03  0.17164628195E+03 0.  0.
         24    2    3    3    0    0 -0.84702046093E+02 -0.39104373604E+02 -0.84344264166E+02  0.14380885541E+03  0.69738392219E+02 0.  0.
         -6    2    1    2    0  502  0.11641287466E+03 -0.49462144216E+02 -0.16611782904E+03  0.27075048931E+03  0.17237236798E+03 0.  0.
        -24    2    5    5    0    0  0.50340095105E+02 -0.88110497086E+02 -0.66570021874E+02  0.14508759388E+03  0.79506334430E+02 0.  0.
          5    1    3    3  501    0 -0.31710828566E+02  0.88566517820E+02 -0.10849939769E+03  0.14367955327E+03  0.47000000000E+01 0. -1.
        -11    1    4    4    0    0 -0.78256642214E+02 -0.27057871670E+02 -0.30472353560E+02  0.88231484184E+02  0.00000000000E+00 0.  1.
         12    1    4    4    0    0 -0.64454038791E+01 -0.12046501934E+02 -0.53871910605E+02  0.55577371225E+02  0.00000000000E+00 0. -1.
         -5    1    5    5    0  502  0.66072779554E+02  0.38648352870E+02 -0.99547807162E+02  0.12566289543E+03  0.47000000000E+01 0.  1.
         11    1    6    6    0    0  0.29221076486E+02 -0.63064474927E+02  0.15242324327E+01  0.69522101474E+02  0.00000000000E+00 0. -1.
        -12    1    6    6    0    0  0.21119018619E+02 -0.25046022160E+02 -0.68094254307E+02  0.75565492409E+02  0.00000000000E+00 0.  1.
</event>
<event>
12    1  0.8133506E-002  0.2089937E+03  0.7818608E-02  0.1142426E+00
         21   -1    0    0  503  502  0.00000000000E+00  0.00000000000E+00  0.11470425731E+03  0.11470425731E+03  0.00000000000E+00 0.  1.
         21   -1    0    0  501  503 -0.00000000000E+00 -0.00000000000E+00 -0.79764860331E+03  0.79764860331E+03  0.00000000000E+00 0.  1.
          6    2    1    2  501    0  0.42507324973E+02  0.11032122385E+03 -0.67158457794E+03  0.70335211516E+03  0.17233893195E+03 0.  0.
         24    2    3    3    0    0  0.46113800753E+02  0.11784197762E+03 -0.67643293805E+03  0.69262061942E+03  0.78412935512E+02 0.  0.
         -6    2    1    2    0  502 -0.42507324973E+02 -0.11032122385E+03 -0.11359768056E+02  0.20900074547E+03  0.17197273670E+03 0.  0.
        -24    2    5    5    0    0  0.26708472930E+02 -0.92090222855E+02 -0.31123051924E+02  0.13459729483E+03  0.89184279691E+02 0.  0.
          5    1    3    3  501    0 -0.36064757801E+01 -0.75207537713E+01  0.48483601181E+01  0.10731495733E+02  0.47000000000E+01 0. -1.
        -13    1    4    4    0    0  0.12440259596E+02  0.11185030775E+03 -0.46406074702E+03  0.47751191433E+03  0.00000000000E+00 0.  1.
         14    1    4    4    0    0  0.33673541158E+02  0.59916698692E+01 -0.21237219103E+03  0.21510870509E+03  0.00000000000E+00 0. -1.
         -5    1    5    5    0  502 -0.69215797904E+02 -0.18231000991E+02  0.19763283868E+02  0.74403450631E+02  0.47000000000E+01 0.  1.
         11    1    6    6    0    0  0.41100882474E+02 -0.74270747878E+01  0.36950273211E+01  0.41929669769E+02  0.00000000000E+00 0. -1.
        -12    1    6    6    0    0 -0.14392409543E+02 -0.84663148067E+02 -0.34818079245E+02  0.92667625066E+02  0.00000000000E+00 0.  1.
</event>
<event>
12    1  0.8133506E-002  0.2021648E+03  0.7818608E-02  0.1148075E+00
         21   -1    0    0  501  502  0.00000000000E+00  0.00000000000E+00  0.33784699141E+03  0.33784699141E+03  0.00000000000E+00 0. -1.
         21   -1    0    0  502  503 -0.00000000000E+00 -0.00000000000E+00 -0.12296930752E+03  0.12296930752E+03  0.00000000000E+00 0. -1.
         -6    2    1    2    0  503 -0.10149352921E+03  0.32120524676E+02  0.13998790310E+03  0.24590079872E+03  0.17186600949E+03 0.  0.
        -24    2    3    3    0    0 -0.12641046484E+03  0.17294753271E+02  0.58712803515E+02  0.15948095729E+03  0.75553082869E+02 0.  0.
          6    2    1    2  501    0  0.10149352921E+03 -0.32120524676E+02  0.74889780787E+02  0.21491550021E+03  0.17101908779E+03 0.  0.
         24    2    5    5    0    0  0.21062043781E+02  0.40230068229E+02  0.20161424424E+02  0.93584897591E+02  0.79306884596E+02 0.  0.
          5    1    5    5  501    0  0.80431485430E+02 -0.72350592905E+02  0.54728356362E+02  0.12133060262E+03  0.47000000000E+01 0. -1.
        -13    1    6    6    0    0 -0.26256735525E+02 -0.34289399977E+01  0.10479462193E+02  0.28477937386E+02  0.00000000000E+00 0.  1.
         14    1    6    6    0    0  0.47318779306E+02  0.43659008227E+02  0.96819622307E+01  0.65106960204E+02  0.00000000000E+00 0. -1.
         -5    1    3    3    0  503  0.24916935627E+02  0.14825771405E+02  0.81275099589E+02  0.86419841425E+02  0.47000000000E+01 0.  1.
         11    1    4    4    0    0 -0.63368420753E+02 -0.60493793410E+01 -0.87344025561E+01  0.64252949560E+02  0.00000000000E+00 0. -1.
        -12    1    4    4    0    0 -0.63042044085E+02  0.23344132612E+02  0.67447206071E+02  0.95228007732E+02  0.00000000000E+00 0.  1.
</event>
<event>
12    1  0.8133506E-002  0.2084265E+03  0.7818608E-02  0.1142827E+00
         21   -1    0    0  503  502  0.00000000000E+00  0.00000000000E+00  0.14420648522E+03  0.14420648522E+03  0.00000000000E+00 0. -1.
         21   -1    0    0  501  503 -0.00000000000E+00 -0.00000000000E+00 -0.30326204704E+03  0.30326204704E+03  0.00000000000E+00 0.  1.
          6    2    1    2  501    0 -0.32887335286E+02 -0.11251843126E+03 -0.61018736928E+02  0.21717478877E+03  0.17233580135E+03 0.  0.
         24    2    3    3    0    0  0.18557822940E+02 -0.12955449805E+03 -0.39273803540E+02  0.15859352893E+03  0.80502888251E+02 0.  0.
         -6    2    1    2    0  502  0.32887335286E+02  0.11251843126E+03 -0.98036824894E+02  0.23029374349E+03  0.17228469190E+03 0.  0.
        -24    2    5    5    0    0 -0.31013031732E+02  0.21912706494E+02 -0.61220787231E+02  0.11337426310E+03  0.87542926055E+02 0.  0.
          5    1    3    3  501    0 -0.51445158226E+02  0.17036066792E+02 -0.21744933388E+02  0.58581259842E+02  0.47000000000E+01 0. -1.
        -11    1    4    4    0    0 -0.40813753958E+01 -0.91030806545E+02 -0.60241537690E+02  0.10923510529E+03  0.00000000000E+00 0.  1.
         12    1    4    4    0    0  0.22639198336E+02 -0.38523691506E+02  0.20967734150E+02  0.49358423637E+02  0.00000000000E+00 0. -1.
         -5    1    5    5    0  502  0.63900367017E+02  0.90605724765E+02 -0.36816037662E+02  0.11691948039E+03  0.47000000000E+01 0.  1.
         11    1    6    6    0    0  0.18565341439E+02  0.36254187188E+02 -0.13036254647E+02  0.42766598258E+02  0.00000000000E+00 0. -1.
        -12    1    6    6    0    0 -0.49578373170E+02 -0.14341480694E+02 -0.48184532584E+02  0.70607664846E+02  0.00000000000E+00 0.  1.
</event>
<event>
12    1  0.8133506E-002  0.2345361E+03  0.7818608E-02  0.1126204E+00
         21   -1    0    0  501  502  0.00000000000E+00  0.00000000000E+00  0.71324530430E+03  0.71324530430E+03  0.00000000000E+00 0. -1.
         21   -1    0    0  502  503 -0.00000000000E+00 -0.00000000000E+00 -0.10406633500E+03  0.10406633500E+03  0.00000000000E+00 0. -1.
         -6    2    1    2    0  503 -0.23108927138E+02 -0.13510969086E+03  0.85585903299E+02  0.24966401688E+03  0.19031164810E+03 0.  0.
        -24    2    3    3    0    0 -0.16759204155E+02 -0.13370630988E+03  0.13062819935E+03  0.20391265741E+03  0.79739558320E+02 0.  0.
          6    2    1    2  501    0  0.23108927138E+02  0.13510969086E+03  0.52359306600E+03  0.56764762241E+03  0.17112998974E+03 0.  0.
         24    2    5    5    0    0  0.44115112468E+02  0.38186306801E+02  0.38254459139E+03  0.39515946517E+03  0.80039373651E+02 0.  0.
          5    1    5    5  501    0 -0.21006185330E+02  0.96923384062E+02  0.14104847461E+03  0.17248815724E+03  0.47000000000E+01 0. -1.
        -13    1    6    6    0    0  0.82719277274E+01  0.19887756726E+02  0.17090054393E+02  0.27495774495E+02  0.00000000000E+00 0.  1.
         14    1    6    6    0    0  0.35843184740E+02  0.18298550076E+02  0.36545453700E+03  0.36766369067E+03  0.00000000000E+00 0. -1.
         -5    1    3    3    0  503 -0.63497229832E+01 -0.14033809858E+01 -0.45042296051E+02  0.45751359474E+02  0.47000000000E+01 0.  1.
         13    1    4    4    0    0 -0.12289366485E+02 -0.12967525525E+03  0.79859116538E+02  0.15278801932E+03  0.00000000000E+00 0. -1.
        -14    1    4    4    0    0 -0.44698376698E+01 -0.40310546253E+01  0.50769082812E+02  0.51124638089E+02  0.00000000000E+00 0.  1.
</event>
<event>
12    1  0.8133506E-002  0.1812971E+03  0.7818608E-02  0.1167476E+00
         21   -1    0    0  503  502  0.00000000000E+00  0.00000000000E+00  0.11570852970E+03  0.11570852970E+03  0.00000000000E+00 0. -1.
         21   -1    0    0  501  503 -0.00000000000E+00 -0.00000000000E+00 -0.28222582822E+03  0.28222582822E+03  0.00000000000E+00 0. -1.
          6    2    1    2  501    0 -0.55606499201E+02 -0.10194316532E+02 -0.60172687350E+02  0.19102200537E+03  0.17225750314E+03 0.  0.
         24    2    3    3    0    0 -0.49823702571E+02  0.72578318889E+01  0.16061398316E+02  0.11246155706E+03  0.99270115536E+02 0.  0.
         -6    2    1    2    0  502  0.55606499201E+02  0.10194316532E+02 -0.10634461117E+03  0.20691235255E+03  0.16824844269E+03 0.  0.
        -24    2    5    5    0    0 -0.24330984251E+02  0.18626740986E+02 -0.92674282780E+02  0.12524182591E+03  0.78473180096E+02 0.  0.
          5    1    3    3  501    0 -0.57827966300E+01 -0.17452148421E+02 -0.76234085666E+02  0.78560448310E+02  0.47000000000E+01 0. -1.
        -13    1    4    4    0    0 -0.35589980808E+02 -0.43778821444E+02  0.18626143506E+02  0.59415193031E+02  0.00000000000E+00 0.  1.
         14    1    4    4    0    0 -0.14233721764E+02  0.51036653333E+02 -0.25647451906E+01  0.53046364028E+02  0.00000000000E+00 0. -1.
         -5    1    5    5    0  502  0.79937483452E+02 -0.84324244542E+01 -0.13670328394E+02  0.81670526638E+02  0.47000000000E+01 0.  1.
         11    1    6    6    0    0 -0.14465818215E+02 -0.30674274172E+02 -0.35201714086E+02  0.48880790371E+02  0.00000000000E+00 0. -1.
        -12    1    6    6    0    0 -0.98651660356E+01  0.49301015158E+02 -0.57472568694E+02  0.76361035540E+02  0.00000000000E+00 0.  1.
</event>
<event>
12    1  0.8133506E-002  0.1829567E+03  0.7818608E-02  0.1165309E+00
         21   -1    0    0  501  502  0.00000000000E+00  0.00000000000E+00  0.44038553383E+03  0.44038553383E+03  0.00000000000E+00 0.  1.
         21   -1    0    0  502  503 -0.00000000000E+00 -0.00000000000E+00 -0.78010151794E+02  0.78010151794E+02  0.00000000000E+00 0.  1.
         -6    2    1    2    0  503 -0.56419360566E+02  0.20030346172E+02  0.13464789331E+03  0.22716340217E+03  0.17288376760E+03 0.  0.
        -24    2    3    3    0    0  0.25274891960E+02 -0.91336295702E+01  0.23373049898E+02  0.85994463826E+02  0.78271993679E+02 0.  0.
          6    2    1    2  501    0  0.56419360566E+02 -0.20030346172E+02  0.22772748873E+03  0.29123228346E+03  0.17138283108E+03 0.  0.
         24    2    5    5    0    0  0.66280803056E+02  0.33466394972E+02  0.20522713924E+03  0.23217718132E+03  0.79214395167E+02 0.  0.
          5    1    5    5  501    0 -0.98614424895E+01 -0.53496741143E+02  0.22500349495E+02  0.59055102136E+02  0.47000000000E+01 0. -1.
        -13    1    6    6    0    0  0.29021100345E+02 -0.15353959001E+02  0.13476717693E+03  0.13870890491E+03  0.00000000000E+00 0.  1.
         14    1    6    6    0    0  0.37259702711E+02  0.48820353973E+02  0.70459962303E+02  0.93468276414E+02  0.00000000000E+00 0. -1.
         -5    1    3    3    0  503 -0.81694252526E+02  0.29163975742E+02  0.11127484341E+03  0.14116893834E+03  0.47000000000E+01 0.  1.
         11    1    4    4    0    0  0.62070698761E+01  0.13531307924E+01  0.50680260945E+02  0.51076878613E+02  0.00000000000E+00 0. -1.
        -12    1    4    4    0    0  0.19067822084E+02 -0.10486760363E+02 -0.27307211047E+02  0.34917585213E+02  0.00000000000E+00 0.  1.
</event>
<event>
12    1  0.8133506E-002  0.1942670E+03  0.7818608E-02  0.1155252E+00
         21   -1    0    0  503  502  0.00000000000E+00  0.00000000000E+00  0.11768080857E+03  0.11768080857E+03  0.00000000000E+00 0. -1.
         21   -1    0    0  501  503 -0.00000000000E+00 -0.00000000000E+00 -0.55556109414E+03  0.55556109414E+03  0.00000000000E+00 0.  1.
          6    2    1    2  501    0  0.56959938805E+02 -0.63689344172E+02 -0.44067911828E+03  0.48159918107E+03  0.17446752916E+03 0.  0.
         24    2    3    3    0    0 -0.12407365942E+02 -0.10624693499E+02 -0.33163751072E+03  0.34181419511E+03  0.81158355248E+02 0.  0.
         -6    2    1    2    0  502 -0.56959938805E+02  0.63689344172E+02  0.27988327004E+01  0.19164272164E+03  0.17151773116E+03 0.  0.
        -24    2    5    5    0    0 -0.89655583372E+02  0.30936782653E+02 -0.39792315922E+02  0.12857267010E+03  0.77151117557E+02 0.  0.
          5    1    3    3  501    0  0.69367304747E+02 -0.53064650673E+02 -0.10904160756E+03  0.13978498596E+03  0.47000000000E+01 0. -1.
        -13    1    4    4    0    0  0.10546510314E+02  0.18596029746E+02 -0.26210782479E+03  0.26297823677E+03  0.00000000000E+00 0.  1.
         14    1    4    4    0    0 -0.22953876256E+02 -0.29220723245E+02 -0.69529685929E+02  0.78835958341E+02  0.00000000000E+00 0. -1.
         -5    1    5    5    0  502  0.32695644566E+02  0.32752561519E+02  0.42591148622E+02  0.63070051535E+02  0.47000000000E+01 0.  1.
         13    1    6    6    0    0 -0.31331347615E+02 -0.17665057020E+02 -0.38435843467E+02  0.52640494355E+02  0.00000000000E+00 0. -1.
        -14    1    6    6    0    0 -0.58324235756E+02  0.48601839674E+02 -0.13564724542E+01  0.75932175747E+02  0.00000000000E+00 0.  1.
</event>
<event>
12    1  0.8133506E-002  0.1796766E+03  0.7818608E-02  0.1168236E+00
         21   -1    0    0  503  502  0.00000000000E+00  0.00000000000E+00  0.12541764084E+04  0.12541764084E+04  0.00000000000E+00 0. -1.
         21   -1    0    0  501  503 -0.00000000000E+00 -0.00000000000E+00 -0.25743573296E+02  0.25743573296E+02  0.00000000000E+00 0. -1.
          6    2    1    2  501    0  0.31319985906E+01 -0.53063492754E+02  0.64749255338E+03  0.67182846451E+03  0.17111789903E+03 0.  0.
         24    2    3    3    0    0 -0.20751446447E+02  0.36335237327E+02  0.33783871080E+03  0.34861004903E+03  0.75120568176E+02 0.  0.
         -6    2    1    2    0  502 -0.31319985906E+01  0.53063492754E+02  0.58094028174E+03  0.60809151720E+03  0.17163373405E+03 0.  0.
        -24    2    5    5    0    0 -0.45056646798E+02  0.74895369036E+01  0.48583366557E+03  0.49450445800E+03  0.80088162623E+02 0.  0.
          5    1    3    3  501    0  0.23883445038E+02 -0.89398730081E+02  0.30965384257E+03  0.32321841548E+03  0.47000000000E+01 0. -1.
        -13    1    4    4    0    0 -0.13993197461E+02 -0.17728236495E+02  0.40969137669E+02  0.46782156703E+02  0.00000000000E+00 0.  1.
         14    1    4    4    0    0 -0.67582489857E+01  0.54063473822E+02  0.29686957313E+03  0.30182789232E+03  0.00000000000E+00 0. -1.
         -5    1    5    5    0  502  0.41924648208E+02  0.45573955851E+02  0.95106616167E+02  0.11358705920E+03  0.47000000000E+01 0.  1.
         11    1    6    6    0    0 -0.40613651810E+02  0.41196592156E+02  0.32626721026E+03  0.33135618360E+03  0.00000000000E+00 0. -1.
        -12    1    6    6    0    0 -0.44429949889E+01 -0.33707055252E+02  0.15956645531E+03  0.16314827440E+03  0.00000000000E+00 0.  1.
</event>
<event>
12    1  0.8133506E-002  0.3364382E+03  0.7818608E-02  0.1068340E+00
         21   -1    0    0  503  502  0.00000000000E+00  0.00000000000E+00  0.67890071194E+03  0.67890071194E+03  0.00000000000E+00 0.  1.
         21   -1    0    0  501  503 -0.00000000000E+00 -0.00000000000E+00 -0.17205211321E+03  0.17205211321E+03  0.00000000000E+00 0.  1.
          6    2    1    2  501    0 -0.12959735534E+03  0.25842729184E+03  0.17796915296E+03  0.38047182106E+03  0.17177208019E+03 0.  0.
         24    2    3    3    0    0 -0.12461794266E+03  0.21625297075E+03  0.77785505609E+02  0.27155753775E+03  0.73470622961E+02 0.  0.
         -6    2    1    2    0  502  0.12959735534E+03 -0.25842729184E+03  0.32887944578E+03  0.47048100409E+03  0.17207715037E+03 0.  0.
        -24    2    5    5    0    0  0.15325118913E+03 -0.22365433444E+03  0.32086034813E+03  0.42741061581E+03  0.78875111567E+02 0.  0.
          5    1    3    3  501    0 -0.49794126766E+01  0.42174321093E+02  0.10018364735E+03  0.10891428330E+03  0.47000000000E+01 0. -1.
        -11    1    4    4    0    0 -0.40684941186E+02  0.49174461511E+02  0.52972111949E+02  0.82942370044E+02  0.00000000000E+00 0.  1.
         12    1    4    4    0    0 -0.83933001474E+02  0.16707850924E+03  0.24813393659E+02  0.18861516771E+03  0.00000000000E+00 0. -1.
         -5    1    5    5    0  502 -0.23653833793E+02 -0.34772957403E+02  0.80190976503E+01  0.43070388282E+02  0.47000000000E+01 0.  1.
         13    1    6    6    0    0  0.37720459442E+02 -0.12535557867E+02  0.29444957710E+02  0.49466946602E+02  0.00000000000E+00 0. -1.
        -14    1    6    6    0    0  0.11553072969E+03 -0.21111877657E+03  0.29141539042E+03  0.37794366921E+03  0.00000000000E+00 0.  1.
</event>
<event>
12    1  0.8133506E-002  0.1761739E+03  0.7818608E-02  0.1171841E+00
         21   -1    0    0  503  502  0.00000000000E+00  0.00000000000E+00  0.28095781054E+04  0.28095781054E+04  0.00000000000E+00 0.  1.
         21   -1    0    0  501  503 -0.00000000000E+00 -0.00000000000E+00 -0.19080029453E+02  0.19080029453E+02  0.00000000000E+00 0.  1.
          6    2    1    2  501    0  0.53656396039E+01 -0.34716989004E+02  0.47609527229E+03  0.50764549420E+03  0.17263597559E+03 0.  0.
         24    2    3    3    0    0 -0.13856635277E+02 -0.71551870503E+02  0.14160070462E+03  0.17054757052E+03  0.61024894492E+02 0.  0.
         -6    2    1    2    0  502 -0.53656396039E+01  0.34716989004E+02  0.23144028037E+04  0.23210126407E+04  0.17147968130E+03 0.  0.
        -24    2    5    5    0    0 -0.64730451551E+02  0.90939685714E+01  0.11543829184E+04  0.11591826426E+04  0.82654371376E+02 0.  0.
          5    1    3    3  501    0  0.19222274881E+02  0.36834881498E+02  0.33449456767E+03  0.33709792368E+03  0.47000000000E+01 0. -1.
        -13    1    4    4    0    0 -0.35237874921E+02 -0.30681147794E+02  0.52963748726E+02  0.70627185545E+02  0.00000000000E+00 0.  1.
         14    1    4    4    0    0  0.21381239644E+02 -0.40870722709E+02  0.88636955891E+02  0.99920384972E+02  0.00000000000E+00 0. -1.
         -5    1    5    5    0  502  0.59364811947E+02  0.25623020433E+02  0.11600198853E+04  0.11618299980E+04  0.47000000000E+01 0.  1.
         13    1    6    6    0    0  0.13432582676E+01 -0.74370248202E+01  0.88965108412E+01  0.11673113813E+02  0.00000000000E+00 0. -1.
        -14    1    6    6    0    0 -0.66073709819E+02  0.16530993392E+02  0.11454864076E+04  0.11475095288E+04  0.00000000000E+00 0.  1.
</event>
<event>
12    1  0.8133506E-002  0.2687184E+03  0.7818608E-02  0.1102063E+00
         21   -1    0    0  503  502  0.00000000000E+00  0.00000000000E+00  0.23642701540E+04  0.23642701540E+04  0.00000000000E+00 0. -1.
         21   -1    0    0  501  503 -0.00000000000E+00 -0.00000000000E+00 -0.39141987746E+02  0.39141987746E+02  0.00000000000E+00 0.  1.
          6    2    1    2  501    0 -0.16952852564E+03 -0.11778144916E+03  0.17276311540E+04  0.17484046997E+04  0.17203836446E+03 0.  0.
         24    2    3    3    0    0 -0.95147259998E+02  0.13935370459E+01  0.96425619545E+03  0.97219682331E+03  0.79509180303E+02 0.  0.
         -6    2    1    2    0  502  0.16952852564E+03  0.11778144916E+03  0.59749701219E+03  0.65500744199E+03  0.17152165671E+03 0.  0.
        -24    2    5    5    0    0  0.15543458409E+03  0.42055317099E+02  0.31521322972E+03  0.36236549335E+03  0.77593884730E+02 0.  0.
          5    1    3    3  501    0 -0.74381265640E+02 -0.11917498621E+03  0.76337495858E+03  0.77620787641E+03  0.47000000000E+01 0. -1.
        -11    1    4    4    0    0  0.49488237122E+01 -0.15914935410E+02  0.27395694886E+03  0.27446345085E+03  0.00000000000E+00 0.  1.
         12    1    4    4    0    0 -0.10009608371E+03  0.17308472456E+02  0.69029924659E+03  0.69773337245E+03  0.00000000000E+00 0. -1.
         -5    1    5    5    0  502  0.14093941549E+02  0.75726132060E+02  0.28228378246E+03  0.29264194864E+03  0.47000000000E+01 0.  1.
         13    1    6    6    0    0  0.68223915111E+02 -0.20537886889E+02  0.11859261846E+03  0.13834925567E+03  0.00000000000E+00 0. -1.
        -14    1    6    6    0    0  0.87210668979E+02  0.62593203988E+02  0.19662061127E+03  0.22401623768E+03  0.00000000000E+00 0.  1.
</event>
<event>
12    1  0.8133506E-002  0.2936306E+03  0.7818608E-02  0.1090324E+00
         21   -1    0    0  501  502  0.00000000000E+00  0.00000000000E+00  0.89696825302E+02  0.89696825302E+02  0.00000000000E+00 0.  1.
         21   -1    0    0  502  503 -0.00000000000E+00 -0.00000000000E+00 -0.11516987721E+04  0.11516987721E+04  0.00000000000E+00 0. -1.
         -6    2    1    2    0  503 -0.21506649527E+03  0.49623030987E+02 -0.80152908860E+03  0.84888442615E+03  0.17158043738E+03 0.  0.
        -24    2    3    3    0    0 -0.55006507971E+02  0.57713379969E+02 -0.24861748842E+03  0.27319529051E+03  0.80426743442E+02 0.  0.
          6    2    1    2  501    0  0.21506649527E+03 -0.49623030987E+02 -0.26047285823E+03  0.39251117128E+03  0.19365657004E+03 0.  0.
         24    2    5    5    0    0  0.56170759293E+02 -0.97818736290E+02 -0.11651585004E+03  0.17270127358E+03  0.59381202566E+02 0.  0.
          5    1    5    5  501    0  0.15889573597E+03  0.48195705304E+02 -0.14395700819E+03  0.21980989770E+03  0.47000000000E+01 0. -1.
        -13    1    6    6    0    0  0.63787561212E+02 -0.10045062866E+03 -0.10532289923E+03  0.15890907736E+03  0.00000000000E+00 0.  1.
         14    1    6    6    0    0 -0.76168019189E+01  0.26318923736E+01 -0.11192950810E+02  0.13792196228E+02  0.00000000000E+00 0. -1.
         -5    1    3    3    0  503 -0.16005998730E+03 -0.80903489825E+01 -0.55291160018E+03  0.57568913564E+03  0.47000000000E+01 0.  1.
         11    1    4    4    0    0 -0.35402622952E+02 -0.65934782865E+01 -0.14703836287E+03  0.15138394837E+03  0.00000000000E+00 0. -1.
        -12    1    4    4    0    0 -0.19603885020E+02  0.64306858256E+02 -0.10157912555E+03  0.12181134214E+03  0.00000000000E+00 0.  1.
</event>
<event>
12    1  0.8133506E-002  0.2527453E+03  0.7818608E-02  0.1111685E+00
         21   -1    0    0  503  502  0.00000000000E+00  0.00000000000E+00  0.97814398704E+02  0.97814398704E+02  0.00000000000E+00 0. -1.
         21   -1    0    0  501  503 -0.00000000000E+00 -0.00000000000E+00 -0.66438262749E+03  0.66438262749E+03  0.00000000000E+00 0.  1.
          6    2    1    2  501    0  0.91976456079E+02  0.16035478029E+03 -0.33626739885E+03  0.42026331185E+03  0.17138309055E+03 0.  0.
         24    2    3    3    0    0  0.56254438549E+02  0.18274773087E+03 -0.29945274728E+03  0.36409467877E+03  0.79571931375E+02 0.  0.
         -6    2    1    2    0  502 -0.91976456079E+02 -0.16035478029E+03 -0.23030082994E+03  0.34193371435E+03  0.17235680636E+03 0.  0.
        -24    2    5    5    0    0 -0.10196057299E+03 -0.96804487682E+02 -0.85443547768E+02  0.18336497695E+03  0.80963248677E+02 0.  0.
          5    1    3    3  501    0  0.35722017530E+02 -0.22392950576E+02 -0.36814651566E+02  0.56168633078E+02  0.47000000000E+01 0. -1.
        -13    1    4    4    0    0  0.59990742797E+02  0.12133373195E+03 -0.14768211784E+03  0.20032666238E+03  0.00000000000E+00 0.  1.
         14    1    4    4    0    0 -0.37363042483E+01  0.61413998919E+02 -0.15177062944E+03  0.16376801640E+03  0.00000000000E+00 0. -1.
         -5    1    5    5    0  502  0.99841169122E+01 -0.63550292609E+02 -0.14485728217E+03  0.15856873740E+03  0.47000000000E+01 0.  1.
         11    1    6    6    0    0 -0.94810924466E+02 -0.61598976624E+02 -0.93302846204E+02  0.14659115399E+03  0.00000000000E+00 0. -1.
        -12    1    6    6    0    0 -0.71496485248E+01 -0.35205511058E+02  0.78592984362E+01  0.36773822956E+02  0.00000000000E+00 0.  1.
</event>
<event>
12    1  0.8133506E-002  0.1835110E+03  0.7818608E-02  0.1166285E+00
         21   -1    0    0  503  502  0.00000000000E+00  0.00000000000E+00  0.94833263321E+03  0.94833263321E+03  0.00000000000E+00 0.  1.
         21   -1    0    0  501  503 -0.00000000000E+00 -0.00000000000E+00 -0.35673561424E+02  0.35673561424E+02  0.00000000000E+00 0.  1.
          6    2    1    2  501    0  0.23213655426E+02  0.28879070160E+02  0.34225600940E+03  0.38481013081E+03  0.17194995293E+03 0.  0.
         24    2    3    3    0    0 -0.13339619862E+02  0.53241877245E+02  0.32209495630E+03  0.33624835195E+03  0.79404976964E+02 0.  0.
         -6    2    1    2    0  502 -0.23213655426E+02 -0.28879070160E+02  0.57040306239E+03  0.59919606383E+03  0.17973145198E+03 0.  0.
        -24    2    5    5    0    0  0.46834308963E+02  0.63046540519E+01  0.41954996734E+03  0.42912737756E+03  0.76778446932E+02 0.  0.
          5    1    3    3  501    0  0.36553275289E+02 -0.24362807086E+02  0.20161053096E+02  0.48561778853E+02  0.47000000000E+01 0. -1.
        -13    1    4    4    0    0 -0.35450967155E+01  0.59938784730E+02  0.31811733678E+03  0.32373425148E+03  0.00000000000E+00 0.  1.
         14    1    4    4    0    0 -0.97945231469E+01 -0.66969074848E+01  0.39776195258E+01  0.12514100472E+02  0.00000000000E+00 0. -1.
         -5    1    5    5    0  502 -0.70047964389E+02 -0.35183724212E+02  0.15085309505E+03  0.17006868627E+03  0.47000000000E+01 0.  1.
         11    1    6    6    0    0  0.55892483974E+02  0.30761376751E+02  0.28198879935E+03  0.28911574675E+03  0.00000000000E+00 0. -1.
        -12    1    6    6    0    0 -0.90581750106E+01 -0.24456722699E+02  0.13756116800E+03  0.14001163080E+03  0.00000000000E+00 0.  1.
</event>
<event>
12    1  0.8133506E-002  0.2244559E+03  0.7818608E-02  0.1130728E+00
         21   -1    0    0  503  502  0.00000000000E+00  0.00000000000E+00  0.98422988958E+02  0.98422988958E+02  0.00000000000E+00 0. -1.
         21   -1    0    0  501  503 -0.00000000000E+00 -0.00000000000E+00 -0.51154613539E+03  0.51154613539E+03  0.00000000000E+00 0.  1.
          6    2    1    2  501    0  0.27123677345E+02 -0.14115598701E+03 -0.19196741608E+03  0.29535056986E+03  0.17239421028E+03 0.  0.
         24    2    3    3    0    0  0.16626011996E+01 -0.59981844673E+01 -0.42837579295E+02  0.92427687447E+02  0.81664415428E+02 0.  0.
         -6    2    1    2    0  502 -0.27123677345E+02  0.14115598701E+03 -0.22115573036E+03  0.31461855450E+03  0.17150589268E+03 0.  0.
        -24    2    5    5    0    0  0.36671579886E+02  0.28370515877E+02 -0.11080178903E+03  0.14435264567E+03  0.80068463929E+02 0.  0.
          5    1    3    3  501    0  0.25461076145E+02 -0.13515780254E+03 -0.14912983678E+03  0.20292288241E+03  0.47000000000E+01 0. -1.
        -11    1    4    4    0    0  0.14223946706E+02 -0.26382283022E+02 -0.57149828888E+02  0.64532537989E+02  0.00000000000E+00 0.  1.
         12    1    4    4    0    0 -0.12561345507E+02  0.20384098555E+02  0.14312249593E+02  0.27895149457E+02  0.00000000000E+00 0. -1.
         -5    1    5    5    0  502 -0.63795257230E+02  0.11278547113E+03 -0.11035394133E+03  0.17026590883E+03  0.47000000000E+01 0.  1.
         13    1    6    6    0    0 -0.11879310281E+02 -0.19600423393E+02 -0.17936317812E+02  0.29103369334E+02  0.00000000000E+00 0. -1.
        -14    1    6    6    0    0  0.48550890166E+02  0.47970939270E+02 -0.92865471219E+02  0.11524927633E+03  0.00000000000E+00 0.  1.
</event>
<event>
12    1  0.8133506E-002  0.2293112E+03  0.7818608E-02  0.1127138E+00
         21   -1    0    0  503  502  0.00000000000E+00  0.00000000000E+00  0.84763670623E+03  0.84763670623E+03  0.00000000000E+00 0. -1.
         21   -1    0    0  501  503 -0.00000000000E+00 -0.00000000000E+00 -0.92526679729E+02  0.92526679729E+02  0.00000000000E+00 0. -1.
          6    2    1    2  501    0 -0.92818582970E+02 -0.11903825160E+03  0.10757897997E+03  0.25322810159E+03  0.17252779433E+03 0.  0.
         24    2    3    3    0    0  0.14545515952E+02 -0.20328149602E+02  0.25385109892E+02  0.85750771029E+02  0.77999905303E+02 0.  0.
         -6    2    1    2    0  502  0.92818582970E+02  0.11903825160E+03  0.64753104653E+03  0.68693528437E+03  0.17262164986E+03 0.  0.
        -24    2    5    5    0    0  0.71244034673E+02  0.86840039663E+01  0.23063229832E+03  0.25511335653E+03  0.82100202492E+02 0.  0.
          5    1    3    3  501    0 -0.10736409892E+03 -0.98710101997E+02  0.82193870079E+02  0.16747733056E+03  0.47000000000E+01 0. -1.
        -13    1    4    4    0    0  0.23444216709E+02 -0.19368349399E+02  0.50577517830E+02  0.59015672202E+02  0.00000000000E+00 0.  1.
         14    1    4    4    0    0 -0.88987007571E+01 -0.95980020313E+00 -0.25192407938E+02  0.26735098827E+02  0.00000000000E+00 0. -1.
         -5    1    5    5    0  502  0.21574548297E+02  0.11035424763E+03  0.41689874821E+03  0.43182192784E+03  0.47000000000E+01 0.  1.
         11    1    6    6    0    0  0.81275160529E+02  0.13900157257E+02  0.22936551102E+03  0.24373634061E+03  0.00000000000E+00 0. -1.
        -12    1    6    6    0    0 -0.10031125856E+02 -0.52161532903E+01  0.12667873031E+01  0.11377015916E+02  0.00000000000E+00 0.  1.
</event>
<event>
12    1  0.8133506E-002  0.1851458E+03  0.7818608E-02  0.1162979E+00
         21   -1    0    0  503  502  0.00000000000E+00  0.00000000000E+00  0.11510578667E+03  0.11510578667E+03  0.00000000000E+00 0.  1.
         21   -1    0    0  501  503 -0.00000000000E+00 -0.00000000000E+00 -0.67467841068E+03  0.67467841068E+03  0.00000000000E+00 0.  1.
          6    2    1    2  501    0  0.59898867130E+02 -0.34490520638E+02 -0.57519429052E+03  0.60425776513E+03  0.17176002032E+03 0.  0.
         24    2    3    3    0    0  0.10274903167E+03  0.23177870300E+01 -0.32522131470E+03  0.34793849790E+03  0.68771790289E+02 0.  0.
         -6    2    1    2    0  502 -0.59898867130E+02  0.34490520638E+02  0.15621666513E+02  0.18552643221E+03  0.17146005450E+03 0.  0.
        -24    2    5    5    0    0 -0.11829270511E+01 -0.25066408112E+02 -0.31386853668E+02  0.89471862561E+02  0.79939698992E+02 0.  0.
          5    1    3    3  501    0 -0.42850164543E+02 -0.36808307667E+02 -0.24997297582E+03  0.25631926723E+03  0.47000000000E+01 0. -1.
        -13    1    4    4    0    0  0.30920271037E+02 -0.31385787869E+02 -0.12713401254E+03  0.13455180409E+03  0.00000000000E+00 0.  1.
         14    1    4    4    0    0  0.71828760636E+02  0.33703574899E+02 -0.19808730216E+03  0.21338669381E+03  0.00000000000E+00 0. -1.
         -5    1    5    5    0  502 -0.58715940079E+02  0.59556928750E+02  0.47008520181E+02  0.96054569652E+02  0.47000000000E+01 0.  1.
         13    1    6    6    0    0 -0.48589929579E-01  0.16040335227E+02 -0.43695683291E+02  0.46546830757E+02  0.00000000000E+00 0. -1.
        -14    1    6    6    0    0 -0.11343371215E+01 -0.41106743340E+02  0.12308829624E+02  0.42925031804E+02  0.00000000000E+00 0.  1.
</event>
<event>
12    1  0.8133506E-002  0.1909571E+03  0.7818608E-02  0.1158079E+00
         21   -1    0    0  501  502  0.00000000000E+00  0.00000000000E+00  0.72253409257E+03  0.72253409257E+03  0.00000000000E+00 0. -1.
         21   -1    0    0  502  503 -0.00000000000E+00 -0.00000000000E+00 -0.12755197351E+03  0.12755197351E+03  0.00000000000E+00 0. -1.
         -6    2    1    2    0  503  0.81943286419E+02  0.24393136370E+01 -0.33477790507E+02  0.19386945316E+03  0.17246434405E+03 0.  0.
        -24    2    3    3    0    0  0.49439746382E+02  0.66925165224E+02 -0.38167514735E+02  0.12135056815E+03  0.79661376751E+02 0.  0.
          6    2    1    2  501    0 -0.81943286419E+02 -0.24393136370E+01  0.62845990957E+03  0.65621661292E+03  0.17011094231E+03 0.  0.
         24    2    5    5    0    0 -0.92276987479E+02 -0.27250339467E+02  0.28811746941E+03  0.31478222836E+03  0.82574522075E+02 0.  0.
          5    1    5    5  501    0  0.10333701060E+02  0.24811025830E+02  0.34034244017E+03  0.34143438456E+03  0.47000000000E+01 0. -1.
        -11    1    6    6    0    0  0.12855531353E+01 -0.22194500432E+02  0.12246042275E+03  0.12446205701E+03  0.00000000000E+00 0.  1.
         12    1    6    6    0    0 -0.93562540614E+02 -0.50558390352E+01  0.16565704666E+03  0.19032017135E+03  0.00000000000E+00 0. -1.
         -5    1    3    3    0  503  0.32503540037E+02 -0.64485851587E+02  0.46897242277E+01  0.72518885010E+02  0.47000000000E+01 0.  1.
         11    1    4    4    0    0 -0.19663551374E+02  0.24059464690E+02 -0.22928128800E+02  0.38616216595E+02  0.00000000000E+00 0. -1.
        -12    1    4    4    0    0  0.69103297756E+02  0.42865700533E+02 -0.15239385935E+02  0.82734351551E+02  0.00000000000E+00 0.  1.
</event>
<event>
12    1  0.8133506E-002  0.1838435E+03  0.7818608E-02  0.1164200E+00
         21   -1    0    0  501  502  0.00000000000E+00  0.00000000000E+00  0.11594038403E+03  0.11594038403E+03  0.00000000000E+00 0. -1.
         21   -1    0    0  502  503 -0.00000000000E+00 -0.00000000000E+00 -0.65083319025E+03  0.65083319025E+03  0.00000000000E+00 0.  1.
         -6    2    1    2    0  503 -0.42116256932E+01 -0.64628505638E+02 -0.55239724808E+03  0.58209859876E+03  0.17175994138E+03 0.  0.
        -24    2    3    3    0    0  0.18602167463E+02 -0.10803242735E+03 -0.39080965408E+03  0.41316958967E+03  0.77200246840E+02 0.  0.
          6    2    1    2  501    0  0.42116256932E+01  0.64628505638E+02  0.17504441856E+02  0.18467497551E+03  0.17205772161E+03 0.  0.
         24    2    5    5    0    0  0.37826512662E+02 -0.17563175619E+02  0.32809930382E+02  0.94443156997E+02  0.78126232304E+02 0.  0.
          5    1    5    5  501    0 -0.33614886969E+02  0.82191681256E+02 -0.15305488527E+02  0.90231818516E+02  0.47000000000E+01 0. -1.
        -13    1    6    6    0    0  0.56336515689E+02  0.38555954576E+01  0.84515175746E+01  0.57097257076E+02  0.00000000000E+00 0.  1.
         14    1    6    6    0    0 -0.18510003026E+02 -0.21418771076E+02  0.24358412808E+02  0.37345899922E+02  0.00000000000E+00 0. -1.
         -5    1    3    3    0  503 -0.22813793156E+02  0.43403921715E+02 -0.16158759400E+03  0.16892900909E+03  0.47000000000E+01 0.  1.
         11    1    4    4    0    0 -0.39374010121E+01 -0.12154232670E+02 -0.31020597723E+01  0.13147291484E+02  0.00000000000E+00 0. -1.
        -12    1    4    4    0    0  0.22539568475E+02 -0.95878194682E+02 -0.38770759430E+03  0.40002229818E+03  0.00000000000E+00 0.  1.
</event>
<event>
12    1  0.8133506E-002  0.1746868E+03  0.7818608E-02  0.1173302E+00
         21   -1    0    0  501  502  0.00000000000E+00  0.00000000000E+00  0.18814777274E+03  0.18814777274E+03  0.00000000000E+00 0.  1.
         21   -1    0    0  502  503 -0.00000000000E+00 -0.00000000000E+00 -0.19313894097E+03  0.19313894097E+03  0.00000000000E+00 0.  1.
         -6    2    1    2    0  503 -0.22999789340E+02 -0.75748207295E+01 -0.79953629327E+02  0.19119500550E+03  0.17197842617E+03 0.  0.
        -24    2    3    3    0    0  0.22919499135E+02 -0.44837464817E+01 -0.10783821584E+03  0.13717856394E+03  0.81507485463E+02 0.  0.
          6    2    1    2  501    0  0.22999789340E+02  0.75748207295E+01  0.74962461097E+02  0.19009170821E+03  0.17300034317E+03 0.  0.
         24    2    5    5    0    0  0.51532315076E+02  0.53879540934E+02  0.78619140985E+02  0.13537705344E+03  0.81162755258E+02 0.  0.
          5    1    5    5  501    0 -0.28532525736E+02 -0.46304720205E+02 -0.36566798876E+01  0.54714654764E+02  0.47000000000E+01 0. -1.
        -13    1    6    6    0    0  0.81738881439E+00  0.12494468666E+02 -0.16003534961E+02  0.20319768772E+02  0.00000000000E+00 0.  1.
         14    1    6    6    0    0  0.50714926261E+02  0.41385072268E+02  0.94622675946E+02  0.11505728467E+03  0.00000000000E+00 0. -1.
         -5    1    3    3    0  503 -0.45919288475E+02 -0.30910742477E+01  0.27884586513E+02  0.54016441562E+02  0.47000000000E+01 0.  1.
         13    1    4    4    0    0  0.49143689566E+02 -0.13760267925E+02 -0.43399336388E+02  0.66992160708E+02  0.00000000000E+00 0. -1.
        -14    1    4    4    0    0 -0.26224190431E+02  0.92765214428E+01 -0.64438879453E+02  0.70186403234E+02  0.00000000000E+00 0.  1.
</event>
<event>
12    1  0.8133506E-002  0.1859359E+03  0.7818608E-02  0.1162283E+00
         21   -1    0    0  503  502  0.00000000000E+00  0.00000000000E+00  0.21870852053E+04  0.21870852053E+04  0.00000000000E+00 0.  1.
         21   -1    0    0  501  503 -0.00000000000E+00 -0.00000000000E+00 -0.26065669926E+02  0.26065669926E+02  0.00000000000E+00 0.  1.
          6    2    1    2  501    0 -0.29621066233E+02 -0.62505271041E+02  0.38423755280E+03  0.42666651298E+03  0.17210897665E+03 0.  0.
         24    2    3    3    0    0  0.41961479375E+02 -0.19250482697E+02  0.12655115565E+03  0.15570635571E+03  0.78089227020E+02 0.  0.
         -6    2    1    2    0  502  0.29621066233E+02  0.62505271041E+02  0.17767819826E+04  0.17864843623E+04  0.17259155971E+03 0.  0.
        -24    2    5    5    0    0  0.37769706176E+02  0.33663487356E+02  0.50882499850E+03  0.51816450816E+03  0.83855812735E+02 0.  0.
          5    1    3    3  501    0 -0.71582545608E+02 -0.43254788344E+02  0.25768639716E+03  0.27096015727E+03  0.47000000000E+01 0. -1.
        -11    1    4    4    0    0  0.62263150869E+02 -0.16925647826E+02  0.11593115199E+03  0.13267708737E+03  0.00000000000E+00 0.  1.
         12    1    4    4    0    0 -0.20301671494E+02 -0.23248348709E+01  0.10620003659E+02  0.23029268342E+02  0.00000000000E+00 0. -1.
         -5    1    5    5    0  502 -0.81486399430E+01  0.28841783686E+02  0.12679569841E+04  0.12683198541E+04  0.47000000000E+01 0.  1.
         13    1    6    6    0    0  0.16418485079E+02  0.39978040483E+02  0.10261465011E+03  0.11134440620E+03  0.00000000000E+00 0. -1.
        -14    1    6    6    0    0  0.21351221097E+02 -0.63145531275E+01  0.40621034838E+03  0.40682010196E+03  0.00000000000E+00 0.  1.
</event>
<event>
12    1  0.8133506E-002  0.2151352E+03  0.7818608E-02  0.1137629E+00
         21   -1    0    0  501  502  0.00000000000E+00  0.00000000000E+00  0.27644131486E+03  0.27644131486E+03  0.00000000000E+00 0.  1.
         21   -1    0    0  502  503 -0.00000000000E+00 -0.00000000000E+00 -0.17709330417E+03  0.17709330417E+03  0.00000000000E+00 0.  1.
         -6    2    1    2    0  503 -0.74445456717E+02  0.10532610580E+03 -0.40792686984E+01  0.21482898902E+03  0.17175313534E+03 0.  0.
        -24    2    3    3    0    0  0.23503278932E+02  0.70794467573E+02 -0.12195159457E+02  0.11054885411E+03  0.80672588099E+02 0.  0.
          6    2    1    2  501    0  0.74445456717E+02 -0.10532610580E+03  0.10342727939E+03  0.23870563001E+03  0.17218438107E+03 0.  0.
         24    2    5    5    0    0  0.42993561047E+02 -0.10772266239E+03  0.24235574156E+02  0.15333361233E+03  0.97320169186E+02 0.  0.
          5    1    5    5  501    0  0.31451895670E+02  0.23965565893E+01  0.79191705235E+02  0.85372017680E+02  0.47000000000E+01 0. -1.
        -13    1    6    6    0    0  0.23548465394E+01 -0.53391800719E+02  0.56873406667E+02  0.78043667727E+02  0.00000000000E+00 0.  1.
         14    1    6    6    0    0  0.40638714508E+02 -0.54330861671E+02 -0.32637832511E+02  0.75289944600E+02  0.00000000000E+00 0. -1.
         -5    1    3    3    0  503 -0.97948735650E+02  0.34531638228E+02  0.81158907587E+01  0.10428013491E+03  0.47000000000E+01 0.  1.
         11    1    4    4    0    0  0.12570558221E+02 -0.15614981694E+02  0.72310539651E+01  0.21310437085E+02  0.00000000000E+00 0. -1.
        -12    1    4    4    0    0  0.10932720711E+02  0.86409449267E+02 -0.19426213422E+02  0.89238417022E+02  0.00000000000E+00 0.  1.
</event>
<event>
12    1  0.8133506E-002  0.1770158E+03  0.7818608E-02  0.1172839E+00
         21   -1    0    0  501  502  0.00000000000E+00  0.00000000000E+00  0.28059461094E+03  0.28059461094E+03  0.00000000000E+00 0. -1.
         21   -1    0    0  502  503 -0.00000000000E+00 -0.00000000000E+00 -0.11211188570E+03  0.11211188570E+03  0.00000000000E+00 0. -1.
         -6    2    1    2    0  503  0.31162930150E+02  0.15927636773E+02  0.12633068893E+03  0.21074114563E+03  0.16500778668E+03 0.  0.
        -24    2    3    3    0    0 -0.12782077130E+02 -0.40445290437E+02  0.39855823050E+02  0.98451061392E+02  0.79403537981E+02 0.  0.
          6    2    1    2  501    0 -0.31162930150E+02 -0.15927636773E+02  0.42152036310E+02  0.18196535102E+03  0.17352169022E+03 0.  0.
         24    2    5    5    0    0 -0.23787156791E+02 -0.50512951360E+02 -0.17691372997E+02  0.11229563267E+03  0.95811989618E+02 0.  0.
          5    1    5    5  501    0 -0.73757733584E+01  0.34585314586E+02  0.59843409307E+02  0.69669718351E+02  0.47000000000E+01 0. -1.
        -13    1    6    6    0    0 -0.15388720048E+02  0.27929719198E+02 -0.74029661554E+01  0.32736612945E+02  0.00000000000E+00 0.  1.
         14    1    6    6    0    0 -0.83984367428E+01 -0.78442670558E+02 -0.10288406842E+02  0.79559019723E+02  0.00000000000E+00 0. -1.
         -5    1    3    3    0  503  0.43945007280E+02  0.56372927211E+02  0.86474865885E+02  0.11229008423E+03  0.47000000000E+01 0.  1.
         11    1    4    4    0    0  0.22678799685E+01 -0.12287192576E+02  0.59610600115E+02  0.60906009778E+02  0.00000000000E+00 0. -1.
        -12    1    4    4    0    0 -0.15049957099E+02 -0.28158097862E+02 -0.19754777065E+02  0.37545051615E+02  0.00000000000E+00 0.  1.
</event>
<event>
12    1  0.8133506E-002  0.2297099E+03  0.7818608E-02  0.1127771E+00
         21   -1    0    0  501  502  0.00000000000E+00  0.00000000000E+00  0.24548888770E+03  0.24548888770E+03  0.00000000000E+00 0. -1.
         21   -1    0    0  502  503 -0.00000000000E+00 -0.00000000000E+00 -0.42123486228E+03  0.42123486228E+03  0.00000000000E+00 0.  1.
         -6    2    1    2    0  503  0.77065245390E+02  0.12942869016E+03 -0.32336890991E+03  0.39366848321E+03  0.16648298681E+03 0.  0.
        -24    2    3    3    0    0 -0.20715943139E+01  0.80982967918E+02 -0.25358460403E+03  0.27747224081E+03  0.78250625705E+02 0.  0.
          6    2    1    2  501    0 -0.77065245390E+02 -0.12942869016E+03  0.14762293533E+03  0.27305526677E+03  0.17342378669E+03 0.  0.
         24    2    5    5    0    0 -0.11172989755E+03 -0.12093865895E+03  0.10197826078E+03  0.21492399245E+03  0.93182764630E+02 0.  0.
          5    1    5    5  501    0  0.34664652158E+02 -0.84900312177E+01  0.45644674548E+02  0.58131274319E+02  0.47000000000E+01 0. -1.
        -13    1    6    6    0    0 -0.31156386123E+02  0.50040060021E+01 -0.37909851191E+01  0.31782574479E+02  0.00000000000E+00 0.  1.
         14    1    6    6    0    0 -0.80573511424E+02 -0.12594266495E+03  0.10576924590E+03  0.18314141797E+03  0.00000000000E+00 0. -1.
         -5    1    3    3    0  503  0.79136839703E+02  0.48445722245E+02 -0.69784305879E+02  0.11619624241E+03  0.47000000000E+01 0.  1.
         13    1    4    4    0    0  0.50311075006E+01  0.29220063515E+02 -0.14989827252E+02  0.33223772747E+02  0.00000000000E+00 0. -1.
        -14    1    4    4    0    0 -0.71027018145E+01  0.51762904402E+02 -0.23859477677E+03  0.24424846806E+03  0.00000000000E+00 0.  1.
</event>
<event>
12    1  0.8133506E-002  0.2283774E+03  0.7818608E-02  0.1129074E+00
         21   -1    0    0  503  502  0.00000000000E+00  0.00000000000E+00  0.56619867519E+03  0.56619867519E+03  0.00000000000E+00 0. -1.
         21   -1    0    0  501  503 -0.00000000000E+00 -0.00000000000E+00 -0.16568215561E+03  0.16568215561E+03  0.00000000000E+00 0. -1.
          6    2    1    2  501    0  0.12578878533E+03 -0.61417926886E+02 -0.49957497365E+02  0.22682332099E+03  0.17134201803E+03 0.  0.
         24    2    3    3    0    0  0.15755848270E+03 -0.66831742209E+02 -0.42660450103E+02  0.19344728219E+03  0.79440416330E+02 0.  0.
         -6    2    1    2    0  502 -0.12578878533E+03  0.61417926886E+02  0.45047401694E+03  0.50505750981E+03  0.18044741066E+03 0.  0.
        -24    2    5    5    0    0 -0.16260318521E+03  0.53880143306E+02  0.34217649765E+03  0.39032930532E+03  0.77002242616E+02 0.  0.
          5    1    3    3  501    0 -0.31769697365E+02  0.54138153224E+01 -0.72970472624E+01  0.33376038797E+02  0.47000000000E+01 0. -1.
        -13    1    4    4    0    0  0.15701288543E+03 -0.57509440592E+02 -0.19342037236E+02  0.16832853695E+03  0.00000000000E+00 0.  1.
         14    1    4    4    0    0  0.54559727211E+00 -0.93223016166E+01 -0.23318412867E+02  0.25118745240E+02  0.00000000000E+00 0. -1.
         -5    1    5    5    0  502  0.36814399875E+02  0.75377835807E+01  0.10829751929E+03  0.11472820448E+03  0.47000000000E+01 0.  1.
         11    1    6    6    0    0 -0.44947368401E+02 -0.19652609152E+02  0.91045220322E+02  0.10342012916E+03  0.00000000000E+00 0. -1.
        -12    1    6    6    0    0 -0.11765581681E+03  0.73532752458E+02  0.25113127733E+03  0.28690917616E+03  0.00000000000E+00 0.  1.
</event>
<event>
12    1  0.8133506E-002  0.1846213E+03  0.7818608E-02  0.1164438E+00
         21   -1    0    0  503  502  0.00000000000E+00  0.00000000000E+00  0.12877986335E+04  0.12877986335E+04  0.00000000000E+00 0. -1.
         21   -1    0    0  501  503 -0.00000000000E+00 -0.00000000000E+00 -0.29828663468E+02  0.29828663468E+02  0.00000000000E+00 0. -1.
          6    2    1    2  501    0  0.52648130969E+02  0.39701394343E+02  0.38176836174E+03  0.42218646734E+03  0.16776860484E+03 0.  0.
         24    2    3    3    0    0 -0.10305238846E+02  0.70251058560E+02  0.20267026779E+03  0.22984659625E+03  0.81931747109E+02 0.  0.
         -6    2    1    2    0  502 -0.52648130969E+02 -0.39701394343E+02  0.87620160827E+03  0.89544082961E+03  0.17244417817E+03 0.  0.
        -24    2    5    5    0    0 -0.84966199704E+02  0.17579158744E+02  0.60893971531E+03  0.62016546064E+03  0.79179162535E+02 0.  0.
          5    1    3    3  501    0  0.62953369815E+02 -0.30549664217E+02  0.17909809395E+03  0.19233987109E+03  0.47000000000E+01 0. -1.
        -13    1    4    4    0    0 -0.38503913314E+02  0.89290320383E+01  0.93292460322E+02  0.10132009725E+03  0.00000000000E+00 0.  1.
         14    1    4    4    0    0  0.28198674468E+02  0.61322026521E+02  0.10937780747E+03  0.12852649900E+03  0.00000000000E+00 0. -1.
         -5    1    5    5    0  502  0.32318068735E+02 -0.57280553087E+02  0.26726189296E+03  0.27527536896E+03  0.47000000000E+01 0.  1.
         13    1    6    6    0    0 -0.84233096713E+01  0.31238995651E+02  0.29378453576E+03  0.29556078977E+03  0.00000000000E+00 0. -1.
        -14    1    6    6    0    0 -0.76542890033E+02 -0.13659836907E+02  0.31515517954E+03  0.32460467087E+03  0.00000000000E+00 0.  1.
</event>
<event>
12    1  0.8133506E-002  0.1830943E+03  0.7818608E-02  0.1164945E+00
         21   -1    0    0  501  502  0.00000000000E+00  0.00000000000E+00  0.13961130221E+03  0.13961130221E+03  0.00000000000E+00 0. -1.
         21   -1    0    0  502  503 -0.00000000000E+00 -0.00000000000E+00 -0.24192841450E+03  0.24192841450E+03  0.00000000000E+00 0.  1.
         -6    2    1    2    0  503 -0.14159715791E+02 -0.60367360790E+02 -0.70137262401E+02  0.19606822781E+03  0.17227535686E+03 0.  0.
        -24    2    3    3    0    0  0.50319988438E+02 -0.57188945538E+02 -0.71355847035E+02  0.13132790398E+03  0.79703730970E+02 0.  0.
          6    2    1    2  501    0  0.14159715791E+02  0.60367360790E+02 -0.32179849892E+02  0.18547148889E+03  0.17181214932E+03 0.  0.
         24    2    5    5    0    0  0.34810979506E+01  0.69177823497E+02 -0.81801551734E+02  0.13374083622E+03  0.79983924010E+02 0.  0.
          5    1    5    5  501    0  0.10678617841E+02 -0.88104627079E+01  0.49621701842E+02  0.51730652671E+02  0.47000000000E+01 0. -1.
        -11    1    6    6    0    0  0.67536718095E+01  0.67596719669E+02 -0.96827588979E+02  0.11828148875E+03  0.00000000000E+00 0.  1.
         12    1    6    6    0    0 -0.32725738589E+01  0.15811038282E+01  0.15026037245E+02  0.15459347472E+02  0.00000000000E+00 0. -1.
         -5    1    3    3    0  503 -0.64479704229E+02 -0.31784152511E+01  0.12185846334E+01  0.64740323829E+02  0.47000000000E+01 0.  1.
         13    1    4    4    0    0  0.17211421051E+02 -0.58481913787E+02 -0.10251079293E+02  0.61817892891E+02  0.00000000000E+00 0. -1.
        -14    1    4    4    0    0  0.33108567386E+02  0.12929682491E+01 -0.61104767742E+02  0.69510011092E+02  0.00000000000E+00 0.  1.
</event>
<event>
12    1  0.8133506E-002  0.2148565E+03  0.7818608E-02  0.1137778E+00
         21   -1    0    0  503  502  0.00000000000E+00  0.00000000000E+00  0.43140195084E+03  0.43140195084E+03  0.00000000000E+00 0. -1.
         21   -1    0    0  501  503 -0.00000000000E+00 -0.00000000000E+00 -0.11029614694E+03  0.11029614694E+03  0.00000000000E+00 0. -1.
          6    2    1    2  501    0 -0.15450780809E+02 -0.12774342197E+03  0.11376415972E+03  0.24311163803E+03  0.17205776943E+03 0.  0.
         24    2    3    3    0    0  0.37785442012E+01 -0.31882405316E+02 -0.11266919426E+02  0.84322588629E+02  0.77153031792E+02 0.  0.
         -6    2    1    2    0  502  0.15450780809E+02  0.12774342197E+03  0.20734164418E+03  0.29858645975E+03  0.17206454617E+03 0.  0.
        -24    2    5    5    0    0  0.61703686916E+02  0.62160953921E+02  0.17729875115E+03  0.21276655028E+03  0.78507506571E+02 0.  0.
          5    1    3    3  501    0 -0.19229325010E+02 -0.95861016659E+02  0.12503107915E+03  0.15878904940E+03  0.47000000000E+01 0. -1.
        -11    1    4    4    0    0  0.94483465722E+00  0.19814867929E+02  0.16291918329E+02  0.25669988438E+02  0.00000000000E+00 0.  1.
         12    1    4    4    0    0  0.28337095440E+01 -0.51697273245E+02 -0.27558837755E+02  0.58652600191E+02  0.00000000000E+00 0. -1.
         -5    1    5    5    0  502 -0.46252906107E+02  0.65582468054E+02  0.30042893028E+02  0.85819909466E+02  0.47000000000E+01 0.  1.
         11    1    6    6    0    0  0.11233548168E+01  0.54888232190E+02  0.66077154252E+02  0.85907917406E+02  0.00000000000E+00 0. -1.
        -12    1    6    6    0    0  0.60580332099E+02  0.72727217315E+01  0.11122159690E+03  0.12685863288E+03  0.00000000000E+00 0.  1.
</event>
<event>
12    1  0.8133506E-002  0.2358256E+03  0.7818608E-02  0.1123661E+00
         21   -1    0    0  501  502  0.00000000000E+00  0.00000000000E+00  0.57051025030E+03  0.57051025030E+03  0.00000000000E+00 0.  1.
         21   -1    0    0  502  503 -0.00000000000E+00 -0.00000000000E+00 -0.10942239841E+03  0.10942239841E+03  0.00000000000E+00 0.  1.
         -6    2    1    2    0  503  0.89537588058E+02  0.12200118374E+03  0.10438513245E+03  0.25232239330E+03  0.17282669290E+03 0.  0.
        -24    2    3    3    0    0 -0.84035356291E+01  0.10034523213E+03  0.71659209104E+02  0.14670743220E+03  0.79045830965E+02 0.  0.
          6    2    1    2  501    0 -0.89537588058E+02 -0.12200118374E+03  0.35670271943E+03  0.42761025541E+03  0.18086578441E+03 0.  0.
         24    2    5    5    0    0 -0.26396676462E+02 -0.77223566801E+02  0.78870503770E+02  0.13915811075E+03  0.80524279727E+02 0.  0.
          5    1    5    5  501    0 -0.63140911596E+02 -0.44777616935E+02  0.27783221566E+03  0.28845214465E+03  0.47000000000E+01 0. -1.
        -11    1    6    6    0    0 -0.44533193932E+02 -0.28689670000E+02  0.68032436703E+02  0.86224793245E+02  0.00000000000E+00 0.  1.
         12    1    6    6    0    0  0.18136517469E+02 -0.48533896801E+02  0.10838067068E+02  0.52933317508E+02  0.00000000000E+00 0. -1.
         -5    1    3    3    0  503  0.97941123687E+02  0.21655951609E+02  0.32725923350E+02  0.10561496110E+03  0.47000000000E+01 0.  1.
         11    1    4    4    0    0  0.11763483649E+02  0.40268990152E+01  0.42188124183E+02  0.43982192821E+02  0.00000000000E+00 0. -1.
        -12    1    4    4    0    0 -0.20167019278E+02  0.96318333111E+02  0.29471084921E+02  0.10272523938E+03  0.00000000000E+00 0.  1.
</event>
<event>
12    1  0.8133506E-002  0.1987330E+03  0.7818608E-02  0.1150813E+00
         21   -1    0    0  503  502  0.00000000000E+00  0.00000000000E+00  0.29042442946E+03  0.29042442946E+03  0.00000000000E+00 0. -1.
         21   -1    0    0  501  503 -0.00000000000E+00 -0.00000000000E+00 -0.24282179479E+03  0.24282179479E+03  0.00000000000E+00 0. -1.
          6    2    1    2  501    0 -0.34382228937E+02 -0.93100160390E+02 -0.15304973350E+03  0.25083667061E+03  0.17217734133E+03 0.  0.
         24    2    3    3    0    0  0.68807325784E+01  0.80131297945E+01 -0.28938694691E+02  0.85451757755E+02  0.79705709476E+02 0.  0.
         -6    2    1    2    0  502  0.34382228937E+02  0.93100160390E+02  0.20065236817E+03  0.28240955363E+03  0.17217434652E+03 0.  0.
        -24    2    5    5    0    0  0.23400194440E+02  0.11251812700E+03  0.21489906370E+03  0.25552608581E+03  0.76837978545E+02 0.  0.
          5    1    3    3  501    0 -0.41262961515E+02 -0.10111329018E+03 -0.12411103881E+03  0.16538491286E+03  0.47000000000E+01 0. -1.
        -13    1    4    4    0    0 -0.19745671723E+02  0.36305551585E+02 -0.11732853903E+02  0.42960964705E+02  0.00000000000E+00 0.  1.
         14    1    4    4    0    0  0.26626404301E+02 -0.28292421790E+02 -0.17205840788E+02  0.42490793050E+02  0.00000000000E+00 0. -1.
         -5    1    5    5    0  502  0.10982034497E+02 -0.19417966608E+02 -0.14246695526E+02  0.26883467825E+02  0.47000000000E+01 0.  1.
         11    1    6    6    0    0  0.35519478135E+02  0.74688221106E+02  0.19343648835E+03  0.21037499548E+03  0.00000000000E+00 0. -1.
        -12    1    6    6    0    0 -0.12119283694E+02  0.37829905892E+02  0.21462575349E+02  0.45151090326E+02  0.00000000000E+00 0.  1.
</event>
<event>
12    1  0.8133506E-002  0.2384871E+03  0.7818608E-02  0.1123307E+00
         21   -1    0    0  503  502  0.00000000000E+00  0.00000000000E+00  0.19482738874E+03  0.19482738874E+03  0.00000000000E+00 0.  1.
         21   -1    0    0  501  503 -0.00000000000E+00 -0.00000000000E+00 -0.53419681287E+03  0.53419681287E+03  0.00000000000E+00 0.  1.
          6    2    1    2  501    0  0.16322583566E+03 -0.98126969107E+01 -0.42103046252E+03  0.47694360225E+03  0.15319786847E+03 0.  0.
         24    2    3    3    0    0  0.11114107063E+03 -0.59718253999E+02 -0.30825442395E+03  0.34298871337E+03  0.81864889762E+02 0.  0.
         -6    2    1    2    0  502 -0.16322583566E+03  0.98126969107E+01  0.81661038387E+02  0.25208059936E+03  0.17360052113E+03 0.  0.
        -24    2    5    5    0    0 -0.86558937720E+02 -0.47256050673E+02 -0.17406812313E+01  0.12514521412E+03  0.77024091183E+02 0.  0.
          5    1    3    3  501    0  0.52084765028E+02  0.49905557089E+02 -0.11277603857E+03  0.13395488887E+03  0.47000000000E+01 0. -1.
        -11    1    4    4    0    0  0.25672714140E+02  0.11782727055E+02 -0.12793417581E+03  0.13101554964E+03  0.00000000000E+00 0.  1.
         12    1    4    4    0    0  0.85468356492E+02 -0.71500981055E+02 -0.18032024814E+03  0.21197316374E+03  0.00000000000E+00 0. -1.
         -5    1    5    5    0  502 -0.76666897941E+02  0.57068747584E+02  0.83401719618E+02  0.12693538524E+03  0.47000000000E+01 0.  1.
         13    1    6    6    0    0 -0.68101969075E+00  0.17153141436E+02  0.40618539338E+01  0.17640654929E+02  0.00000000000E+00 0. -1.
        -14    1    6    6    0    0 -0.85877918029E+02 -0.64409192110E+02 -0.58025351651E+01  0.10750455919E+03  0.00000000000E+00 0.  1.
</event>
<event>
12    1  0.8133506E-002  0.1773567E+03  0.7818608E-02  0.1170389E+00
         21   -1    0    0  503  502  0.00000000000E+00  0.00000000000E+00  0.48677920926E+02  0.48677920926E+02  0.00000000000E+00 0.  1.
         21   -1    0    0  501  503 -0.00000000000E+00 -0.00000000000E+00 -0.65828059746E+03  0.65828059746E+03  0.00000000000E+00 0.  1.
          6    2    1    2  501    0 -0.22097328353E+02  0.36628192843E+02 -0.25680166987E+03  0.31208644003E+03  0.17210732689E+03 0.  0.
         24    2    3    3    0    0 -0.10914246069E+01  0.44357135288E+02 -0.49618256247E+02  0.10364450225E+03  0.79444728178E+02 0.  0.
         -6    2    1    2    0  502  0.22097328353E+02 -0.36628192843E+02 -0.35280100666E+03  0.39487207836E+03  0.17212057266E+03 0.  0.
        -24    2    5    5    0    0  0.36359387588E+02 -0.50380033076E+02 -0.65125970581E+02  0.10647732142E+03  0.56884753092E+02 0.  0.
          5    1    3    3  501    0 -0.21005903746E+02 -0.77289424449E+01 -0.20718341363E+03  0.20844193778E+03  0.47000000000E+01 0. -1.
        -11    1    4    4    0    0 -0.23346269511E+02 -0.58237871450E+01  0.67220323856E+01  0.24983004547E+02  0.00000000000E+00 0.  1.
         12    1    4    4    0    0  0.22254844904E+02  0.50180922433E+02 -0.56340288632E+02  0.78661497704E+02  0.00000000000E+00 0. -1.
         -5    1    5    5    0  502 -0.14262059235E+02  0.13751840233E+02 -0.28767503608E+03  0.28839475694E+03  0.47000000000E+01 0.  1.
         13    1    6    6    0    0 -0.39591376075E+01 -0.41046015925E+02 -0.22126978110E+02  0.46798005879E+02  0.00000000000E+00 0. -1.
        -14    1    6    6    0    0  0.40318525196E+02 -0.93340171508E+01 -0.42998992471E+02  0.59679315542E+02  0.00000000000E+00 0.  1.
</event>
<event>
12    1  0.8133506E-002  0.2110164E+03  0.7818608E-02  0.1140845E+00
         21   -1    0    0  501  502  0.00000000000E+00  0.00000000000E+00  0.42039600706E+03  0.42039600706E+03  0.00000000000E+00 0.  1.
         21   -1    0    0  502  503 -0.00000000000E+00 -0.00000000000E+00 -0.11476296287E+03  0.11476296287E+03  0.00000000000E+00 0.  1.
         -6    2    1    2    0  503 -0.12161596074E+03  0.73829424690E+01  0.77805086112E+02  0.22490343540E+03  0.17228747512E+03 0.  0.
        -24    2    3    3    0    0 -0.13838635064E+03 -0.30419830576E+02  0.36474343720E+02  0.16624667199E+03  0.78939407546E+02 0.  0.
          6    2    1    2  501    0  0.12161596074E+03 -0.73829424690E+01  0.22782795808E+03  0.31025553452E+03  0.17177883593E+03 0.  0.
         24    2    5    5    0    0  0.15365898558E+03 -0.71944724235E+01  0.16428001679E+03  0.23893077161E+03  0.80231823013E+02 0.  0.
          5    1    5    5  501    0 -0.32043024840E+02 -0.18847004554E+00  0.63547941291E+02  0.71324762910E+02  0.47000000000E+01 0. -1.
        -11    1    6    6    0    0  0.11402173596E+03 -0.40817229748E+02  0.12231317617E+03  0.17212645230E+03  0.00000000000E+00 0.  1.
         12    1    6    6    0    0  0.39637249617E+02  0.33622757325E+02  0.41966840618E+02  0.66804319312E+02  0.00000000000E+00 0. -1.
         -5    1    3    3    0  503  0.16770389896E+02  0.37802773045E+02  0.41330742392E+02  0.58656763411E+02  0.47000000000E+01 0.  1.
         13    1    4    4    0    0 -0.24921081474E+02  0.85525035085E+01  0.38029387584E+02  0.46264888826E+02  0.00000000000E+00 0. -1.
        -14    1    4    4    0    0 -0.11346526916E+03 -0.38972334084E+02 -0.15550438642E+01  0.11998178317E+03  0.00000000000E+00 0.  1.
</event>
<event>
12    1  0.8133506E-002  0.1909345E+03  0.7818608E-02  0.1157692E+00
         21   -1    0    0  501  502  0.00000000000E+00  0.00000000000E+00  0.20256584277E+04  0.20256584277E+04  0.00000000000E+00 0. -1.
         21   -1    0    0  502  503 -0.00000000000E+00 -0.00000000000E+00 -0.11603938212E+03  0.11603938212E+03  0.00000000000E+00 0. -1.
         -6    2    1    2    0  503  0.52020917928E+02 -0.63947982881E+02 -0.29527968260E+02  0.19320421105E+03  0.17222208290E+03 0.  0.
        -24    2    3    3    0    0  0.27973489432E+02 -0.93632803801E+02 -0.64049509003E+02  0.14150030224E+03  0.79814646980E+02 0.  0.
          6    2    1    2  501    0 -0.52020917928E+02  0.63947982881E+02  0.19391470138E+04  0.19484935987E+04  0.17187391529E+03 0.  0.
         24    2    5    5    0    0 -0.19073243515E+02  0.96659020725E+02  0.15950943547E+04  0.16012906559E+04  0.10049382826E+03 0.  0.
          5    1    5    5  501    0 -0.32947674413E+02 -0.32711037844E+02  0.34405265912E+03  0.34720294281E+03  0.47000000000E+01 0. -1.
        -11    1    6    6    0    0  0.13395071521E+02  0.59677376215E+02  0.35573079598E+03  0.36095043480E+03  0.00000000000E+00 0.  1.
         12    1    6    6    0    0 -0.32468315036E+02  0.36981644510E+02  0.12393635587E+04  0.12403402211E+04  0.00000000000E+00 0. -1.
         -5    1    3    3    0  503  0.24047428495E+02  0.29684820920E+02  0.34521540743E+02  0.51703908804E+02  0.47000000000E+01 0.  1.
         11    1    4    4    0    0  0.25876782439E+02 -0.69202080230E+02 -0.82549785614E+02  0.11078358580E+03  0.00000000000E+00 0. -1.
        -12    1    4    4    0    0  0.20967069933E+01 -0.24430723571E+02  0.18500276611E+02  0.30716716444E+02  0.00000000000E+00 0.  1.
</event>
<event>
12    1  0.8133506E-002  0.2137345E+03  0.7818608E-02  0.1138732E+00
         21   -1    0    0  501  502  0.00000000000E+00  0.00000000000E+00  0.17369303870E+04  0.17369303870E+04  0.00000000000E+00 0. -1.
         21   -1    0    0  502  503 -0.00000000000E+00 -0.00000000000E+00 -0.11474755323E+03  0.11474755323E+03  0.00000000000E+00 0. -1.
         -6    2    1    2    0  503 -0.94452855080E+02  0.84515711413E+02 -0.18088744782E+01  0.21374212368E+03  0.17209932046E+03 0.  0.
        -24    2    3    3    0    0 -0.22171612061E+02  0.98761995339E+02 -0.34534384959E+02  0.13299199220E+03  0.79048935102E+02 0.  0.
          6    2    1    2  501    0  0.94452855080E+02 -0.84515711413E+02  0.16239917083E+04  0.16379358165E+04  0.17152382737E+03 0.  0.
         24    2    5    5    0    0  0.79049443636E+02 -0.74851510189E+02  0.64134787036E+03  0.65511250383E+03  0.77419240164E+02 0.  0.
          5    1    5    5  501    0  0.15403411444E+02 -0.96642012233E+01  0.98264383789E+03  0.98282331272E+03  0.47000000000E+01 0. -1.
        -11    1    6    6    0    0  0.29864883308E+02 -0.70334558241E+02  0.27386808375E+03  0.28432831135E+03  0.00000000000E+00 0.  1.
         12    1    6    6    0    0  0.49184560328E+02 -0.45169519482E+01  0.36747978661E+03  0.37078419248E+03  0.00000000000E+00 0. -1.
         -5    1    3    3    0  503 -0.72281243019E+02 -0.14246283926E+02  0.32725510481E+02  0.80750131481E+02  0.47000000000E+01 0.  1.
         11    1    4    4    0    0  0.74187428249E+01  0.17086649473E+02  0.22395046249E+02  0.29129528520E+02  0.00000000000E+00 0. -1.
        -12    1    4    4    0    0 -0.29590354886E+02  0.81675345866E+02 -0.56929431208E+02  0.10386246368E+03  0.00000000000E+00 0.  1.
</event>
<event>
12    1  0.8133506E-002  0.2277669E+03  0.7818608E-02  0.1128240E+00
         21   -1    0    0  501  502  0.00000000000E+00  0.00000000000E+00  0.34407740933E+03  0.34407740933E+03  0.00000000000E+00 0. -1.
         21   -1    0    0  502  503 -0.00000000000E+00 -0.00000000000E+00 -0.18487980313E+03  0.18487980313E+03  0.00000000000E+00 0.  1.
         -6    2    1    2    0  503 -0.13093048644E+03 -0.77758743876E+02 -0.34094965768E+02  0.23030461815E+03  0.16937690493E+03 0.  0.
        -24    2    3    3    0    0 -0.90158941537E+02 -0.11821443213E+03 -0.15101544720E+02  0.16962660212E+03  0.80261078943E+02 0.  0.
          6    2    1    2  501    0  0.13093048644E+03  0.77758743876E+02  0.19329257197E+03  0.29865259431E+03  0.16923988650E+03 0.  0.
         24    2    5    5    0    0  0.21553834628E+02 -0.16374577879E+02  0.84842590276E+02  0.11807623164E+03  0.77530876213E+02 0.  0.
          5    1    5    5  501    0  0.10937665181E+03  0.94133321754E+02  0.10844998169E+03  0.18057636267E+03  0.47000000000E+01 0. -1.
        -11    1    6    6    0    0  0.12554094184E+02 -0.42854549735E+02  0.23059674863E+02  0.50257997558E+02  0.00000000000E+00 0.  1.
         12    1    6    6    0    0  0.89997404446E+01  0.26479971856E+02  0.61782915412E+02  0.67818234085E+02  0.00000000000E+00 0. -1.
         -5    1    3    3    0  503 -0.40771544902E+02  0.40455688252E+02 -0.18993421048E+02  0.60678016025E+02  0.47000000000E+01 0.  1.
         13    1    4    4    0    0  0.21015770397E+01 -0.32139627228E+01  0.18097041215E+02  0.18499975220E+02  0.00000000000E+00 0. -1.
        -14    1    4    4    0    0 -0.92260518577E+02 -0.11500046941E+03 -0.33198585935E+02  0.15112662690E+03  0.00000000000E+00 0.  1.
</event>
<event>
12    1  0.8133506E-002  0.1796352E+03  0.7818608E-02  0.1168388E+00
         21   -1    0    0  503  502  0.00000000000E+00  0.00000000000E+00  0.22618225650E+03  0.22618225650E+03  0.00000000000E+00 0.  1.
         21   -1    0    0  501  503 -0.00000000000E+00 -0.00000000000E+00 -0.14730437104E+03  0.14730437104E+03  0.00000000000E+00 0.  1.
          6    2    1    2  501    0 -0.52285513306E+02 -0.38936127977E+01  0.75265660569E+02  0.19476578558E+03  0.17181343501E+03 0.  0.
         24    2    3    3    0    0 -0.22551375629E+02  0.56922859917E+02  0.76763470596E+02  0.12689019548E+03  0.80372350765E+02 0.  0.
         -6    2    1    2    0  502  0.52285513306E+02  0.38936127977E+01  0.36122248942E+01  0.17872084195E+03  0.17081907404E+03 0.  0.
        -24    2    5    5    0    0 -0.22473755403E+02 -0.13749524033E+02 -0.37680195024E+02  0.91385955004E+02  0.78977696737E+02 0.  0.
          5    1    3    3  501    0 -0.29734137677E+02 -0.60816472715E+02 -0.14978100276E+01  0.67875590103E+02  0.47000000000E+01 0. -1.
        -11    1    4    4    0    0 -0.35001073967E+02 -0.15054178960E+01  0.82544218222E+01  0.35992734566E+02  0.00000000000E+00 0.  1.
         12    1    4    4    0    0  0.12449698339E+02  0.58428277813E+02  0.68509048774E+02  0.90897460915E+02  0.00000000000E+00 0. -1.
         -5    1    5    5    0  502  0.74759268709E+02  0.17643136830E+02  0.41292419918E+02  0.87334886946E+02  0.47000000000E+01 0.  1.
         11    1    6    6    0    0 -0.78228507462E+01 -0.60503039164E+01  0.24827267441E+02  0.26724452845E+02  0.00000000000E+00 0. -1.
        -12    1    6    6    0    0 -0.14650904657E+02 -0.76992201162E+01 -0.62507462465E+02  0.64661502159E+02  0.00000000000E+00 0.  1.
</event>
<event>
12    1  0.8133506E-002  0.1805275E+03  0.7818608E-02  0.1168657E+00
         21   -1    0    0  501  502  0.00000000000E+00  0.00000000000E+00  0.32093340211E+03  0.32093340211E+03  0.00000000000E+00 0. -1.
         21   -1    0    0  502  503 -0.00000000000E+00 -0.00000000000E+00 -0.14546517064E+03  0.14546517064E+03  0.00000000000E+00 0. -1.
         -6    2    1    2    0  503  0.25874813007E+02  0.85768135837E+01  0.21938034306E+03  0.28060710453E+03  0.17282807790E+03 0.  0.
        -24    2    3    3    0    0 -0.31090847969E+02  0.49938610754E+02  0.85359875972E+02  0.12914932033E+03  0.77024235433E+02 0.  0.
          6    2    1    2  501    0 -0.25874813007E+02 -0.85768135837E+01 -0.43912111588E+02  0.18579146822E+03  0.17845763766E+03 0.  0.
         24    2    5    5    0    0 -0.35146299450E+02  0.60700764052E+02 -0.77043407751E+01  0.10693440835E+03  0.80347779685E+02 0.  0.
          5    1    5    5  501    0  0.92714864430E+01 -0.69277577636E+02 -0.36207770813E+02  0.78857059869E+02  0.47000000000E+01 0. -1.
        -13    1    6    6    0    0  0.33901764348E+01  0.52058092774E+01  0.29265805016E+02  0.29917905838E+02  0.00000000000E+00 0.  1.
         14    1    6    6    0    0 -0.38536475885E+02  0.55494954775E+02 -0.36970145791E+02  0.77016502510E+02  0.00000000000E+00 0. -1.
         -5    1    3    3    0  503  0.56965660976E+02 -0.41361797170E+02  0.13402046709E+03  0.15145778420E+03  0.47000000000E+01 0.  1.
         11    1    4    4    0    0 -0.38035680550E+02  0.61829602757E+02  0.89053704578E+02  0.11489201483E+03  0.00000000000E+00 0. -1.
        -12    1    4    4    0    0  0.69448325809E+01 -0.11890992004E+02 -0.36938286058E+01  0.14257305502E+02  0.00000000000E+00 0.  1.
</event>
<event>
12    1  0.8133506E-002  0.1828176E+03  0.7818608E-02  0.1165168E+00
         21   -1    0    0  503  502  0.00000000000E+00  0.00000000000E+00  0.11426893745E+03  0.11426893745E+03  0.00000000000E+00 0. -1.
         21   -1    0    0  501  503 -0.00000000000E+00 -0.00000000000E+00 -0.67195663069E+03  0.67195663069E+03  0.00000000000E+00 0. -1.
          6    2    1    2  501    0  0.94978089620E+01  0.62044223690E+02 -0.57451691213E+03  0.60290292663E+03  0.17170487047E+03 0.  0.
         24    2    3    3    0    0 -0.20530795956E+02 -0.20456550578E+02 -0.38211118803E+03  0.39136061990E+03  0.79461882360E+02 0.  0.
         -6    2    1    2    0  502 -0.94978089620E+01 -0.62044223690E+02  0.16829218893E+02  0.18332264151E+03  0.17141841854E+03 0.  0.
        -24    2    5    5    0    0  0.24031072569E+02 -0.45349083671E+02 -0.51177555720E+02  0.10554137776E+03  0.76719022232E+02 0.  0.
          5    1    3    3  501    0  0.30028604918E+02  0.82500774268E+02 -0.19240572410E+03  0.21154230673E+03  0.47000000000E+01 0. -1.
        -11    1    4    4    0    0 -0.33183272472E+02 -0.16629039192E+02 -0.72329716931E+02  0.81297247603E+02  0.00000000000E+00 0.  1.
         12    1    4    4    0    0  0.12652476516E+02 -0.38275113853E+01 -0.30978147110E+03  0.31006337230E+03  0.00000000000E+00 0. -1.
         -5    1    5    5    0  502 -0.33528881531E+02 -0.16695140019E+02  0.68006774613E+02  0.77781263748E+02  0.47000000000E+01 0.  1.
         11    1    6    6    0    0 -0.20764456890E+02 -0.12883497075E+02 -0.43218494266E+02  0.49648619451E+02  0.00000000000E+00 0. -1.
        -12    1    6    6    0    0  0.44795529459E+02 -0.32465586596E+02 -0.79590614548E+01  0.55892758313E+02  0.00000000000E+00 0.  1.
</event>
<event>
12    1  0.8133506E-002  0.1800211E+03  0.7818608E-02  0.1168268E+00
         21   -1    0    0  501  502  0.00000000000E+00  0.00000000000E+00  0.34510057414E+02  0.34510057414E+02  0.00000000000E+00 0.  1.
         21   -1    0    0  502  503 -0.00000000000E+00 -0.00000000000E+00 -0.12652567234E+04  0.12652567234E+04  0.00000000000E+00 0.  1.
         -6    2    1    2    0  503 -0.48234243686E+02  0.20909656431E+02 -0.94803155893E+03  0.96460201869E+03  0.17008663010E+03 0.  0.
        -24    2    3    3    0    0 -0.12785272735E+02 -0.27813324368E+02 -0.25284386630E+03  0.26679217612E+03  0.79441804513E+02 0.  0.
          6    2    1    2  501    0  0.48234243686E+02 -0.20909656431E+02 -0.28271510709E+03  0.33516476216E+03  0.17217383663E+03 0.  0.
         24    2    5    5    0    0  0.25649015265E+02 -0.21496766796E+02 -0.29617348227E+03  0.30845043821E+03  0.79391172458E+02 0.  0.
          5    1    5    5  501    0  0.22585228420E+02  0.58711036543E+00  0.13458375182E+02  0.26714323947E+02  0.47000000000E+01 0. -1.
        -11    1    6    6    0    0  0.38908210618E+02  0.35738846841E+01 -0.67247267657E+02  0.77774137814E+02  0.00000000000E+00 0.  1.
         12    1    6    6    0    0 -0.13259195353E+02 -0.25070651480E+02 -0.22892621461E+03  0.23067630040E+03  0.00000000000E+00 0. -1.
         -5    1    3    3    0  503 -0.35448970950E+02  0.48722980799E+02 -0.69518769263E+03  0.69780984257E+03  0.47000000000E+01 0.  1.
         11    1    4    4    0    0 -0.64795972548E+01  0.23610287029E+02 -0.33990848160E+02  0.41890435577E+02  0.00000000000E+00 0. -1.
        -12    1    4    4    0    0 -0.63056754806E+01 -0.51423611397E+02 -0.21885301814E+03  0.22490174055E+03  0.00000000000E+00 0.  1.
</event>
<event>
12    1  0.8133506E-002  0.2213853E+03  0.7818608E-02  0.1132934E+00
         21   -1    0    0  501  502  0.00000000000E+00  0.00000000000E+00  0.60858934789E+03  0.60858934789E+03  0.00000000000E+00 0. -1.
         21   -1    0    0  502  503 -0.00000000000E+00 -0.00000000000E+00 -0.96324340672E+02  0.96324340672E+02  0.00000000000E+00 0. -1.
         -6    2    1    2    0  503  0.11782481835E+03  0.74367566039E+02  0.11292845338E+03  0.24852419489E+03  0.17204132400E+03 0.  0.
        -24    2    3    3    0    0  0.93855943657E+02  0.11479840441E+03  0.62243685262E+02  0.17924075268E+03  0.79154022334E+02 0.  0.
          6    2    1    2  501    0 -0.11782481835E+03 -0.74367566039E+02  0.39933655385E+03  0.45638949368E+03  0.17148896176E+03 0.  0.
         24    2    5    5    0    0 -0.75432041249E+02  0.25157636364E+02  0.20181390816E+03  0.23113475117E+03  0.79821802524E+02 0.  0.
          5    1    5    5  501    0 -0.42392777099E+02 -0.99525202404E+02  0.19752264568E+03  0.22525474251E+03  0.47000000000E+01 0. -1.
        -13    1    6    6    0    0  0.13815500059E+02  0.10860584813E+02  0.13187739713E+02  0.21971272678E+02  0.00000000000E+00 0.  1.
         14    1    6    6    0    0 -0.89247541309E+02  0.14297051552E+02  0.18862616845E+03  0.20916347849E+03  0.00000000000E+00 0. -1.
         -5    1    3    3    0  503  0.23968874692E+02 -0.40430838369E+02  0.50684768114E+02  0.69283442206E+02  0.47000000000E+01 0.  1.
         11    1    4    4    0    0  0.26450850783E+02  0.78640818668E+02  0.60579200507E+02  0.10273200768E+03  0.00000000000E+00 0. -1.
        -12    1    4    4    0    0  0.67405092873E+02  0.36157585740E+02  0.16644847542E+01  0.76508744999E+02  0.00000000000E+00 0.  1.
</event>
<event>
12    1  0.8133506E-002  0.1838822E+03  0.7818608E-02  0.1164329E+00
         21   -1    0    0  501  502  0.00000000000E+00  0.00000000000E+00  0.48588862706E+03  0.48588862706E+03  0.00000000000E+00 0. -1.
         21   -1    0    0  502  503 -0.00000000000E+00 -0.00000000000E+00 -0.10987617920E+03  0.10987617920E+03  0.00000000000E+00 0. -1.
         -6    2    1    2    0  503 -0.32208741685E+02 -0.56781849973E+02  0.36952122005E+03  0.41274517317E+03  0.17190423026E+03 0.  0.
        -24    2    3    3    0    0 -0.11833945338E+02 -0.87732624235E+02  0.35134119209E+03  0.37120379416E+03  0.80712873337E+02 0.  0.
          6    2    1    2  501    0  0.32208741685E+02  0.56781849973E+02  0.64912278170E+01  0.18301963310E+03  0.17085803620E+03 0.  0.
         24    2    5    5    0    0 -0.34216851756E+02  0.76579795123E+01  0.38120907993E+02  0.94430464565E+02  0.78958669045E+02 0.  0.
          5    1    5    5  501    0  0.66425593441E+02  0.49123870460E+02 -0.31629680176E+02  0.88589168531E+02  0.47000000000E+01 0. -1.
        -11    1    6    6    0    0 -0.12109759145E+02 -0.25100903100E+02 -0.12219274424E+02  0.30430449724E+02  0.00000000000E+00 0.  1.
         12    1    6    6    0    0 -0.22107092610E+02  0.32758882612E+02  0.50340182418E+02  0.64000014840E+02  0.00000000000E+00 0. -1.
         -5    1    3    3    0  503 -0.20374796348E+02  0.30950774262E+02  0.18180027960E+02  0.41541379012E+02  0.47000000000E+01 0.  1.
         11    1    4    4    0    0 -0.20175289528E+02 -0.80881354179E+02  0.35061142803E+03  0.36038480715E+03  0.00000000000E+00 0. -1.
        -12    1    4    4    0    0  0.83413441900E+01 -0.68512700554E+01  0.72976405927E+00  0.10818987007E+02  0.00000000000E+00 0.  1.
</event>
<event>
12    1  0.8133506E-002  0.1728441E+03  0.7818608E-02  0.1175630E+00
         21   -1    0    0  503  502  0.00000000000E+00  0.00000000000E+00  0.44165332162E+03  0.44165332162E+03  0.00000000000E+00 0.  1.
         21   -1    0    0  501  503 -0.00000000000E+00 -0.00000000000E+00 -0.18713461476E+03  0.18713461476E+03  0.00000000000E+00 0.  1.
          6    2    1    2  501    0  0.23414690078E+01 -0.21721411726E+02 -0.12473337526E+03  0.21315133392E+03  0.17145779085E+03 0.  0.
         24    2    3    3    0    0 -0.23217758516E+02  0.36879845577E+02 -0.11776535116E+03  0.14866858562E+03  0.79589465982E+02 0.  0.
         -6    2    1    2    0  502 -0.23414690078E+01  0.21721411726E+02  0.37925208212E+03  0.41563660246E+03  0.16865450279E+03 0.  0.
        -24    2    5    5    0    0  0.13693292393E+02  0.19640277060E+02  0.82722849979E+02  0.11862966617E+03  0.81588485997E+02 0.  0.
          5    1    3    3  501    0  0.25559227524E+02 -0.58601257302E+02 -0.69680240990E+01  0.64482748304E+02  0.47000000000E+01 0. -1.
        -13    1    4    4    0    0 -0.21897513756E+02  0.37567418803E+02 -0.12962081620E+03  0.13672003531E+03  0.00000000000E+00 0.  1.
         14    1    4    4    0    0 -0.13202447608E+01 -0.68757322693E+00  0.11855465036E+02  0.11948550305E+02  0.00000000000E+00 0. -1.
         -5    1    5    5    0  502 -0.16034761401E+02  0.20811346659E+01  0.29652923214E+03  0.29700693629E+03  0.47000000000E+01 0.  1.
         11    1    6    6    0    0 -0.18214439773E+02  0.31261585600E+02  0.75772646509E+02  0.83967532472E+02  0.00000000000E+00 0. -1.
        -12    1    6    6    0    0  0.31907732166E+02 -0.11621308540E+02  0.69502034702E+01  0.34662133697E+02  0.00000000000E+00 0.  1.
</event>
<event>
12    1  0.8133506E-002  0.2022277E+03  0.7818608E-02  0.1148633E+00
         21   -1    0    0  501  502  0.00000000000E+00  0.00000000000E+00  0.43988389004E+03  0.43988389004E+03  0.00000000000E+00 0. -1.
         21   -1    0    0  502  503 -0.00000000000E+00 -0.00000000000E+00 -0.14633955297E+03  0.14633955297E+03  0.00000000000E+00 0. -1.
         -6    2    1    2    0  503 -0.98751953388E+02  0.46393099918E+01 -0.32133396929E+02  0.20476472034E+03  0.17641588365E+03 0.  0.
        -24    2    3    3    0    0 -0.12523397095E+03  0.34512986814E+02  0.26677632699E+01  0.15159570143E+03  0.78098950008E+02 0.  0.
          6    2    1    2  501    0  0.98751953388E+02 -0.46393099918E+01  0.32567773400E+03  0.38145872267E+03  0.17225358975E+03 0.  0.
         24    2    5    5    0    0  0.54719816075E+02 -0.40730595065E+02  0.15072558627E+03  0.19741591795E+03  0.10771073604E+03 0.  0.
          5    1    5    5  501    0  0.44032137313E+02  0.36091285073E+02  0.17495214773E+03  0.18404280472E+03  0.47000000000E+01 0. -1.
        -11    1    6    6    0    0 -0.31796255701E+02 -0.22725902711E+02  0.48574034975E+02  0.62345051162E+02  0.00000000000E+00 0.  1.
         12    1    6    6    0    0  0.86516071776E+02 -0.18004692354E+02  0.10215155130E+03  0.13507086679E+03  0.00000000000E+00 0. -1.
         -5    1    3    3    0  503  0.26482017560E+02 -0.29873676822E+02 -0.34801160199E+02  0.53169018912E+02  0.47000000000E+01 0.  1.
         11    1    4    4    0    0 -0.49436379746E+02 -0.12754030880E+02 -0.26634276990E+02  0.57584769313E+02  0.00000000000E+00 0. -1.
        -12    1    4    4    0    0 -0.75797591201E+02  0.47267017694E+02  0.29302040259E+02  0.94010932114E+02  0.00000000000E+00 0.  1.
</event>
<event>
12    1  0.8133506E-002  0.2309494E+03  0.7818608E-02  0.1126432E+00
         21   -1    0    0  503  502  0.00000000000E+00  0.00000000000E+00  0.45143349604E+03  0.45143349604E+03  0.00000000000E+00 0.  1.
         21   -1    0    0  501  503 -0.00000000000E+00 -0.00000000000E+00 -0.23675139564E+03  0.23675139564E+03  0.00000000000E+00 0.  1.
          6    2    1    2  501    0  0.12863173768E+03  0.76085853172E+02 -0.13725781160E+03  0.26865837616E+03  0.17607508410E+03 0.  0.
         24    2    3    3    0    0  0.12900264445E+02  0.12747014261E+02 -0.47640967696E+01  0.81622933308E+02  0.79439935980E+02 0.  0.
         -6    2    1    2    0  502 -0.12863173768E+03 -0.76085853172E+02  0.35193991200E+03  0.41952651553E+03  0.17264302644E+03 0.  0.
        -24    2    5    5    0    0 -0.27892332236E+02  0.14903400586E+02  0.85243740673E+02  0.12023333166E+03  0.78673154070E+02 0.  0.
          5    1    3    3  501    0  0.11573147323E+03  0.63338838911E+02 -0.13249371483E+03  0.18703544285E+03  0.47000000000E+01 0. -1.
        -11    1    4    4    0    0 -0.10772739117E+02  0.32478518078E+02 -0.27027112374E+02  0.43604711304E+02  0.00000000000E+00 0.  1.
         12    1    4    4    0    0  0.23673003562E+02 -0.19731503817E+02  0.22263015604E+02  0.38018222004E+02  0.00000000000E+00 0. -1.
         -5    1    5    5    0  502 -0.10073940544E+03 -0.90989253758E+02  0.26669617133E+03  0.29929318387E+03  0.47000000000E+01 0.  1.
         11    1    6    6    0    0 -0.49590188030E+02  0.14303512467E+02  0.27363711495E+02  0.58417034541E+02  0.00000000000E+00 0. -1.
        -12    1    6    6    0    0  0.21697855794E+02  0.59988811837E+00  0.57880029177E+02  0.61816297118E+02  0.00000000000E+00 0.  1.
</event>
<event>
12    1  0.8133506E-002  0.1780262E+03  0.7818608E-02  0.1170146E+00
         21   -1    0    0  503  502  0.00000000000E+00  0.00000000000E+00  0.78406033348E+02  0.78406033348E+02  0.00000000000E+00 0. -1.
         21   -1    0    0  501  503 -0.00000000000E+00 -0.00000000000E+00 -0.70597244530E+03  0.70597244530E+03  0.00000000000E+00 0. -1.
          6    2    1    2  501    0 -0.23634263545E+02 -0.32414734444E+02 -0.57267076876E+03  0.59970420014E+03  0.17344746999E+03 0.  0.
         24    2    3    3    0    0 -0.50760657716E+02 -0.83380992063E+02 -0.38683812898E+03  0.40505256083E+03  0.69962881547E+02 0.  0.
         -6    2    1    2    0  502  0.23634263545E+02  0.32414734444E+02 -0.54895643194E+02  0.18467427851E+03  0.17170254535E+03 0.  0.
        -24    2    5    5    0    0 -0.12765392004E+02  0.68382710629E+02 -0.74920291468E+02  0.12952260788E+03  0.79522987451E+02 0.  0.
          5    1    3    3  501    0  0.27126394171E+02  0.50966257619E+02 -0.18583263978E+03  0.19465163930E+03  0.47000000000E+01 0. -1.
        -13    1    4    4    0    0 -0.24376420399E+02 -0.35226501706E+02 -0.29467437601E+03  0.29777189956E+03  0.00000000000E+00 0.  1.
         14    1    4    4    0    0 -0.26384237317E+02 -0.48154490357E+02 -0.92163752976E+02  0.10728066127E+03  0.00000000000E+00 0. -1.
         -5    1    5    5    0  502  0.36399655549E+02 -0.35967976184E+02  0.20024648274E+02  0.55151670631E+02  0.47000000000E+01 0.  1.
         11    1    6    6    0    0 -0.25057458956E+02 -0.33677735059E+01 -0.31254746470E+00  0.25284695640E+02  0.00000000000E+00 0. -1.
        -12    1    6    6    0    0  0.12292066952E+02  0.71750484135E+02 -0.74607744003E+02  0.10423791224E+03  0.00000000000E+00 0.  1.
</event>
<event>
12    1  0.8133506E-002  0.1754234E+03  0.7818608E-02  0.1172872E+00
         21   -1    0    0  503  502  0.00000000000E+00  0.00000000000E+00  0.16048247772E+03  0.16048247772E+03  0.00000000000E+00 0. -1.
         21   -1    0    0  501  503 -0.00000000000E+00 -0.00000000000E+00 -0.26413516339E+03  0.26413516339E+03  0.00000000000E+00 0. -1.
          6    2    1    2  501    0 -0.16966009933E+02 -0.11649558379E+02 -0.16506278968E+03  0.24087150055E+03  0.17421193281E+03 0.  0.
         24    2    3    3    0    0 -0.38958060700E+02  0.31178527670E+02 -0.16867063237E+03  0.19236375085E+03  0.77872969243E+02 0.  0.
         -6    2    1    2    0  502  0.16966009933E+02  0.11649558379E+02  0.61410104014E+02  0.18374614057E+03  0.17195314942E+03 0.  0.
        -24    2    5    5    0    0  0.49238738290E+02  0.20178322708E+02  0.96010318757E+02  0.13543947770E+03  0.79336326844E+02 0.  0.
          5    1    3    3  501    0  0.21992050766E+02 -0.42828086049E+02  0.36078426845E+01  0.48507749693E+02  0.47000000000E+01 0. -1.
        -13    1    4    4    0    0 -0.64650104544E+01  0.26427048521E+02 -0.79807503770E+01  0.28352735852E+02  0.00000000000E+00 0.  1.
         14    1    4    4    0    0 -0.32493050245E+02  0.47514791489E+01 -0.16068988199E+03  0.16401101500E+03  0.00000000000E+00 0. -1.
         -5    1    5    5    0  502 -0.32272728357E+02 -0.85287643298E+01 -0.34600214743E+02  0.48306662862E+02  0.47000000000E+01 0.  1.
         13    1    6    6    0    0 -0.72529764143E+01 -0.23173947310E+02  0.26094274394E+02  0.35644756374E+02  0.00000000000E+00 0. -1.
        -14    1    6    6    0    0  0.56491714704E+02  0.43352270018E+02  0.69916044363E+02  0.99794721330E+02  0.00000000000E+00 0.  1.
</event>
<event>
12    1  0.8133506E-002  0.2075573E+03  0.7818608E-02  0.1143640E+00
         21   -1    0    0  501  502  0.00000000000E+00  0.00000000000E+00  0.12613519473E+03  0.12613519473E+03  0.00000000000E+00 0.  1.
         21   -1    0    0  502  503 -0.00000000000E+00 -0.00000000000E+00 -0.39325362120E+03  0.39325362120E+03  0.00000000000E+00 0. -1.
         -6    2    1    2    0  503 -0.11279928504E+03  0.26898020655E+02 -0.38630703976E+02  0.21112170271E+03  0.17214197584E+03 0.  0.
        -24    2    3    3    0    0 -0.27948987939E+02 -0.58705012516E+01  0.38388325165E+02  0.91843164008E+02  0.78395755971E+02 0.  0.
          6    2    1    2  501    0  0.11279928504E+03 -0.26898020655E+02 -0.22848772249E+03  0.30826711322E+03  0.17139075688E+03 0.  0.
         24    2    5    5    0    0  0.10191426107E+03  0.38644336360E+02 -0.18356063843E+03  0.22792523627E+03  0.79846753254E+02 0.  0.
          5    1    5    5  501    0  0.10885023970E+02 -0.65542357015E+02 -0.44927084055E+02  0.80341876949E+02  0.47000000000E+01 0. -1.
        -11    1    6    6    0    0  0.34587194517E+02 -0.20728531984E+02 -0.30793480277E+02  0.50736421734E+02  0.00000000000E+00 0.  1.
         12    1    6    6    0    0  0.67327066550E+02  0.59372868344E+02 -0.15276715816E+03  0.17718881454E+03  0.00000000000E+00 0. -1.
         -5    1    3    3    0  503 -0.84850297098E+02  0.32768521907E+02 -0.77019029141E+02  0.11927853870E+03  0.47000000000E+01 0.  1.
         13    1    4    4    0    0 -0.64883252615E+01 -0.41410557693E+02  0.18902331487E+02  0.45980765422E+02  0.00000000000E+00 0. -1.
        -14    1    4    4    0    0 -0.21460662677E+02  0.35540056442E+02  0.19485993677E+02  0.45862398586E+02  0.00000000000E+00 0.  1.
</event>
<event>
12    1  0.8133506E-002  0.1778645E+03  0.7818608E-02  0.1172781E+00
         21   -1    0    0  503  502  0.00000000000E+00  0.00000000000E+00  0.51920544705E+03  0.51920544705E+03  0.00000000000E+00 0.  1.
         21   -1    0    0  501  503 -0.00000000000E+00 -0.00000000000E+00 -0.59272578862E+02  0.59272578862E+02  0.00000000000E+00 0.  1.
          6    2    1    2  501    0 -0.37487565150E+02 -0.74337075445E+01  0.18191279588E+03  0.25441705028E+03  0.17371008209E+03 0.  0.
         24    2    3    3    0    0 -0.62093964004E+02  0.46304802182E+02  0.81657767669E+02  0.13794188995E+03  0.79750729848E+02 0.  0.
         -6    2    1    2    0  502  0.37487565150E+02  0.74337075445E+01  0.27802007231E+03  0.32406097564E+03  0.16204868951E+03 0.  0.
        -24    2    5    5    0    0  0.49134154888E+02 -0.29682253671E+02  0.26517059249E+03  0.28282462321E+03  0.79869412268E+02 0.  0.
          5    1    3    3  501    0  0.24606398853E+02 -0.53738509727E+02  0.10025502821E+03  0.11647516033E+03  0.47000000000E+01 0. -1.
        -11    1    4    4    0    0 -0.81059142665E+02  0.35432124924E+02  0.71917256542E+02  0.11400926223E+03  0.00000000000E+00 0.  1.
         12    1    4    4    0    0  0.18965178661E+02  0.10872677258E+02  0.97405111276E+01  0.23932627717E+02  0.00000000000E+00 0. -1.
         -5    1    5    5    0  502 -0.11646589737E+02  0.37115961215E+02  0.12849479825E+02  0.41236352423E+02  0.47000000000E+01 0.  1.
         11    1    6    6    0    0 -0.10927062842E+02  0.10904486082E+02  0.12208931185E+02  0.19681628991E+02  0.00000000000E+00 0. -1.
        -12    1    6    6    0    0  0.60061217730E+02 -0.40586739753E+02  0.25296166130E+03  0.26314299422E+03  0.00000000000E+00 0.  1.
</event>
<event>
12    1  0.8133506E-002  0.2151029E+03  0.7818608E-02  0.1137759E+00
         21   -1    0    0  503  502  0.00000000000E+00  0.00000000000E+00  0.25286361893E+03  0.25286361893E+03  0.00000000000E+00 0.  1.
         21   -1    0    0  501  503 -0.00000000000E+00 -0.00000000000E+00 -0.19824614843E+03  0.19824614843E+03  0.00000000000E+00 0. -1.
          6    2    1    2  501    0 -0.96217183965E+02 -0.85631270668E+02  0.91485182513E+02  0.23374944488E+03  0.17227537071E+03 0.  0.
         24    2    3    3    0    0 -0.11005785893E+03 -0.58871147251E+02  0.12053764521E+03  0.19163289139E+03  0.81334475230E+02 0.  0.
         -6    2    1    2    0  502  0.96217183965E+02  0.85631270668E+02 -0.36867712013E+02  0.21736032248E+03  0.17116021907E+03 0.  0.
        -24    2    5    5    0    0  0.12847193190E+03  0.88205593599E+02 -0.10357973316E+02  0.17526694831E+03  0.79535850604E+02 0.  0.
          5    1    3    3  501    0  0.13840674960E+02 -0.26760123417E+02 -0.29052462698E+02  0.42116553485E+02  0.47000000000E+01 0. -1.
        -13    1    4    4    0    0 -0.49866268945E+02  0.16445515224E+02  0.44979205504E+02  0.69139197834E+02  0.00000000000E+00 0.  1.
         14    1    4    4    0    0 -0.60191589981E+02 -0.75316662475E+02  0.75558439706E+02  0.12249369356E+03  0.00000000000E+00 0. -1.
         -5    1    5    5    0  502 -0.32254747937E+02 -0.25743229301E+01 -0.26509738697E+02  0.42093374167E+02  0.47000000000E+01 0.  1.
         11    1    6    6    0    0  0.12098298139E+03  0.55965256443E+02 -0.30197058809E+02  0.13667792095E+03  0.00000000000E+00 0. -1.
        -12    1    6    6    0    0  0.74889505131E+01  0.32240337155E+02  0.19839085493E+02  0.38589027364E+02  0.00000000000E+00 0.  1.
</event>
<event>
12    1  0.8133506E-002  0.1997563E+03  0.7818608E-02  0.1149955E+00
         21   -1    0    0  503  502  0.00000000000E+00  0.00000000000E+00  0.16137430180E+03  0.16137430180E+03  0.00000000000E+00 0.  1.
         21   -1    0    0  501  503 -0.00000000000E+00 -0.00000000000E+00 -0.44336026865E+03  0.44336026865E+03  0.00000000000E+00 0. -1.
          6    2    1    2  501    0  0.76591503493E+02  0.66428164013E+02 -0.34210312627E+03  0.39612814957E+03  0.17205813697E+03 0.  0.
         24    2    3    3    0    0 -0.18092042997E+01  0.62852160686E+01 -0.24498327480E+03  0.25749842433E+03  0.79030731000E+02 0.  0.
         -6    2    1    2    0  502 -0.76591503493E+02 -0.66428164013E+02  0.60117159420E+02  0.20860642088E+03  0.17211509693E+03 0.  0.
        -24    2    5    5    0    0 -0.43649412571E+02 -0.75920750195E+00 -0.28868907608E+02  0.93115281265E+02  0.77014246505E+02 0.  0.
          5    1    3    3  501    0  0.78400707793E+02  0.60142947945E+02 -0.97119851469E+02  0.13862972524E+03  0.47000000000E+01 0. -1.
        -13    1    4    4    0    0  0.33980960902E+02  0.14248613713E+02 -0.17103758452E+03  0.17496166441E+03  0.00000000000E+00 0.  1.
         14    1    4    4    0    0 -0.35790165202E+02 -0.79633976442E+01 -0.73945690281E+02  0.82536759922E+02  0.00000000000E+00 0. -1.
         -5    1    5    5    0  502 -0.32942090922E+02 -0.65668956511E+02  0.88986067028E+02  0.11549113961E+03  0.47000000000E+01 0.  1.
         13    1    6    6    0    0 -0.56208415897E+02 -0.24725389250E+02 -0.21653806093E+02  0.65112350668E+02  0.00000000000E+00 0. -1.
        -14    1    6    6    0    0  0.12559003326E+02  0.23966181748E+02 -0.72151015156E+01  0.28002930597E+02  0.00000000000E+00 0.  1.
</event>
<event>
12    1  0.8133506E-002  0.1721517E+03  0.7818608E-02  0.1177834E+00
         21   -1    0    0  503  502  0.00000000000E+00  0.00000000000E+00  0.57165271641E+02  0.57165271641E+02  0.00000000000E+00 0. -1.
         21   -1    0    0  501  503 -0.00000000000E+00 -0.00000000000E+00 -0.12543769404E+04  0.12543769404E+04  0.00000000000E+00 0. -1.
          6    2    1    2  501    0  0.10052302751E+02  0.85808715969E+01 -0.11034075537E+04  0.11154927169E+04  0.16322099061E+03 0.  0.
         24    2    3    3    0    0  0.14908818762E+01  0.58608807068E+02 -0.49184481052E+03  0.50180943451E+03  0.80400099088E+02 0.  0.
         -6    2    1    2    0  502 -0.10052302751E+02 -0.85808715969E+01 -0.93804115039E+02  0.19604949511E+03  0.17164356203E+03 0.  0.
        -24    2    5    5    0    0 -0.11846310769E+02  0.35641441631E+02 -0.11700668766E+03  0.14585705715E+03  0.78568878836E+02 0.  0.
          5    1    3    3  501    0  0.85614208748E+01 -0.50027935471E+02 -0.61156274315E+03  0.61368328238E+03  0.47000000000E+01 0. -1.
        -13    1    4    4    0    0  0.32759751006E+02  0.27591222693E+02 -0.12096972467E+03  0.12832829439E+03  0.00000000000E+00 0.  1.
         14    1    4    4    0    0 -0.31268869130E+02  0.31017584375E+02 -0.37087508585E+03  0.37348114012E+03  0.00000000000E+00 0. -1.
         -5    1    5    5    0  502  0.17940080183E+01 -0.44222313228E+02  0.23202572624E+02  0.50192437960E+02  0.47000000000E+01 0.  1.
         11    1    6    6    0    0 -0.13694890783E+02  0.10427230399E+01  0.81651673672E+01  0.15978337305E+02  0.00000000000E+00 0. -1.
        -12    1    6    6    0    0  0.18485800140E+01  0.34598718591E+02 -0.12517185503E+03  0.12987871984E+03  0.00000000000E+00 0.  1.
</event>
<event>
12    1  0.8133506E-002  0.3168302E+03  0.7818608E-02  0.1077286E+00
         21   -1    0    0  501  502  0.00000000000E+00  0.00000000000E+00  0.43754426688E+03  0.43754426688E+03  0.00000000000E+00 0.  1.
         21   -1    0    0  502  503 -0.00000000000E+00 -0.00000000000E+00 -0.30754297065E+03  0.30754297065E+03  0.00000000000E+00 0. -1.
         -6    2    1    2    0  503  0.24510172476E+03  0.10193109376E+03  0.25390190892E+03  0.40489211458E+03  0.17031336336E+03 0.  0.
        -24    2    3    3    0    0  0.15628719624E+03  0.34647695785E+02  0.23015272093E+03  0.29086935348E+03  0.77514871525E+02 0.  0.
          6    2    1    2  501    0 -0.24510172476E+03 -0.10193109376E+03 -0.12390061270E+03  0.34019512296E+03  0.17296403240E+03 0.  0.
         24    2    5    5    0    0 -0.11689770335E+03 -0.12216979690E+03 -0.67108414800E+02  0.19844421484E+03  0.79284517674E+02 0.  0.
          5    1    5    5  501    0 -0.12820402141E+03  0.20238703144E+02 -0.56792197896E+02  0.14175090812E+03  0.47000000000E+01 0. -1.
        -11    1    6    6    0    0 -0.12139291974E+03 -0.88506629715E+02 -0.41349397861E+02  0.15581860341E+03  0.00000000000E+00 0.  1.
         12    1    6    6    0    0  0.44952163936E+01 -0.33663167189E+02 -0.25759016939E+02  0.42625611424E+02  0.00000000000E+00 0. -1.
         -5    1    3    3    0  503  0.88814528519E+02  0.67283397974E+02  0.23749187988E+02  0.11402276110E+03  0.47000000000E+01 0.  1.
         11    1    4    4    0    0  0.84130376120E+02 -0.63096358926E+00  0.61971196292E+02  0.10449281062E+03  0.00000000000E+00 0. -1.
        -12    1    4    4    0    0  0.72156820117E+02  0.35278659375E+02  0.16818152464E+03  0.18637654286E+03  0.00000000000E+00 0.  1.
</event>
<event>
12    1  0.8133506E-002  0.1885151E+03  0.7818608E-02  0.1159899E+00
         21   -1    0    0  501  502  0.00000000000E+00  0.00000000000E+00  0.56830428952E+03  0.56830428952E+03  0.00000000000E+00 0. -1.
         21   -1    0    0  502  503 -0.00000000000E+00 -0.00000000000E+00 -0.13137578704E+03  0.13137578704E+03  0.00000000000E+00 0. -1.
         -6    2    1    2    0  503  0.41347054753E+02  0.64767339356E+02 -0.35133795386E+02  0.19136838682E+03  0.17170640266E+03 0.  0.
        -24    2    3    3    0    0  0.84672716812E+02 -0.28467403151E+01 -0.17501062750E+02  0.10901682325E+03  0.66338583429E+02 0.  0.
          6    2    1    2  501    0 -0.41347054753E+02 -0.64767339356E+02  0.47206229786E+03  0.50831168973E+03  0.17214404919E+03 0.  0.
         24    2    5    5    0    0 -0.24700639970E+02 -0.61371982064E+01  0.42093283737E+03  0.42861910346E+03  0.76694820292E+02 0.  0.
          5    1    5    5  501    0 -0.16646414784E+02 -0.58630141150E+02  0.51129460496E+02  0.79692586274E+02  0.47000000000E+01 0. -1.
        -13    1    6    6    0    0  0.10649467501E+02  0.15202674782E+02  0.28446626310E+02  0.33966793005E+02  0.00000000000E+00 0.  1.
         14    1    6    6    0    0 -0.35350107470E+02 -0.21339872989E+02  0.39248621106E+03  0.39465231046E+03  0.00000000000E+00 0. -1.
         -5    1    3    3    0  503 -0.43325662059E+02  0.67614079671E+02 -0.17632732636E+02  0.82351563573E+02  0.47000000000E+01 0.  1.
         13    1    4    4    0    0  0.92577608555E+02  0.62854114602E+01 -0.23221733618E+02  0.95652333559E+02  0.00000000000E+00 0. -1.
        -14    1    4    4    0    0 -0.79048917429E+01 -0.91321517753E+01  0.57206708688E+01  0.13364489691E+02  0.00000000000E+00 0.  1.
</event>
<event>
12    1  0.8133506E-002  0.2048045E+03  0.7818608E-02  0.1146297E+00
         21   -1    0    0  501  502  0.00000000000E+00  0.00000000000E+00  0.35297931060E+03  0.35297931060E+03  0.00000000000E+00 0.  1.
         21   -1    0    0  502  503 -0.00000000000E+00 -0.00000000000E+00 -0.37579746979E+03  0.37579746979E+03  0.00000000000E+00 0.  1.
         -6    2    1    2    0  503  0.69773490237E+02  0.80911742195E+02 -0.31360577190E+03  0.37310515928E+03  0.17159204454E+03 0.  0.
        -24    2    3    3    0    0  0.45152203819E+02 -0.22683590669E+02 -0.16344832979E+03  0.18896513605E+03  0.80244621848E+02 0.  0.
          6    2    1    2  501    0 -0.69773490237E+02 -0.80911742195E+02  0.29078761270E+03  0.35567162111E+03  0.17472783522E+03 0.  0.
         24    2    5    5    0    0 -0.10491882429E+03 -0.55823782838E+02  0.27504136638E+03  0.30946951636E+03  0.77455625482E+02 0.  0.
          5    1    5    5  501    0  0.35145334048E+02 -0.25087959358E+02  0.15746246324E+02  0.46202104751E+02  0.47000000000E+01 0. -1.
        -11    1    6    6    0    0 -0.85814101359E+02 -0.32343351014E+01  0.16338011292E+03  0.18457405618E+03  0.00000000000E+00 0.  1.
         12    1    6    6    0    0 -0.19104722926E+02 -0.52589447736E+02  0.11166125346E+03  0.12489546018E+03  0.00000000000E+00 0. -1.
         -5    1    3    3    0  503  0.24621286418E+02  0.10359533286E+03 -0.15015744211E+03  0.18414002323E+03  0.47000000000E+01 0.  1.
         13    1    4    4    0    0 -0.20874422839E+02 -0.11266869288E+02 -0.21578406610E+02  0.32067296491E+02  0.00000000000E+00 0. -1.
        -14    1    4    4    0    0  0.66026626658E+02 -0.11416721381E+02 -0.14186992318E+03  0.15689783956E+03  0.00000000000E+00 0.  1.
</event>
<event>
12    1  0.8133506E-002  0.2032152E+03  0.7818608E-02  0.1147157E+00
         21   -1    0    0  503  502  0.00000000000E+00  0.00000000000E+00  0.16624045720E+03  0.16624045720E+03  0.00000000000E+00 0. -1.
         21   -1    0    0  501  503 -0.00000000000E+00 -0.00000000000E+00 -0.31254745418E+03  0.31254745418E+03  0.00000000000E+00 0.  1.
          6    2    1    2  501    0  0.26328898634E+02  0.10315123667E+03 -0.18203460012E+03  0.27245593665E+03  0.17251739983E+03 0.  0.
         24    2    3    3    0    0  0.72560522854E+02  0.32619691345E+02 -0.13300275618E+03  0.17479185070E+03  0.80829352217E+02 0.  0.
         -6    2    1    2    0  502 -0.26328898634E+02 -0.10315123667E+03  0.35727603132E+02  0.20633197474E+03  0.17309833519E+03 0.  0.
        -24    2    5    5    0    0  0.51527800187E+02 -0.62173527427E+02  0.73358464591E+01  0.11376297316E+03  0.79796852786E+02 0.  0.
          5    1    3    3  501    0 -0.46231624220E+02  0.70531545322E+02 -0.49031843937E+02  0.97664085945E+02  0.47000000000E+01 0. -1.
        -11    1    4    4    0    0  0.31148814062E+00 -0.43204036115E+01 -0.74815306974E+02  0.74940596941E+02  0.00000000000E+00 0.  1.
         12    1    4    4    0    0  0.72249034714E+02  0.36940094957E+02 -0.58187449207E+02  0.99851253761E+02  0.00000000000E+00 0. -1.
         -5    1    5    5    0  502 -0.77856698821E+02 -0.40977709240E+02  0.28391756673E+02  0.92569001576E+02  0.47000000000E+01 0.  1.
         13    1    6    6    0    0 -0.14723216779E+02  0.24806213792E+01  0.14631998744E+02  0.20905070725E+02  0.00000000000E+00 0. -1.
        -14    1    6    6    0    0  0.66251016966E+02 -0.64654148807E+02 -0.72961522853E+01  0.92857902437E+02  0.00000000000E+00 0.  1.
</event>
<event>
12    1  0.8133506E-002  0.3157485E+03  0.7818608E-02  0.1078383E+00
         21   -1    0    0  503  502  0.00000000000E+00  0.00000000000E+00  0.46385374835E+03  0.46385374835E+03  0.00000000000E+00 0. -1.
         21   -1    0    0  501  503 -0.00000000000E+00 -0.00000000000E+00 -0.43753784315E+03  0.43753784315E+03  0.00000000000E+00 0.  1.
          6    2    1    2  501    0 -0.26464765450E+03 -0.11471910052E+02  0.33768212513E+03  0.45794370091E+03  0.15972861300E+03 0.  0.
         24    2    3    3    0    0 -0.20809411140E+03 -0.51724144735E+02  0.20067519690E+03  0.30428325051E+03  0.79619190766E+02 0.  0.
         -6    2    1    2    0  502  0.26464765450E+03  0.11471910052E+02 -0.31136621993E+03  0.44344789059E+03  0.17183458035E+03 0.  0.
        -24    2    5    5    0    0  0.14308756474E+03 -0.58292237700E+02 -0.14936035973E+03  0.22917731288E+03  0.79634713043E+02 0.  0.
          5    1    3    3  501    0 -0.56553543101E+02  0.40252234682E+02  0.13700692823E+03  0.15366045040E+03  0.47000000000E+01 0. -1.
        -13    1    4    4    0    0 -0.54381630660E+02  0.20403400795E+02  0.40055824223E+02  0.70555861354E+02  0.00000000000E+00 0.  1.
         14    1    4    4    0    0 -0.15371248074E+03 -0.72127545530E+02  0.16061937268E+03  0.23372738915E+03  0.00000000000E+00 0. -1.
         -5    1    5    5    0  502  0.12156008976E+03  0.69764147752E+02 -0.16200586020E+03  0.21427057771E+03  0.47000000000E+01 0.  1.
         13    1    6    6    0    0  0.52910064398E+02 -0.60902025589E+02 -0.91570674408E+02  0.12203982976E+03  0.00000000000E+00 0. -1.
        -14    1    6    6    0    0  0.90177500343E+02  0.26097878885E+01 -0.57789685324E+02  0.10713748313E+03  0.00000000000E+00 0.  1.
</event>
<event>
12    1  0.8133506E-002  0.2163382E+03  0.7818608E-02  0.1136816E+00
         21   -1    0    0  503  502  0.00000000000E+00  0.00000000000E+00  0.75870519325E+02  0.75870519325E+02  0.00000000000E+00 0.  1.
         21   -1    0    0  501  503 -0.00000000000E+00 -0.00000000000E+00 -0.74260137644E+03  0.74260137644E+03  0.00000000000E+00 0.  1.
          6    2    1    2  501    0 -0.99819061894E+02 -0.83329502366E+02 -0.16267197172E+03  0.26994881965E+03  0.17176304540E+03 0.  0.
         24    2    3    3    0    0 -0.96324992469E+02 -0.18248477870E+02 -0.42728106632E+02  0.13336050008E+03  0.79673212352E+02 0.  0.
         -6    2    1    2    0  502  0.99819061894E+02  0.83329502366E+02 -0.50405888539E+03  0.54852307611E+03  0.17290041643E+03 0.  0.
        -24    2    5    5    0    0  0.49378922235E+02  0.82411684043E+02 -0.19082853318E+03  0.23122133703E+03  0.88418403026E+02 0.  0.
          5    1    3    3  501    0 -0.34940694248E+01 -0.65081024497E+02 -0.11994386509E+03  0.13658831957E+03  0.47000000000E+01 0. -1.
        -11    1    4    4    0    0 -0.10497668700E+03 -0.32293040476E+02 -0.37473116000E+02  0.11604817835E+03  0.00000000000E+00 0.  1.
         12    1    4    4    0    0  0.86516945297E+01  0.14044562606E+02 -0.52549906326E+01  0.17312321727E+02  0.00000000000E+00 0. -1.
         -5    1    5    5    0  502  0.50440139659E+02  0.91781832352E+00 -0.31323035221E+03  0.31730173908E+03  0.47000000000E+01 0.  1.
         11    1    6    6    0    0 -0.15726162300E+02  0.48759332705E+02 -0.45768865271E+02  0.68699153814E+02  0.00000000000E+00 0. -1.
        -12    1    6    6    0    0  0.65105084535E+02  0.33652351338E+02 -0.14505966791E+03  0.16252218322E+03  0.00000000000E+00 0.  1.
</event>
<event>
12    1  0.8133506E-002  0.1935328E+03  0.7818608E-02  0.1156574E+00
         21   -1    0    0  503  502  0.00000000000E+00  0.00000000000E+00  0.24985961581E+03  0.24985961581E+03  0.00000000000E+00 0. -1.
         21   -1    0    0  501  503 -0.00000000000E+00 -0.00000000000E+00 -0.16758016688E+03  0.16758016688E+03  0.00000000000E+00 0.  1.
          6    2    1    2  501    0 -0.75465204845E+02 -0.48630707295E+02  0.11624753436E+03  0.22094862390E+03  0.16506017788E+03 0.  0.
         24    2    3    3    0    0 -0.22390305896E+02  0.82968061592E+00  0.11681265948E+02  0.93592943378E+02  0.90117550499E+02 0.  0.
         -6    2    1    2    0  502  0.75465204845E+02  0.48630707295E+02 -0.33968085441E+02  0.19649115879E+03  0.17144970639E+03 0.  0.
        -24    2    5    5    0    0  0.94106817718E+01  0.85826566652E+02 -0.24286736642E+02  0.11992386495E+03  0.79606075977E+02 0.  0.
          5    1    3    3  501    0 -0.53074898949E+02 -0.49460387911E+02  0.10456626841E+03  0.12735568052E+03  0.47000000000E+01 0. -1.
        -13    1    4    4    0    0  0.19487218789E+02  0.29919361612E+02  0.21481889611E+02  0.41670030917E+02  0.00000000000E+00 0.  1.
         14    1    4    4    0    0 -0.41877524685E+02 -0.29089680996E+02 -0.98006236627E+01  0.51922912461E+02  0.00000000000E+00 0. -1.
         -5    1    5    5    0  502  0.66054523073E+02 -0.37195859357E+02 -0.96813487986E+01  0.76567293842E+02  0.47000000000E+01 0.  1.
         11    1    6    6    0    0 -0.23228806222E+02  0.52939420944E+02  0.14381953789E+02  0.59573486746E+02  0.00000000000E+00 0. -1.
        -12    1    6    6    0    0  0.32639487994E+02  0.32887145709E+02 -0.38668690431E+02  0.60350378201E+02  0.00000000000E+00 0.  1.
</event>
<event>
12    1  0.8133506E-002  0.2305479E+03  0.7818608E-02  0.1126310E+00
         21   -1    0    0  501  502  0.00000000000E+00  0.00000000000E+00  0.11757446555E+03  0.11757446555E+03  0.00000000000E+00 0.  1.
         21   -1    0    0  502  503 -0.00000000000E+00 -0.00000000000E+00 -0.62374010846E+03  0.62374010846E+03  0.00000000000E+00 0. -1.
         -6    2    1    2    0  503  0.11504961067E+03 -0.10129798013E+03 -0.58153586271E+02  0.23746227621E+03  0.17178125430E+03 0.  0.
        -24    2    3    3    0    0  0.95606615538E+02 -0.13582296432E+03 -0.68321471817E+02  0.19628606354E+03  0.79195281787E+02 0.  0.
          6    2    1    2  501    0 -0.11504961067E+03  0.10129798013E+03 -0.44801205664E+03  0.50385229780E+03  0.17220523047E+03 0.  0.
         24    2    5    5    0    0 -0.70494910155E+02  0.80474704074E+02 -0.14609224700E+03  0.19791702422E+03  0.79890509379E+02 0.  0.
          5    1    5    5  501    0 -0.44554700519E+02  0.20823276059E+02 -0.30191980964E+03  0.30593527358E+03  0.47000000000E+01 0. -1.
        -13    1    6    6    0    0  0.49312262136E+01 -0.48122476998E+01 -0.45412496163E+02  0.45932227549E+02  0.00000000000E+00 0.  1.
         14    1    6    6    0    0 -0.75426136369E+02  0.85286951773E+02 -0.10067975084E+03  0.15198479667E+03  0.00000000000E+00 0. -1.
         -5    1    3    3    0  503  0.19442995136E+02  0.34524984189E+02  0.10167885546E+02  0.41176212667E+02  0.47000000000E+01 0.  1.
         11    1    4    4    0    0  0.98607200195E+02 -0.83836275708E+02 -0.62982396181E+02  0.14393985995E+03  0.00000000000E+00 0. -1.
        -12    1    4    4    0    0 -0.30005846571E+01 -0.51986688614E+02 -0.53390756360E+01  0.52346203587E+02  0.00000000000E+00 0.  1.
</event>
<event>
12    1  0.8133506E-002  0.1833213E+03  0.7818608E-02  0.1164825E+00
         21   -1    0    0  503  502  0.00000000000E+00  0.00000000000E+00  0.45671585537E+03  0.45671585537E+03  0.00000000000E+00 0.  1.
         21   -1    0    0  501  503 -0.00000000000E+00 -0.00000000000E+00 -0.13417942763E+03  0.13417942763E+03  0.00000000000E+00 0.  1.
          6    2    1    2  501    0 -0.39857406074E+02 -0.43047452009E+02 -0.38027226359E+02  0.18640441506E+03  0.17279710665E+03 0.  0.
         24    2    3    3    0    0 -0.48003355941E+02  0.76110165414E+01 -0.76881552849E+02  0.12187236394E+03  0.81116275614E+02 0.  0.
         -6    2    1    2    0  502  0.39857406074E+02  0.43047452009E+02  0.36056365410E+03  0.40449086793E+03  0.17368079238E+03 0.  0.
        -24    2    5    5    0    0  0.58484790676E+02 -0.89478159184E+01  0.10307817270E+03  0.14110645216E+03  0.76061731527E+02 0.  0.
          5    1    3    3  501    0  0.81459498664E+01 -0.50658468550E+02  0.38854326490E+02  0.64532051123E+02  0.47000000000E+01 0. -1.
        -11    1    4    4    0    0 -0.16332164958E+02 -0.26206374171E+02 -0.68019025799E+02  0.74700077176E+02  0.00000000000E+00 0.  1.
         12    1    4    4    0    0 -0.31671190983E+02  0.33817390712E+02 -0.88625270498E+01  0.47172286764E+02  0.00000000000E+00 0. -1.
         -5    1    5    5    0  502 -0.18627384602E+02  0.51995267927E+02  0.25748548140E+03  0.26338441578E+03  0.47000000000E+01 0.  1.
         13    1    6    6    0    0  0.34436049434E+01  0.29193816811E+02  0.31888581919E+02  0.43370716063E+02  0.00000000000E+00 0. -1.
        -14    1    6    6    0    0  0.55041185733E+02 -0.38141632730E+02  0.71189590782E+02  0.97735736095E+02  0.00000000000E+00 0.  1.
</event>
<event>
12    1  0.8133506E-002  0.1759999E+03  0.7818608E-02  0.1171872E+00
         21   -1    0    0  503  502  0.00000000000E+00  0.00000000000E+00  0.43509891092E+03  0.43509891092E+03  0.00000000000E+00 0.  1.
         21   -1    0    0  501  503 -0.00000000000E+00 -0.00000000000E+00 -0.12606526588E+03  0.12606526588E+03  0.00000000000E+00 0.  1.
          6    2    1    2  501    0  0.32371646233E+02 -0.36415378492E+01 -0.31118260851E+02  0.17817687154E+03  0.17238754919E+03 0.  0.
         24    2    3    3    0    0  0.97365559795E+01 -0.13897955223E+02 -0.80599918632E+02  0.12260650296E+03  0.90818797625E+02 0.  0.
         -6    2    1    2    0  502 -0.32371646233E+02  0.36415378492E+01  0.34015190589E+03  0.38298730525E+03  0.17295887554E+03 0.  0.
        -24    2    5    5    0    0  0.19593914758E+02 -0.27202647776E+02  0.87490456925E+02  0.12315720479E+03  0.79932543412E+02 0.  0.
          5    1    3    3  501    0  0.22635090253E+02  0.10256417373E+02  0.49481657781E+02  0.55570368587E+02  0.47000000000E+01 0. -1.
        -13    1    4    4    0    0 -0.35413651752E+02  0.11058677192E+02 -0.51200013066E+02  0.63228651809E+02  0.00000000000E+00 0.  1.
         14    1    4    4    0    0  0.45150207731E+02 -0.24956632415E+02 -0.29399905566E+02  0.59377851148E+02  0.00000000000E+00 0. -1.
         -5    1    5    5    0  502 -0.51965560991E+02  0.30844185626E+02  0.25266144896E+03  0.25983010047E+03  0.47000000000E+01 0.  1.
         13    1    6    6    0    0 -0.18086074805E+02  0.10979586883E+02  0.75257106652E+00  0.21171296445E+02  0.00000000000E+00 0. -1.
        -14    1    6    6    0    0  0.37679989563E+02 -0.38182234659E+02  0.86737885858E+02  0.10198590834E+03  0.00000000000E+00 0.  1.
</event>
<event>
12    1  0.8133506E-002  0.2135954E+03  0.7818608E-02  0.1138873E+00
         21   -1    0    0  501  502  0.00000000000E+00  0.00000000000E+00  0.17357533547E+04  0.17357533547E+04  0.00000000000E+00 0. -1.
         21   -1    0    0  502  503 -0.00000000000E+00 -0.00000000000E+00 -0.62748487903E+02  0.62748487903E+02  0.00000000000E+00 0.  1.
         -6    2    1    2    0  503 -0.12202875733E+03 -0.36620234164E+02  0.14974020902E+03  0.26033468806E+03  0.17064571616E+03 0.  0.
        -24    2    3    3    0    0 -0.40933736007E+02  0.34632408477E+02  0.38091797732E+02  0.10496159094E+03  0.81798386640E+02 0.  0.
          6    2    1    2  501    0  0.12202875733E+03  0.36620234164E+02  0.15232646578E+04  0.15381671546E+04  0.17143779778E+03 0.  0.
         24    2    5    5    0    0  0.78957057620E+02 -0.43071366247E+02  0.92761673961E+03  0.93565204692E+03  0.82961302816E+02 0.  0.
          5    1    5    5  501    0  0.43071699714E+02  0.79691600411E+02  0.59564791820E+03  0.60251510765E+03  0.47000000000E+01 0. -1.
        -13    1    6    6    0    0 -0.16096407741E+02 -0.17809225240E+02  0.18030266295E+03  0.18189368629E+03  0.00000000000E+00 0.  1.
         14    1    6    6    0    0  0.95053465361E+02 -0.25262141007E+02  0.74731407665E+03  0.75375836062E+03  0.00000000000E+00 0. -1.
         -5    1    3    3    0  503 -0.81095021328E+02 -0.71252642641E+02  0.11164841129E+03  0.15537309712E+03  0.47000000000E+01 0.  1.
         11    1    4    4    0    0 -0.32825425526E+02  0.15641883478E+01  0.57163279200E+02  0.65936300587E+02  0.00000000000E+00 0. -1.
        -12    1    4    4    0    0 -0.81083104809E+01  0.33068220130E+02 -0.19071481468E+02  0.39025290349E+02  0.00000000000E+00 0.  1.
</event>
<event>
12    1  0.8133506E-002  0.4008270E+03  0.7818608E-02  0.1043506E+00
         21   -1    0    0  501  502  0.00000000000E+00  0.00000000000E+00  0.10463360692E+04  0.10463360692E+04  0.00000000000E+00 0. -1.
         21   -1    0    0  502  503 -0.00000000000E+00 -0.00000000000E+00 -0.63130501233E+03  0.63130501233E+03  0.00000000000E+00 0.  1.
         -6    2    1    2    0  503  0.30446785149E+03 -0.19581126636E+03 -0.52223320158E+03  0.65832345859E+03  0.17210326747E+03 0.  0.
        -24    2    3    3    0    0  0.24730689923E+03 -0.21617780858E+03 -0.41504153380E+03  0.53505823986E+03  0.78321759037E+02 0.  0.
          6    2    1    2  501    0 -0.30446785149E+03  0.19581126636E+03  0.93726425849E+03  0.10193176230E+04  0.17175972070E+03 0.  0.
         24    2    5    5    0    0 -0.31324746402E+03  0.20813654919E+03  0.88891600947E+03  0.96843896953E+03  0.79104797591E+02 0.  0.
          5    1    5    5  501    0  0.87796125308E+01 -0.12325282831E+02  0.48348249022E+02  0.50878653446E+02  0.47000000000E+01 0. -1.
        -11    1    6    6    0    0 -0.17941290229E+03  0.16416059854E+03  0.57998803347E+03  0.62890683777E+03  0.00000000000E+00 0.  1.
         12    1    6    6    0    0 -0.13383456173E+03  0.43975950648E+02  0.30892797599E+03  0.33953213176E+03  0.00000000000E+00 0. -1.
         -5    1    3    3    0  503  0.57160952259E+02  0.20366542227E+02 -0.10719166778E+03  0.12326521873E+03  0.47000000000E+01 0.  1.
         11    1    4    4    0    0  0.23521004411E+02 -0.60072438398E+02 -0.70533289360E+02  0.95587030561E+02  0.00000000000E+00 0. -1.
        -12    1    4    4    0    0  0.22378589482E+03 -0.15610537019E+03 -0.34450824444E+03  0.43947120930E+03  0.00000000000E+00 0.  1.
</event>
<event>
12    1  0.8133506E-002  0.1915982E+03  0.7818608E-02  0.1157069E+00
         21   -1    0    0  501  502  0.00000000000E+00  0.00000000000E+00  0.33784210486E+02  0.33784210486E+02  0.00000000000E+00 0. -1.
         21   -1    0    0  502  503 -0.00000000000E+00 -0.00000000000E+00 -0.11202646186E+04  0.11202646186E+04  0.00000000000E+00 0. -1.
         -6    2    1    2    0  503  0.80479920446E+02  0.25602561095E+02 -0.64455688373E+03  0.67237852943E+03  0.17177543989E+03 0.  0.
        -24    2    3    3    0    0  0.70656052368E+02  0.16113144484E+00 -0.19858294436E+03  0.22554677214E+03  0.80273637848E+02 0.  0.
          6    2    1    2  501    0 -0.80479920446E+02 -0.25602561095E+02 -0.44192352443E+03  0.48167029970E+03  0.17198071821E+03 0.  0.
         24    2    5    5    0    0 -0.65402619547E+02 -0.65882379396E+02 -0.41174957722E+03  0.42892235324E+03  0.76280274086E+02 0.  0.
          5    1    5    5  501    0 -0.15077300899E+02  0.40279818301E+02 -0.30173947211E+02  0.52747946454E+02  0.47000000000E+01 0. -1.
        -11    1    6    6    0    0  0.23498272883E+01  0.89607730081E+01 -0.65748265555E+01  0.11359818899E+02  0.00000000000E+00 0.  1.
         12    1    6    6    0    0 -0.67752446836E+02 -0.74843152405E+02 -0.40517475066E+03  0.41756253435E+03  0.00000000000E+00 0. -1.
         -5    1    3    3    0  503  0.98238680784E+01  0.25441429650E+02 -0.44597393937E+03  0.44683175729E+03  0.47000000000E+01 0.  1.
         13    1    4    4    0    0  0.33053148843E+02  0.36247974175E+02 -0.13312041989E+03  0.14187132364E+03  0.00000000000E+00 0. -1.
        -14    1    4    4    0    0  0.37602903525E+02 -0.36086842730E+02 -0.65462524469E+02  0.83675448500E+02  0.00000000000E+00 0.  1.
</event>
<event>
12    1  0.8133506E-002  0.2987349E+03  0.7818608E-02  0.1085883E+00
         21   -1    0    0  503  502  0.00000000000E+00  0.00000000000E+00  0.15186920195E+03  0.15186920195E+03  0.00000000000E+00 0. -1.
         21   -1    0    0  501  503 -0.00000000000E+00 -0.00000000000E+00 -0.72567158343E+03  0.72567158343E+03  0.00000000000E+00 0.  1.
          6    2    1    2  501    0 -0.51509399765E+02  0.23894335106E+03 -0.47839328968E+03  0.56400590749E+03  0.17174219282E+03 0.  0.
         24    2    3    3    0    0  0.28958352947E+02  0.17441914768E+03 -0.33934447248E+03  0.39081498506E+03  0.79505070653E+02 0.  0.
         -6    2    1    2    0  502  0.51509399765E+02 -0.23894335106E+03 -0.95409091810E+02  0.31353487789E+03  0.17162191461E+03 0.  0.
        -24    2    5    5    0    0  0.36924049096E+02 -0.83027266389E+02 -0.10257617576E+03  0.15670371069E+03  0.76008346550E+02 0.  0.
          5    1    3    3  501    0 -0.80467752712E+02  0.64524203379E+02 -0.13904881719E+03  0.17319092243E+03  0.47000000000E+01 0. -1.
        -11    1    4    4    0    0  0.12209246101E+02  0.13209216990E+03 -0.30854693351E+03  0.33585505388E+03  0.00000000000E+00 0.  1.
         12    1    4    4    0    0  0.16749106846E+02  0.42326977783E+02 -0.30797538971E+02  0.54959931178E+02  0.00000000000E+00 0. -1.
         -5    1    5    5    0  502  0.14585350669E+02 -0.15591608467E+03  0.71670839492E+01  0.15683116720E+03  0.47000000000E+01 0.  1.
         13    1    6    6    0    0  0.18341763777E+02 -0.11157663310E+02  0.85127110323E+01  0.23095021068E+02  0.00000000000E+00 0. -1.
        -14    1    6    6    0    0  0.18582285319E+02 -0.71869603079E+02 -0.11108888679E+03  0.13360868962E+03  0.00000000000E+00 0.  1.
</event>
<event>
12    1  0.8133506E-002  0.1969421E+03  0.7818608E-02  0.1152780E+00
         21   -1    0    0  501  502  0.00000000000E+00  0.00000000000E+00  0.58889763416E+02  0.58889763416E+02  0.00000000000E+00 0.  1.
         21   -1    0    0  502  503 -0.00000000000E+00 -0.00000000000E+00 -0.10001847173E+04  0.10001847173E+04  0.00000000000E+00 0.  1.
         -6    2    1    2    0  503  0.55889496183E+02 -0.73160727613E+02 -0.78154358585E+03  0.80548681712E+03  0.17182115155E+03 0.  0.
        -24    2    3    3    0    0  0.18194815318E+02  0.10672751683E+02 -0.18727475785E+03  0.20413295196E+03  0.78444045108E+02 0.  0.
          6    2    1    2  501    0 -0.55889496183E+02  0.73160727613E+02 -0.15975136801E+03  0.25358766357E+03  0.17409789110E+03 0.  0.
         24    2    5    5    0    0 -0.82428890509E+02  0.55064417272E+02 -0.17580763727E+03  0.21737013078E+03  0.80714536425E+02 0.  0.
          5    1    5    5  501    0  0.26539394326E+02  0.18096310341E+02  0.16056269263E+02  0.36217532796E+02  0.47000000000E+01 0. -1.
        -13    1    6    6    0    0 -0.13227418837E+02  0.24241298377E+02 -0.19020307187E+01  0.27680731149E+02  0.00000000000E+00 0.  1.
         14    1    6    6    0    0 -0.69201471672E+02  0.30823118895E+02 -0.17390560655E+03  0.18968939963E+03  0.00000000000E+00 0. -1.
         -5    1    3    3    0  503  0.37694680865E+02 -0.83833479295E+02 -0.59426882800E+03  0.60135386517E+03  0.47000000000E+01 0.  1.
         13    1    4    4    0    0 -0.39815547227E+01  0.20189410700E+02 -0.17651555220E+03  0.17771101612E+03  0.00000000000E+00 0. -1.
        -14    1    4    4    0    0  0.22176370041E+02 -0.95166590170E+01 -0.10759205653E+02  0.26421935836E+02  0.00000000000E+00 0.  1.
</event>
<event>
12    1  0.8133506E-002  0.1803161E+03  0.7818608E-02  0.1167838E+00
         21   -1    0    0  503  502  0.00000000000E+00  0.00000000000E+00  0.29104985308E+04  0.29104985308E+04  0.00000000000E+00 0. -1.
         21   -1    0    0  501  503 -0.00000000000E+00 -0.00000000000E+00 -0.20047026109E+02  0.20047026109E+02  0.00000000000E+00 0.  1.
          6    2    1    2  501    0 -0.45938015834E+02  0.25749566219E+02  0.46235854548E+03  0.49576644650E+03  0.17098421987E+03 0.  0.
         24    2    3    3    0    0  0.11699449206E+02  0.13723483105E+02  0.10042613593E+03  0.12904603103E+03  0.79007963173E+02 0.  0.
         -6    2    1    2    0  502  0.45938015834E+02 -0.25749566219E+02  0.24280929592E+04  0.24347791104E+04  0.17245450535E+03 0.  0.
        -24    2    5    5    0    0  0.23791530297E+02 -0.65828089154E+02  0.92392771482E+03  0.92990970502E+03  0.78678224686E+02 0.  0.
          5    1    3    3  501    0 -0.57637465040E+02  0.12026083114E+02  0.36193240954E+03  0.36672041548E+03  0.47000000000E+01 0. -1.
        -11    1    4    4    0    0  0.42810731126E+02 -0.72445817992E+01  0.50622935454E+02  0.66692760169E+02  0.00000000000E+00 0.  1.
         12    1    4    4    0    0 -0.31111281920E+02  0.20968064904E+02  0.49803200480E+02  0.62353270857E+02  0.00000000000E+00 0. -1.
         -5    1    5    5    0  502  0.22146485537E+02  0.40078522936E+02  0.15041652444E+04  0.15048694054E+04  0.47000000000E+01 0.  1.
         13    1    6    6    0    0  0.16534852347E+02  0.16086071645E+02  0.20565632113E+03  0.20694609314E+03  0.00000000000E+00 0. -1.
        -14    1    6    6    0    0  0.72566779496E+01 -0.81914160800E+02  0.71827139369E+03  0.72296361188E+03  0.00000000000E+00 0.  1.
</event>
<event>
12    1  0.8133506E-002  0.2932511E+03  0.7818608E-02  0.1088708E+00
         21   -1    0    0  503  502  0.00000000000E+00  0.00000000000E+00  0.29726249892E+03  0.29726249892E+03  0.00000000000E+00 0.  1.
         21   -1    0    0  501  503 -0.00000000000E+00 -0.00000000000E+00 -0.40679536712E+03  0.40679536712E+03  0.00000000000E+00 0. -1.
          6    2    1    2  501    0 -0.12371045586E+03 -0.20191957074E+03 -0.24425907400E+03  0.38165262062E+03  0.17297525158E+03 0.  0.
         24    2    3    3    0    0 -0.12650337016E+03 -0.10383055311E+03 -0.20892742349E+03  0.27725112984E+03  0.80209938824E+02 0.  0.
         -6    2    1    2    0  502  0.12371045586E+03  0.20191957074E+03  0.13472620580E+03  0.32240524542E+03  0.17238968010E+03 0.  0.
        -24    2    5    5    0    0  0.58757108378E+02  0.19938541399E+03  0.76057839483E+02  0.23471587031E+03  0.78101240276E+02 0.  0.
          5    1    3    3  501    0  0.27929143040E+01 -0.98089017634E+02 -0.35331650503E+02  0.10440149078E+03  0.47000000000E+01 0. -1.
        -11    1    4    4    0    0 -0.79131347093E+02 -0.73872223182E+02 -0.73956290317E+02  0.13110457020E+03  0.00000000000E+00 0.  1.
         12    1    4    4    0    0 -0.47372023071E+02 -0.29958329928E+02 -0.13497113318E+03  0.14614655963E+03  0.00000000000E+00 0. -1.
         -5    1    5    5    0  502  0.64953347482E+02  0.25341567546E+01  0.58668366321E+02  0.87689375106E+02  0.47000000000E+01 0.  1.
         11    1    6    6    0    0  0.14562130829E+02  0.15699456841E+03  0.72036285373E+02  0.17334525253E+03  0.00000000000E+00 0. -1.
        -12    1    6    6    0    0  0.44194977549E+02  0.42390845583E+02  0.40215541104E+01  0.61370617784E+02  0.00000000000E+00 0.  1.
</event>
<event>
12    1  0.8133506E-002  0.1739971E+03  0.7818608E-02  0.1174604E+00
         21   -1    0    0  501  502  0.00000000000E+00  0.00000000000E+00  0.60003074634E+03  0.60003074634E+03  0.00000000000E+00 0.  1.
         21   -1    0    0  502  503 -0.00000000000E+00 -0.00000000000E+00 -0.13513018948E+03  0.13513018948E+03  0.00000000000E+00 0.  1.
         -6    2    1    2    0  503 -0.10880909671E+02  0.16775938130E+02 -0.59351796953E+02  0.18384129007E+03  0.17284431676E+03 0.  0.
        -24    2    3    3    0    0  0.11618573041E+02 -0.33046792603E+02  0.18738629232E+02  0.88401592448E+02  0.78972296288E+02 0.  0.
          6    2    1    2  501    0  0.10880909671E+02 -0.16775938130E+02  0.52425235382E+03  0.55131964575E+03  0.16944909270E+03 0.  0.
         24    2    5    5    0    0 -0.30209475065E+02 -0.60577782771E+02  0.39634824232E+03  0.40993869566E+03  0.79846883843E+02 0.  0.
          5    1    5    5  501    0  0.41090384736E+02  0.43801844642E+02  0.12790411149E+03  0.14138095009E+03  0.47000000000E+01 0. -1.
        -13    1    6    6    0    0 -0.13999668111E+02  0.18826775917E+02  0.99267072687E+02  0.10200191135E+03  0.00000000000E+00 0.  1.
         14    1    6    6    0    0 -0.16209806953E+02 -0.79404558688E+02  0.29708116964E+03  0.30793678432E+03  0.00000000000E+00 0. -1.
         -5    1    3    3    0  503 -0.22499482713E+02  0.49822730733E+02 -0.78090426186E+02  0.95439697621E+02  0.47000000000E+01 0.  1.
         11    1    4    4    0    0  0.35571694938E+02  0.10156480755E+02  0.78970192349E+01  0.37826743118E+02  0.00000000000E+00 0. -1.
        -12    1    4    4    0    0 -0.23953121897E+02 -0.43203273358E+02  0.10841609997E+02  0.50574849330E+02  0.00000000000E+00 0.  1.
</event>
<event>
12    1  0.8133506E-002  0.2579444E+03  0.7818608E-02  0.1108443E+00
         21   -1    0    0  503  502  0.00000000000E+00  0.00000000000E+00  0.31926406809E+03  0.31926406809E+03  0.00000000000E+00 0.  1.
         21   -1    0    0  501  503 -0.00000000000E+00 -0.00000000000E+00 -0.75434455817E+03  0.75434455817E+03  0.00000000000E+00 0.  1.
          6    2    1    2  501    0  0.16960316203E+03 -0.91719247663E+02 -0.67429676407E+03  0.72181359518E+03  0.17076617693E+03 0.  0.
         24    2    3    3    0    0  0.18903625394E+03 -0.81167805585E+02 -0.50520309314E+03  0.55121541951E+03  0.79280233491E+02 0.  0.
         -6    2    1    2    0  502 -0.16960316203E+03  0.91719247663E+02  0.23921627400E+03  0.35179503108E+03  0.17134078670E+03 0.  0.
        -24    2    5    5    0    0 -0.57305995330E+02 -0.35354534646E+02  0.68120293639E+02  0.11085038123E+03  0.55798856548E+02 0.  0.
          5    1    3    3  501    0 -0.19433091910E+02 -0.10551442079E+02 -0.16909367093E+03  0.17059817566E+03  0.47000000000E+01 0. -1.
        -13    1    4    4    0    0  0.87506370873E+02 -0.52285914372E+02 -0.34184729896E+03  0.35672224151E+03  0.00000000000E+00 0.  1.
         14    1    4    4    0    0  0.10152988307E+03 -0.28881891212E+02 -0.16335579419E+03  0.19449317800E+03  0.00000000000E+00 0. -1.
         -5    1    5    5    0  502 -0.11229716670E+03  0.12707378231E+03  0.17109598036E+03  0.24094464985E+03  0.47000000000E+01 0.  1.
         11    1    6    6    0    0 -0.58250008415E+02 -0.96821964758E+01  0.59307744108E+02  0.83691199777E+02  0.00000000000E+00 0. -1.
        -12    1    6    6    0    0  0.94401308453E+00 -0.25672338170E+02  0.88125495305E+01  0.27159181451E+02  0.00000000000E+00 0.  1.
</event>
<event>
12    1  0.8133506E-002  0.1752285E+03  0.7818608E-02  0.1172911E+00
         21   -1    0    0  501  502  0.00000000000E+00  0.00000000000E+00  0.58626273069E+03  0.58626273069E+03  0.00000000000E+00 0. -1.
         21   -1    0    0  502  503 -0.00000000000E+00 -0.00000000000E+00 -0.19014957246E+03  0.19014957246E+03  0.00000000000E+00 0. -1.
         -6    2    1    2    0  503  0.26010857595E+02 -0.83244938990E+01 -0.13271664269E+03  0.21981520020E+03  0.17308712569E+03 0.  0.
        -24    2    3    3    0    0  0.58366140573E+02  0.11362002789E+01 -0.15137943475E+03  0.18099820806E+03  0.80229176358E+02 0.  0.
          6    2    1    2  501    0 -0.26010857595E+02  0.83244938990E+01  0.52882980092E+03  0.55659710294E+03  0.17144536958E+03 0.  0.
         24    2    5    5    0    0  0.18236885367E+01  0.20066723153E+02  0.11732643146E+03  0.14395954408E+03  0.80949734988E+02 0.  0.
          5    1    5    5  501    0 -0.27834546131E+02 -0.11742229254E+02  0.41150336946E+03  0.41263755886E+03  0.47000000000E+01 0. -1.
        -13    1    6    6    0    0 -0.26439780677E+02 -0.20221668909E+02  0.58050023202E+02  0.66916239355E+02  0.00000000000E+00 0.  1.
         14    1    6    6    0    0  0.28263469214E+02  0.40288392062E+02  0.59276408259E+02  0.77043304725E+02  0.00000000000E+00 0. -1.
         -5    1    3    3    0  503 -0.32355282978E+02 -0.94606941779E+01  0.18662792062E+02  0.38816992136E+02  0.47000000000E+01 0.  1.
         11    1    4    4    0    0  0.63685541446E+02  0.25662852556E+02 -0.13369785525E+03  0.15029819257E+03  0.00000000000E+00 0. -1.
        -12    1    4    4    0    0 -0.53194008733E+01 -0.24526652278E+02 -0.17681579501E+02  0.30700015492E+02  0.00000000000E+00 0.  1.
</event>
<event>
12    1  0.8133506E-002  0.1746981E+03  0.7818608E-02  0.1173129E+00
         21   -1    0    0  503  502  0.00000000000E+00  0.00000000000E+00  0.54419674541E+03  0.54419674541E+03  0.00000000000E+00 0. -1.
         21   -1    0    0  501  503 -0.00000000000E+00 -0.00000000000E+00 -0.72864681007E+02  0.72864681007E+02  0.00000000000E+00 0. -1.
          6    2    1    2  501    0 -0.30326119677E+02 -0.17613717889E+02  0.87260523119E+02  0.19527880149E+03  0.17114173899E+03 0.  0.
         24    2    3    3    0    0  0.23620045045E+02 -0.63987735352E+02  0.46037364077E+02  0.11292482754E+03  0.77332017818E+02 0.  0.
         -6    2    1    2    0  502  0.30326119677E+02  0.17613717889E+02  0.38407154128E+03  0.42178262493E+03  0.17076216582E+03 0.  0.
        -24    2    5    5    0    0  0.53679893342E+02  0.66472222889E+02  0.29360838563E+03  0.31624483650E+03  0.80652496162E+02 0.  0.
          5    1    3    3  501    0 -0.53946164722E+02  0.46374017463E+02  0.41223159042E+02  0.82353973950E+02  0.47000000000E+01 0. -1.
        -13    1    4    4    0    0  0.21622323134E+02 -0.72804773874E+02  0.59657900862E+02  0.96577042261E+02  0.00000000000E+00 0.  1.
         14    1    4    4    0    0  0.19977219114E+01  0.88170385224E+01 -0.13620536785E+02  0.16347785277E+02  0.00000000000E+00 0. -1.
         -5    1    5    5    0  502 -0.23353773665E+02 -0.48858505000E+02  0.90463155656E+02  0.10553778843E+03  0.47000000000E+01 0.  1.
         13    1    6    6    0    0  0.38705625612E+02 -0.21403954756E+01  0.16723549808E+03  0.17166950389E+03  0.00000000000E+00 0. -1.
        -14    1    6    6    0    0  0.14974267730E+02  0.68612618365E+02  0.12637288754E+03  0.14457533261E+03  0.00000000000E+00 0.  1.
</event>
<event>
12    1  0.8133506E-002  0.2429551E+03  0.7818608E-02  0.1118382E+00
         21   -1    0    0  501  502  0.00000000000E+00  0.00000000000E+00  0.49710367833E+02  0.49710367833E+02  0.00000000000E+00 0. -1.
         21   -1    0    0  502  503 -0.00000000000E+00 -0.00000000000E+00 -0.13332257157E+04  0.13332257157E+04  0.00000000000E+00 0.  1.
         -6    2    1    2    0  503  0.13872208265E+03 -0.95730167145E+02 -0.88648035551E+03  0.91917059828E+03  0.17498310470E+03 0.  0.
        -24    2    3    3    0    0  0.20545560866E+02 -0.85919706857E+02 -0.53612341007E+03  0.54925977842E+03  0.80334782449E+02 0.  0.
          6    2    1    2  501    0 -0.13872208265E+03  0.95730167145E+02 -0.39703499234E+03  0.46376548523E+03  0.17039236788E+03 0.  0.
         24    2    5    5    0    0 -0.12156513383E+03  0.12735575292E+03 -0.27368971330E+03  0.33519376816E+03  0.80319570987E+02 0.  0.
          5    1    5    5  501    0 -0.17156948820E+02 -0.31625585774E+02 -0.12334527904E+03  0.12857171707E+03  0.47000000000E+01 0. -1.
        -11    1    6    6    0    0 -0.61319637635E+02  0.95097212409E+02 -0.22314461934E+03  0.25019412245E+03  0.00000000000E+00 0.  1.
         12    1    6    6    0    0 -0.60245496198E+02  0.32258540510E+02 -0.50545093958E+02  0.84999645712E+02  0.00000000000E+00 0. -1.
         -5    1    3    3    0  503  0.11817652179E+03 -0.98104602880E+01 -0.35035694544E+03  0.36991081986E+03  0.47000000000E+01 0.  1.
         13    1    4    4    0    0 -0.20833544382E+02 -0.24919676259E+02 -0.67890514653E+02  0.75260539569E+02  0.00000000000E+00 0. -1.
        -14    1    4    4    0    0  0.41379105248E+02 -0.61000030598E+02 -0.46823289542E+03  0.47399923885E+03  0.00000000000E+00 0.  1.
</event>
<event>
12    1  0.8133506E-002  0.1755224E+03  0.7818608E-02  0.1172514E+00
         21   -1    0    0  501  502  0.00000000000E+00  0.00000000000E+00  0.29195467179E+02  0.29195467179E+02  0.00000000000E+00 0. -1.
         21   -1    0    0  502  503 -0.00000000000E+00 -0.00000000000E+00 -0.13677445856E+04  0.13677445856E+04  0.00000000000E+00 0. -1.
         -6    2    1    2    0  503 -0.36670118478E+01 -0.33654424684E+02 -0.10052387624E+04  0.10202386929E+04  0.17098524377E+03 0.  0.
        -24    2    3    3    0    0 -0.70571336634E+01 -0.76400155167E+02 -0.46258359222E+03  0.47587170802E+03  0.81138867727E+02 0.  0.
          6    2    1    2  501    0  0.36670118478E+01  0.33654424684E+02 -0.33331035600E+03  0.37670135995E+03  0.17222675140E+03 0.  0.
         24    2    5    5    0    0  0.15556452091E+02  0.39593594739E+02 -0.75319888057E+02  0.11832604364E+03  0.80736058369E+02 0.  0.
          5    1    5    5  501    0 -0.11889440243E+02 -0.59391700546E+01 -0.25799046794E+03  0.25837531631E+03  0.47000000000E+01 0. -1.
        -13    1    6    6    0    0  0.61917442908E+01 -0.21126585155E+02 -0.44372589159E+02  0.49533796204E+02  0.00000000000E+00 0.  1.
         14    1    6    6    0    0  0.93647078003E+01  0.60720179893E+02 -0.30947298898E+02  0.68792247438E+02  0.00000000000E+00 0. -1.
         -5    1    3    3    0  503  0.33901218156E+01  0.42745730483E+02 -0.54265517023E+03  0.54436698483E+03  0.47000000000E+01 0.  1.
         13    1    4    4    0    0 -0.21598015250E+01 -0.12114299784E+02 -0.30977103170E+03  0.31001534330E+03  0.00000000000E+00 0. -1.
        -14    1    4    4    0    0 -0.48973321384E+01 -0.64285855383E+02 -0.15281256052E+03  0.16585636472E+03  0.00000000000E+00 0.  1.
</event>
<event>
12    1  0.8133506E-002  0.2077658E+03  0.7818608E-02  0.1143434E+00
         21   -1    0    0  503  502  0.00000000000E+00  0.00000000000E+00  0.11652645372E+04  0.11652645372E+04  0.00000000000E+00 0.  1.
         21   -1    0    0  501  503 -0.00000000000E+00 -0.00000000000E+00 -0.67242608118E+02  0.67242608118E+02  0.00000000000E+00 0.  1.
          6    2    1    2  501    0 -0.37968180611E+02  0.10978368200E+03  0.13519740881E+03  0.24752100652E+03  0.17173895815E+03 0.  0.
         24    2    3    3    0    0 -0.49639833611E+02  0.13578186957E+03  0.84070582288E+02  0.18879983801E+03  0.87616704112E+02 0.  0.
         -6    2    1    2    0  502  0.37968180611E+02 -0.10978368200E+03  0.96282452025E+03  0.98498613878E+03  0.17225735752E+03 0.  0.
        -24    2    5    5    0    0  0.45153244517E+02 -0.41540492605E+02  0.26967423559E+03  0.28843164330E+03  0.81879127389E+02 0.  0.
          5    1    3    3  501    0  0.11671653000E+02 -0.25998187577E+02  0.51126826523E+02  0.58721168511E+02  0.47000000000E+01 0. -1.
        -13    1    4    4    0    0  0.19405610467E+01  0.11127177640E+03  0.63304985942E+02  0.12803396130E+03  0.00000000000E+00 0.  1.
         14    1    4    4    0    0 -0.51580394658E+02  0.24510093169E+02  0.20765596346E+02  0.60765876706E+02  0.00000000000E+00 0. -1.
         -5    1    5    5    0  502 -0.71850639062E+01 -0.68243189390E+02  0.69315028467E+03  0.69655449548E+03  0.47000000000E+01 0.  1.
         13    1    6    6    0    0  0.68164184347E+02 -0.26614593239E+02  0.21762033853E+03  0.22959378115E+03  0.00000000000E+00 0. -1.
        -14    1    6    6    0    0 -0.23010939830E+02 -0.14925899366E+02  0.52053897061E+02  0.58837862155E+02  0.00000000000E+00 0.  1.
</event>
<event>
12    1  0.8133506E-002  0.2266916E+03  0.7818608E-02  0.1129382E+00
         21   -1    0    0  503  502  0.00000000000E+00  0.00000000000E+00  0.12748353059E+04  0.12748353059E+04  0.00000000000E+00 0. -1.
         21   -1    0    0  501  503 -0.00000000000E+00 -0.00000000000E+00 -0.41298198477E+02  0.41298198477E+02  0.00000000000E+00 0. -1.
          6    2    1    2  501    0  0.14703389768E+03  0.46393282713E+01  0.73389249552E+03  0.76746800932E+03  0.16961267615E+03 0.  0.
         24    2    3    3    0    0  0.14024382776E+03  0.41881378313E+02  0.42922935835E+03  0.46042600488E+03  0.79573128769E+02 0.  0.
         -6    2    1    2    0  502 -0.14703389768E+03 -0.46393282713E+01  0.49964461187E+03  0.54866549503E+03  0.17247781548E+03 0.  0.
        -24    2    5    5    0    0 -0.87832337444E+02 -0.71591024592E+02  0.26663718261E+03  0.29906199653E+03  0.74181509242E+02 0.  0.
          5    1    3    3  501    0  0.67900699184E+01 -0.37242050042E+02  0.30466313717E+03  0.30704200444E+03  0.47000000000E+01 0. -1.
        -11    1    4    4    0    0  0.29940818617E+02  0.41061607718E+02  0.85839039665E+02  0.99753942170E+02  0.00000000000E+00 0.  1.
         12    1    4    4    0    0  0.11030300914E+03  0.81977059495E+00  0.34339031869E+03  0.36067206271E+03  0.00000000000E+00 0. -1.
         -5    1    5    5    0  502 -0.59201560232E+02  0.66951696320E+02  0.23300742926E+03  0.24960349851E+03  0.47000000000E+01 0.  1.
         13    1    6    6    0    0 -0.54193693687E+02 -0.46143244153E+02  0.77278940594E+02  0.10506279111E+03  0.00000000000E+00 0. -1.
        -14    1    6    6    0    0 -0.33638643757E+02 -0.25447780438E+02  0.18935824202E+03  0.19399920542E+03  0.00000000000E+00 0.  1.
</event>
<event>
12    1  0.8133506E-002  0.1792713E+03  0.7818608E-02  0.1169856E+00
         21   -1    0    0  501  502  0.00000000000E+00  0.00000000000E+00  0.71545262103E+03  0.71545262103E+03  0.00000000000E+00 0.  1.
         21   -1    0    0  502  503 -0.00000000000E+00 -0.00000000000E+00 -0.16702140258E+03  0.16702140258E+03  0.00000000000E+00 0.  1.
         -6    2    1    2    0  503 -0.11848469609E+02 -0.28375632419E+02 -0.10622377812E+03  0.20371680831E+03  0.17108911187E+03 0.  0.
        -24    2    3    3    0    0 -0.24043858911E+02  0.43955544600E+02 -0.33685755324E+02  0.10044831631E+03  0.80280365499E+02 0.  0.
          6    2    1    2  501    0  0.11848469609E+02  0.28375632419E+02  0.65465499657E+03  0.67875721530E+03  0.17661435404E+03 0.  0.
         24    2    5    5    0    0  0.64690491865E+02  0.41173517233E+02  0.32241126796E+03  0.34206143219E+03  0.84716464888E+02 0.  0.
          5    1    5    5  501    0 -0.52842022256E+02 -0.12797884814E+02  0.33224372860E+03  0.33669578311E+03  0.47000000000E+01 0. -1.
        -13    1    6    6    0    0  0.18016282176E+02  0.17660376533E+02  0.25746720687E+03  0.25870028593E+03  0.00000000000E+00 0.  1.
         14    1    6    6    0    0  0.46674209689E+02  0.23513140699E+02  0.64944061088E+02  0.83361146263E+02  0.00000000000E+00 0. -1.
         -5    1    3    3    0  503  0.12195389302E+02 -0.72331177019E+02 -0.72538022795E+02  0.10326849200E+03  0.47000000000E+01 0.  1.
         11    1    4    4    0    0 -0.47040864640E+02  0.36156685000E+01 -0.96293967754E+01  0.48152271878E+02  0.00000000000E+00 0. -1.
        -12    1    4    4    0    0  0.22997005729E+02  0.40339876100E+02 -0.24056358549E+02  0.52296044429E+02  0.00000000000E+00 0.  1.
</event>
<event>
12    1  0.8133506E-002  0.3247046E+03  0.7818608E-02  0.1073538E+00
         21   -1    0    0  503  502  0.00000000000E+00  0.00000000000E+00  0.10860254639E+04  0.10860254639E+04  0.00000000000E+00 0.  1.
         21   -1    0    0  501  503 -0.00000000000E+00 -0.00000000000E+00 -0.10183866420E+03  0.10183866420E+03  0.00000000000E+00 0. -1.
          6    2    1    2  501    0  0.19383526631E+03 -0.19519191768E+03  0.36230553831E+03  0.48631630311E+03  0.17194838874E+03 0.  0.
         24    2    3    3    0    0  0.18681969845E+02 -0.81880972314E+02  0.12216903529E+03  0.16818790500E+03  0.79425364847E+02 0.  0.
         -6    2    1    2    0  502 -0.19383526631E+03  0.19519191768E+03  0.62188126139E+03  0.70154782499E+03  0.17251391911E+03 0.  0.
        -24    2    5    5    0    0 -0.77401752115E+02  0.96984480941E+02  0.17257590009E+03  0.22710197818E+03  0.79974035971E+02 0.  0.
          5    1    3    3  501    0  0.17515329647E+03 -0.11331094536E+03  0.24013650302E+03  0.31812839811E+03  0.47000000000E+01 0. -1.
        -13    1    4    4    0    0 -0.15003955215E+02  0.97439513520E+01  0.21279000605E+02  0.27800344005E+02  0.00000000000E+00 0.  1.
         14    1    4    4    0    0  0.33685925061E+02 -0.91624923666E+02  0.10089003468E+03  0.14038756100E+03  0.00000000000E+00 0. -1.
         -5    1    5    5    0  502 -0.11643351420E+03  0.98207436734E+02  0.44930536130E+03  0.47444584680E+03  0.47000000000E+01 0.  1.
         11    1    6    6    0    0 -0.93383228383E+02  0.84322397781E+02  0.13634690300E+03  0.18552943721E+03  0.00000000000E+00 0. -1.
        -12    1    6    6    0    0  0.15981476268E+02  0.12662083161E+02  0.36228997085E+02  0.41572540979E+02  0.00000000000E+00 0.  1.
</event>
<event>
12    1  0.8133506E-002  0.1958341E+03  0.7818608E-02  0.1153342E+00
         21   -1    0    0  501  502  0.00000000000E+00  0.00000000000E+00  0.16004181584E+03  0.16004181584E+03  0.00000000000E+00 0. -1.
         21   -1    0    0  502  503 -0.00000000000E+00 -0.00000000000E+00 -0.24196732854E+03  0.24196732854E+03  0.00000000000E+00 0. -1.
         -6    2    1    2    0  503  0.85207422774E+02  0.35904756324E+02 -0.20256150720E+02  0.19669454287E+03  0.17242092428E+03 0.  0.
        -24    2    3    3    0    0  0.12467614282E+03  0.41668838520E+02 -0.29121709508E+02  0.15556435154E+03  0.77921504179E+02 0.  0.
          6    2    1    2  501    0 -0.85207422774E+02 -0.35904756324E+02 -0.61669361977E+02  0.20531460151E+03  0.17263116452E+03 0.  0.
         24    2    5    5    0    0 -0.16700888740E+02  0.10414461329E+02  0.24193494248E+02  0.86011897394E+02  0.80158222534E+02 0.  0.
          5    1    5    5  501    0 -0.68506534035E+02 -0.46319217653E+02 -0.85862856225E+02  0.11930270411E+03  0.47000000000E+01 0. -1.
        -13    1    6    6    0    0  0.29303818373E+02 -0.84729616633E+01  0.19170431934E+02  0.36027910169E+02  0.00000000000E+00 0.  1.
         14    1    6    6    0    0 -0.46004707113E+02  0.18887422992E+02  0.50230623138E+01  0.49983987225E+02  0.00000000000E+00 0. -1.
         -5    1    3    3    0  503 -0.39468720049E+02 -0.57640821964E+01  0.88655587883E+01  0.41130191326E+02  0.47000000000E+01 0.  1.
         13    1    4    4    0    0  0.99364299761E+02  0.21940466126E+01  0.17810871168E+01  0.99404477660E+02  0.00000000000E+00 0. -1.
        -14    1    4    4    0    0  0.25311843062E+02  0.39474791908E+02 -0.30902796625E+02  0.56159873883E+02  0.00000000000E+00 0.  1.
</event>
<event>
12    1  0.8133506E-002  0.1796096E+03  0.7818608E-02  0.1168413E+00
         21   -1    0    0  503  502  0.00000000000E+00  0.00000000000E+00  0.97863829018E+02  0.97863829018E+02  0.00000000000E+00 0. -1.
         21   -1    0    0  501  503 -0.00000000000E+00 -0.00000000000E+00 -0.36749106978E+03  0.36749106978E+03  0.00000000000E+00 0. -1.
          6    2    1    2  501    0  0.51549193235E+02 -0.18273169583E+02 -0.21150747914E+03  0.27747979110E+03  0.17108007683E+03 0.  0.
         24    2    3    3    0    0 -0.23023372948E+02 -0.40298714541E+02 -0.64878148558E+02  0.11144231688E+03  0.77821293590E+02 0.  0.
         -6    2    1    2    0  502 -0.51549193235E+02  0.18273169583E+02 -0.58119761612E+02  0.18787510769E+03  0.17008210179E+03 0.  0.
        -24    2    5    5    0    0 -0.38609507487E+02 -0.39132963854E+02  0.76441712664E+01  0.99501556833E+02  0.82583554837E+02 0.  0.
          5    1    3    3  501    0  0.74572566183E+02  0.22025544957E+02 -0.14662933059E+03  0.16603747422E+03  0.47000000000E+01 0. -1.
        -11    1    4    4    0    0 -0.51163511289E+02 -0.33368340719E+02 -0.49574822142E+02  0.78669015757E+02  0.00000000000E+00 0.  1.
         12    1    4    4    0    0  0.28140138341E+02 -0.69303738217E+01 -0.15303326416E+02  0.32773301124E+02  0.00000000000E+00 0. -1.
         -5    1    5    5    0  502 -0.12939685748E+02  0.57406133437E+02 -0.65763932878E+02  0.88373550857E+02  0.47000000000E+01 0.  1.
         13    1    6    6    0    0 -0.55594263344E+02 -0.47387047263E+02 -0.99097490439E+01  0.73718772990E+02  0.00000000000E+00 0. -1.
        -14    1    6    6    0    0  0.16984755857E+02  0.82540834092E+01  0.17553920310E+02  0.25782783843E+02  0.00000000000E+00 0.  1.
</event>
<event>
12    1  0.8133506E-002  0.2138409E+03  0.7818608E-02  0.1139202E+00
         21   -1    0    0  503  502  0.00000000000E+00  0.00000000000E+00  0.25117298776E+03  0.25117298776E+03  0.00000000000E+00 0. -1.
         21   -1    0    0  501  503 -0.00000000000E+00 -0.00000000000E+00 -0.54601452513E+03  0.54601452513E+03  0.00000000000E+00 0. -1.
          6    2    1    2  501    0  0.10284234642E+03  0.72618541917E+02 -0.47371542098E+03  0.51839765718E+03  0.16875968133E+03 0.  0.
         24    2    3    3    0    0  0.10471266755E+03  0.10500057808E+03 -0.31367880601E+03  0.35503945414E+03  0.75291145002E+02 0.  0.
         -6    2    1    2    0  502 -0.10284234642E+03 -0.72618541917E+02  0.17887388362E+03  0.27878985570E+03  0.17285229694E+03 0.  0.
        -24    2    5    5    0    0 -0.85026095704E+02  0.19612050391E+02  0.86311457156E+02  0.14682852145E+03  0.80590803460E+02 0.  0.
          5    1    3    3  501    0 -0.18703211298E+01 -0.32382036160E+02 -0.16003661498E+03  0.16335820304E+03  0.47000000000E+01 0. -1.
        -11    1    4    4    0    0  0.65529772496E+02  0.89998685817E+02 -0.15454835080E+03  0.19047075174E+03  0.00000000000E+00 0.  1.
         12    1    4    4    0    0  0.39182895056E+02  0.15001892261E+02 -0.15913045521E+03  0.16456870240E+03  0.00000000000E+00 0. -1.
         -5    1    5    5    0  502 -0.17816250718E+02 -0.92230592309E+02  0.92562426460E+02  0.13196133426E+03  0.47000000000E+01 0.  1.
         11    1    6    6    0    0 -0.20620164907E+02 -0.16707484808E+02  0.64486437121E+02  0.69734007643E+02  0.00000000000E+00 0. -1.
        -12    1    6    6    0    0 -0.64405930797E+02  0.36319535199E+02  0.21825020035E+02  0.77094513803E+02  0.00000000000E+00 0.  1.
</event>
<event>
12    1  0.8133506E-002  0.1724741E+03  0.7818608E-02  0.1175366E+00
         21   -1    0    0  503  502  0.00000000000E+00  0.00000000000E+00  0.74539005842E+02  0.74539005842E+02  0.00000000000E+00 0.  1.
         21   -1    0    0  501  503 -0.00000000000E+00 -0.00000000000E+00 -0.41699968943E+03  0.41699968943E+03  0.00000000000E+00 0.  1.
          6    2    1    2  501    0 -0.11098273636E+02  0.51258185769E+01 -0.22297554306E+03  0.28171966573E+03  0.17175107441E+03 0.  0.
         24    2    3    3    0    0  0.61921262775E+00 -0.45505286307E+02 -0.20825108654E+03  0.22750059264E+03  0.79478865762E+02 0.  0.
         -6    2    1    2    0  502  0.11098273636E+02 -0.51258185769E+01 -0.11948514052E+03  0.20981902954E+03  0.17204034602E+03 0.  0.
        -24    2    5    5    0    0 -0.15835736656E+02 -0.11655649421E+02  0.39391507271E+01  0.83234175505E+02  0.80782339312E+02 0.  0.
          5    1    3    3  501    0 -0.11717486264E+02  0.50631104884E+02 -0.14724456526E+02  0.54219073084E+02  0.47000000000E+01 0. -1.
        -11    1    4    4    0    0  0.32415425118E+02 -0.23948165835E+02 -0.47838263663E+02  0.62552169449E+02  0.00000000000E+00 0.  1.
         12    1    4    4    0    0 -0.31796212491E+02 -0.21557120472E+02 -0.16041282287E+03  0.16494842319E+03  0.00000000000E+00 0. -1.
         -5    1    5    5    0  502  0.26934010292E+02  0.65298308441E+01 -0.12342429125E+03  0.12658485404E+03  0.47000000000E+01 0.  1.
         11    1    6    6    0    0  0.20272566165E+02 -0.21756055781E+02 -0.22555350435E+02  0.37323541301E+02  0.00000000000E+00 0. -1.
        -12    1    6    6    0    0 -0.36108302820E+02  0.10100406360E+02  0.26494501162E+02  0.45910634204E+02  0.00000000000E+00 0.  1.
</event>
<event>
12    1  0.8133506E-002  0.2128485E+03  0.7818608E-02  0.1139530E+00
         21   -1    0    0  503  502  0.00000000000E+00  0.00000000000E+00  0.30603504293E+03  0.30603504293E+03  0.00000000000E+00 0. -1.
         21   -1    0    0  501  503 -0.00000000000E+00 -0.00000000000E+00 -0.37076992011E+03  0.37076992011E+03  0.00000000000E+00 0. -1.
          6    2    1    2  501    0  0.65568850476E+02  0.10644721769E+03 -0.29510302392E+03  0.36385477229E+03  0.17226205701E+03 0.  0.
         24    2    3    3    0    0  0.59674613624E+02  0.19921968962E+02 -0.71904137861E+02  0.12435280271E+03  0.79595666603E+02 0.  0.
         -6    2    1    2    0  502 -0.65568850476E+02 -0.10644721769E+03  0.23036814674E+03  0.31295019076E+03  0.17099138737E+03 0.  0.
        -24    2    5    5    0    0 -0.25523284314E+01 -0.79581844841E+02  0.21423411326E+03  0.24241489927E+03  0.80801879276E+02 0.  0.
          5    1    3    3  501    0  0.58942368523E+01  0.86525248730E+02 -0.22319888605E+03  0.23950196958E+03  0.47000000000E+01 0. -1.
        -13    1    4    4    0    0  0.65952961687E+02  0.30000179418E+02 -0.81525809135E+02  0.10906998430E+03  0.00000000000E+00 0.  1.
         14    1    4    4    0    0 -0.62783480632E+01 -0.10078210457E+02  0.96216712745E+01  0.15282818409E+02  0.00000000000E+00 0. -1.
         -5    1    5    5    0  502 -0.63016522044E+02 -0.26865372850E+02  0.16134033477E+02  0.70535291487E+02  0.47000000000E+01 0.  1.
         13    1    6    6    0    0  0.91586714840E+01 -0.87880091955E+02  0.13138260506E+03  0.15832934263E+03  0.00000000000E+00 0. -1.
        -14    1    6    6    0    0 -0.11710999915E+02  0.82982471139E+01  0.82851508201E+02  0.84085556639E+02  0.00000000000E+00 0.  1.
</event>
<event>
12    1  0.8133506E-002  0.1733112E+03  0.7818608E-02  0.1174586E+00
         21   -1    0    0  501  502  0.00000000000E+00  0.00000000000E+00  0.19382616133E+04  0.19382616133E+04  0.00000000000E+00 0. -1.
         21   -1    0    0  502  503 -0.00000000000E+00 -0.00000000000E+00 -0.15537859750E+02  0.15537859750E+02  0.00000000000E+00 0. -1.
         -6    2    1    2    0  503 -0.27540186660E+01  0.17839959486E+02  0.10386038192E+04  0.10529647057E+04  0.17236858618E+03 0.  0.
        -24    2    3    3    0    0 -0.41932543350E+02  0.35892844014E+02  0.93754700809E+03  0.94298546902E+03  0.84738232042E+02 0.  0.
          6    2    1    2  501    0  0.27540186660E+01 -0.17839959486E+02  0.88411993440E+03  0.90083476736E+03  0.17178291798E+03 0.  0.
         24    2    5    5    0    0  0.44639139875E+02 -0.60839533606E+02  0.50556046446E+03  0.51751676748E+03  0.80858640462E+02 0.  0.
          5    1    5    5  501    0 -0.41885121209E+02  0.42999574121E+02  0.37855946994E+03  0.38331799988E+03  0.47000000000E+01 0. -1.
        -11    1    6    6    0    0  0.47163752135E+02 -0.82588662059E+00  0.28708223714E+03  0.29093180040E+03  0.00000000000E+00 0.  1.
         12    1    6    6    0    0 -0.25246122594E+01 -0.60013646986E+02  0.21847822732E+03  0.22658496707E+03  0.00000000000E+00 0. -1.
         -5    1    3    3    0  503  0.39178524684E+02 -0.18052884528E+02  0.10105681109E+03  0.10997923670E+03  0.47000000000E+01 0.  1.
         11    1    4    4    0    0  0.15208809514E+02  0.40434075148E+02  0.45483880018E+03  0.45688571489E+03  0.00000000000E+00 0. -1.
        -12    1    4    4    0    0 -0.57141352865E+02 -0.45412311346E+01  0.48270820790E+03  0.48609975413E+03  0.00000000000E+00 0.  1.
</event>
<event>
12    1  0.8133506E-002  0.2050771E+03  0.7818608E-02  0.1147897E+00
         21   -1    0    0  501  502  0.00000000000E+00  0.00000000000E+00  0.64304996398E+02  0.64304996398E+02  0.00000000000E+00 0. -1.
         21   -1    0    0  502  503 -0.00000000000E+00 -0.00000000000E+00 -0.70624721397E+03  0.70624721397E+03  0.00000000000E+00 0. -1.
         -6    2    1    2    0  503 -0.87162297662E+02  0.31612912060E+02 -0.44873256980E+03  0.48879593882E+03  0.17018786167E+03 0.  0.
        -24    2    3    3    0    0 -0.10217898090E+03  0.72896124975E+02 -0.35515539271E+03  0.38531365765E+03  0.81097919967E+02 0.  0.
          6    2    1    2  501    0  0.87162297662E+02 -0.31612912060E+02 -0.19320964778E+03  0.28175627155E+03  0.18292071021E+03 0.  0.
         24    2    5    5    0    0  0.86940874680E+02 -0.47465915738E+02 -0.21741035796E+03  0.25244533286E+03  0.81545407507E+02 0.  0.
          5    1    5    5  501    0  0.22142298155E+00  0.15853003678E+02  0.24200710187E+02  0.29310938697E+02  0.47000000000E+01 0. -1.
        -13    1    6    6    0    0  0.13721831942E+02  0.22934955646E+02 -0.44820597852E+02  0.52184162868E+02  0.00000000000E+00 0.  1.
         14    1    6    6    0    0  0.73219042738E+02 -0.70400871384E+02 -0.17258976011E+03  0.20026116999E+03  0.00000000000E+00 0. -1.
         -5    1    3    3    0  503  0.15016683239E+02 -0.41283212915E+02 -0.93577177087E+02  0.10348228117E+03  0.47000000000E+01 0.  1.
         11    1    4    4    0    0 -0.12010880281E+02  0.58051661408E+01 -0.15651465928E+03  0.15708214338E+03  0.00000000000E+00 0. -1.
        -12    1    4    4    0    0 -0.90168100620E+02  0.67090958834E+02 -0.19864073343E+03  0.22823151427E+03  0.00000000000E+00 0.  1.
</event>
<event>
12    1  0.8133506E-002  0.1836488E+03  0.7818608E-02  0.1164637E+00
         21   -1    0    0  503  502  0.00000000000E+00  0.00000000000E+00  0.19380082389E+03  0.19380082389E+03  0.00000000000E+00 0.  1.
         21   -1    0    0  501  503 -0.00000000000E+00 -0.00000000000E+00 -0.27678859154E+03  0.27678859154E+03  0.00000000000E+00 0.  1.
          6    2    1    2  501    0  0.42094994271E+02 -0.43166814279E+02 -0.18584237831E+03  0.26127432909E+03  0.17346908388E+03 0.  0.
         24    2    3    3    0    0  0.13493594512E+02  0.41483557688E+02 -0.70545489716E+02  0.11533191557E+03  0.80136271303E+02 0.  0.
         -6    2    1    2    0  502 -0.42094994271E+02  0.43166814279E+02  0.10285461067E+03  0.20931508635E+03  0.17204177411E+03 0.  0.
        -24    2    5    5    0    0  0.34672920297E+02  0.42070308519E+02  0.88282244524E+02  0.13102741882E+03  0.80014420722E+02 0.  0.
          5    1    3    3  501    0  0.28601399759E+02 -0.84650371968E+02 -0.11529688860E+03  0.14594241352E+03  0.47000000000E+01 0. -1.
        -11    1    4    4    0    0  0.31185421538E+02  0.56647793007E+02 -0.64335756029E+02  0.91217281657E+02  0.00000000000E+00 0.  1.
         12    1    4    4    0    0 -0.17691827025E+02 -0.15164235318E+02 -0.62097336874E+01  0.24114633913E+02  0.00000000000E+00 0. -1.
         -5    1    5    5    0  502 -0.76767914568E+02  0.10965057601E+01  0.14572366141E+02  0.78287667528E+02  0.47000000000E+01 0.  1.
         11    1    6    6    0    0 -0.31205022496E+01  0.49845780318E+02  0.75221617827E+02  0.90291921778E+02  0.00000000000E+00 0. -1.
        -12    1    6    6    0    0  0.37793422547E+02 -0.77754717995E+01  0.13060626697E+02  0.40735497041E+02  0.00000000000E+00 0.  1.
</event>
<event>
12    1  0.8133506E-002  0.1870639E+03  0.7818608E-02  0.1161416E+00
         21   -1    0    0  503  502  0.00000000000E+00  0.00000000000E+00  0.20191477830E+03  0.20191477830E+03  0.00000000000E+00 0. -1.
         21   -1    0    0  501  503 -0.00000000000E+00 -0.00000000000E+00 -0.26259102120E+03  0.26259102120E+03  0.00000000000E+00 0. -1.
          6    2    1    2  501    0 -0.66638565475E+02  0.22305361126E+02 -0.16667746248E+03  0.25054793223E+03  0.17336280542E+03 0.  0.
         24    2    3    3    0    0 -0.15573924817E+02 -0.19993179474E+02 -0.16501550703E+03  0.18405269813E+03  0.77479053731E+02 0.  0.
         -6    2    1    2    0  502  0.66638565475E+02 -0.22305361126E+02  0.10600121958E+03  0.21395786728E+03  0.17205662694E+03 0.  0.
        -24    2    5    5    0    0  0.25639254626E+02 -0.77796851187E+02  0.75877854009E+02  0.13852739524E+03  0.81991884167E+02 0.  0.
          5    1    3    3  501    0 -0.51064640658E+02  0.42298540600E+02 -0.16619554448E+01  0.66495234102E+02  0.47000000000E+01 0. -1.
        -13    1    4    4    0    0 -0.22901463234E+02  0.19830075963E+02 -0.28260584146E+02  0.41429090591E+02  0.00000000000E+00 0.  1.
         14    1    4    4    0    0  0.73275384170E+01 -0.39823255437E+02 -0.13675492289E+03  0.14262360754E+03  0.00000000000E+00 0. -1.
         -5    1    5    5    0  502  0.40999310850E+02  0.55491490061E+02  0.30123365570E+02  0.75430472043E+02  0.47000000000E+01 0.  1.
         13    1    6    6    0    0 -0.25209713570E+02 -0.33273318486E+01  0.20901786438E+02  0.32916340498E+02  0.00000000000E+00 0. -1.
        -14    1    6    6    0    0  0.50848968195E+02 -0.74469519338E+02  0.54976067571E+02  0.10561105474E+03  0.00000000000E+00 0.  1.
</event>
<event>
12    1  0.8133506E-002  0.2079528E+03  0.7818608E-02  0.1143433E+00
         21   -1    0    0  501  502  0.00000000000E+00  0.00000000000E+00  0.60172896326E+02  0.60172896326E+02  0.00000000000E+00 0.  1.
         21   -1    0    0  502  503 -0.00000000000E+00 -0.00000000000E+00 -0.75013940151E+03  0.75013940151E+03  0.00000000000E+00 0. -1.
         -6    2    1    2    0  503  0.51998234503E+02 -0.10254859324E+03 -0.43407016095E+03  0.48131202459E+03  0.17327530122E+03 0.  0.
        -24    2    3    3    0    0  0.21584661913E+02 -0.85322810892E+02 -0.42954218162E+03  0.44575494973E+03  0.80281440762E+02 0.  0.
          6    2    1    2  501    0 -0.51998234503E+02  0.10254859324E+03 -0.25589634423E+03  0.32900027325E+03  0.17186683927E+03 0.  0.
         24    2    5    5    0    0 -0.26094384140E+02 -0.89785595755E+01 -0.15723071902E+03  0.17778416671E+03  0.78257137135E+02 0.  0.
          5    1    5    5  501    0 -0.25903850363E+02  0.11152715282E+03 -0.98665625208E+02  0.15121610654E+03  0.47000000000E+01 0. -1.
        -11    1    6    6    0    0 -0.13993670614E+02  0.31800400490E+02 -0.39503657937E+02  0.52608243451E+02  0.00000000000E+00 0.  1.
         12    1    6    6    0    0 -0.12100713525E+02 -0.40778960065E+02 -0.11772706108E+03  0.12517592326E+03  0.00000000000E+00 0. -1.
         -5    1    3    3    0  503  0.30413572590E+02 -0.17225782351E+02 -0.45279793322E+01  0.35557074854E+02  0.47000000000E+01 0.  1.
         13    1    4    4    0    0  0.94655165985E+01 -0.28341754209E+02 -0.32255036473E+03  0.32393145699E+03  0.00000000000E+00 0. -1.
        -14    1    4    4    0    0  0.12119145314E+02 -0.56981056683E+02 -0.10699181689E+03  0.12182349275E+03  0.00000000000E+00 0.  1.
</event>
<event>
12    1  0.8133506E-002  0.1742308E+03  0.7818608E-02  0.1173762E+00
         21   -1    0    0  503  502  0.00000000000E+00  0.00000000000E+00  0.16808087112E+03  0.16808087112E+03  0.00000000000E+00 0.  1.
         21   -1    0    0  501  503 -0.00000000000E+00 -0.00000000000E+00 -0.26691798147E+03  0.26691798147E+03  0.00000000000E+00 0.  1.
          6    2    1    2  501    0 -0.11591680384E+02  0.11748595515E+02 -0.17375007796E+03  0.24534571036E+03  0.17243268672E+03 0.  0.
         24    2    3    3    0    0  0.16298611113E+02 -0.21436528108E+02 -0.15910108532E+02  0.81593865367E+02  0.75360850914E+02 0.  0.
         -6    2    1    2    0  502  0.11591680384E+02 -0.11748595515E+02  0.74912967611E+02  0.18965314223E+03  0.17344729774E+03 0.  0.
        -24    2    5    5    0    0  0.36573192375E+02  0.47262159766E+02  0.13785323280E+02  0.10096817123E+03  0.80207395653E+02 0.  0.
          5    1    3    3  501    0 -0.27890291496E+02  0.33185123624E+02 -0.15783996942E+03  0.16375184499E+03  0.47000000000E+01 0. -1.
        -13    1    4    4    0    0 -0.81751894021E+01  0.25535853746E+02 -0.84047184662E+01  0.28098982914E+02  0.00000000000E+00 0.  1.
         14    1    4    4    0    0  0.24473800515E+02 -0.46972381854E+02 -0.75053900658E+01  0.53494882454E+02  0.00000000000E+00 0. -1.
         -5    1    5    5    0  502 -0.24981511992E+02 -0.59010755281E+02  0.61127644332E+02  0.88684971003E+02  0.47000000000E+01 0.  1.
         11    1    6    6    0    0  0.32433375566E+02  0.38662600520E+02  0.45438672834E+02  0.67907242018E+02  0.00000000000E+00 0. -1.
        -12    1    6    6    0    0  0.41398168093E+01  0.85995592456E+01 -0.31653349554E+02  0.33060929213E+02  0.00000000000E+00 0.  1.
</event>
<event>
12    1  0.8133506E-002  0.2309780E+03  0.7818608E-02  0.1126047E+00
         21   -1    0    0  503  502  0.00000000000E+00  0.00000000000E+00  0.21397991541E+03  0.21397991541E+03  0.00000000000E+00 0.  1.
         21   -1    0    0  501  503 -0.00000000000E+00 -0.00000000000E+00 -0.24891038182E+03  0.24891038182E+03  0.00000000000E+00 0.  1.
          6    2    1    2  501    0  0.11625379072E+03 -0.97924264444E+02 -0.23361250436E+02  0.23215642197E+03  0.17391593031E+03 0.  0.
         24    2    3    3    0    0  0.13551422566E+03 -0.10934495899E+03  0.93895751583E+01  0.19220516172E+03  0.80834612998E+02 0.  0.
         -6    2    1    2    0  502 -0.11625379072E+03  0.97924264444E+02 -0.11569215974E+02  0.23073387527E+03  0.17320556865E+03 0.  0.
        -24    2    5    5    0    0  0.44408531772E+00  0.77923983837E+02 -0.12529696638E+02  0.11223738578E+03  0.79799078945E+02 0.  0.
          5    1    3    3  501    0 -0.19260434935E+02  0.11420694549E+02 -0.32750825595E+02  0.39951260243E+02  0.47000000000E+01 0. -1.
        -11    1    4    4    0    0  0.86506965754E+02 -0.43873730912E+02 -0.29865563001E+02  0.10149044902E+03  0.00000000000E+00 0.  1.
         12    1    4    4    0    0  0.49007259906E+02 -0.65471228081E+02  0.39255138159E+02  0.90714712709E+02  0.00000000000E+00 0. -1.
         -5    1    5    5    0  502 -0.11669787604E+03  0.20000280608E+02  0.96048066384E+00  0.11849648949E+03  0.47000000000E+01 0.  1.
         11    1    6    6    0    0 -0.23219200272E+02  0.83352307689E+02 -0.44123156566E+01  0.86638369028E+02  0.00000000000E+00 0. -1.
        -12    1    6    6    0    0  0.23663285590E+02 -0.54283238521E+01 -0.81173809812E+01  0.25599016754E+02  0.00000000000E+00 0.  1.
</event>
<event>
12    1  0.8133506E-002  0.2308335E+03  0.7818608E-02  0.1126672E+00
         21   -1    0    0  503  502  0.00000000000E+00  0.00000000000E+00  0.59508426391E+02  0.59508426391E+02  0.00000000000E+00 0.  1.
         21   -1    0    0  501  503 -0.00000000000E+00 -0.00000000000E+00 -0.89572437386E+03  0.89572437386E+03  0.00000000000E+00 0.  1.
          6    2    1    2  501    0 -0.38052898659E+02  0.14384473973E+03 -0.47433220907E+03  0.52599633946E+03  0.17187720130E+03 0.  0.
         24    2    3    3    0    0 -0.77450727844E+02  0.10583589067E+03 -0.24657772416E+03  0.29170793397E+03  0.84220506381E+02 0.  0.
         -6    2    1    2    0  502  0.38052898659E+02 -0.14384473973E+03 -0.36188373840E+03  0.42923646079E+03  0.17647880016E+03 0.  0.
        -24    2    5    5    0    0  0.10934973110E+02 -0.67933817959E+01 -0.19582614119E+03  0.21217501284E+03  0.80651316316E+02 0.  0.
          5    1    3    3  501    0  0.39397829185E+02  0.38008849060E+02 -0.22775448491E+03  0.23428840549E+03  0.47000000000E+01 0. -1.
        -13    1    4    4    0    0 -0.60542365134E+02  0.11733376052E+03 -0.23073748416E+03  0.26584276543E+03  0.00000000000E+00 0.  1.
         14    1    4    4    0    0 -0.16908362710E+02 -0.11497869853E+02 -0.15840239998E+02  0.25865168546E+02  0.00000000000E+00 0. -1.
         -5    1    5    5    0  502  0.27117925549E+02 -0.13705135793E+03 -0.16605759721E+03  0.21706144795E+03  0.47000000000E+01 0.  1.
         13    1    6    6    0    0 -0.33367340933E+02 -0.14676809687E+02 -0.79931540565E+02  0.87851234258E+02  0.00000000000E+00 0. -1.
        -14    1    6    6    0    0  0.44302314043E+02  0.78834278910E+01 -0.11589460063E+03  0.12432377858E+03  0.00000000000E+00 0.  1.
</event>
<event>
12    1  0.8133506E-002  0.2120981E+03  0.7818608E-02  0.1140302E+00
         21   -1    0    0  501  502  0.00000000000E+00  0.00000000000E+00  0.61690314394E+03  0.61690314394E+03  0.00000000000E+00 0. -1.
         21   -1    0    0  502  503 -0.00000000000E+00 -0.00000000000E+00 -0.75471543835E+02  0.75471543835E+02  0.00000000000E+00 0.  1.
         -6    2    1    2    0  503  0.93361117219E+02 -0.80994266491E+02  0.34106675855E+03  0.40060134850E+03  0.16993686246E+03 0.  0.
        -24    2    3    3    0    0  0.13182058054E+03 -0.78473523634E+02  0.26792082837E+03  0.31778890037E+03  0.75322344358E+02 0.  0.
          6    2    1    2  501    0 -0.93361117219E+02  0.80994266491E+02  0.20036484156E+03  0.29177333928E+03  0.17236369214E+03 0.  0.
         24    2    5    5    0    0  0.87681990407E+01  0.52214351916E+01  0.10604423992E+03  0.13337389137E+03  0.80243812096E+02 0.  0.
          5    1    5    5  501    0 -0.10212931626E+03  0.75772831299E+02  0.94320601641E+02  0.15839944791E+03  0.47000000000E+01 0. -1.
        -13    1    6    6    0    0 -0.90674492938E+01 -0.35224865188E+02  0.53739460616E+02  0.64891751336E+02  0.00000000000E+00 0.  1.
         14    1    6    6    0    0  0.17835648335E+02  0.40446300379E+02  0.52304779304E+02  0.68482140036E+02  0.00000000000E+00 0. -1.
         -5    1    3    3    0  503 -0.38459463321E+02 -0.25207428568E+01  0.73145930178E+02  0.82812448129E+02  0.47000000000E+01 0.  1.
         11    1    4    4    0    0  0.79722034311E+01  0.47328370919E+01  0.66406142261E+02  0.67050216289E+02  0.00000000000E+00 0. -1.
        -12    1    4    4    0    0  0.12384837711E+03 -0.83206360726E+02  0.20151468611E+03  0.25073868408E+03  0.00000000000E+00 0.  1.
</event>
<event>
12    1  0.8133506E-002  0.2928426E+03  0.7818608E-02  0.1088879E+00
         21   -1    0    0  503  502  0.00000000000E+00  0.00000000000E+00  0.69015638936E+03  0.69015638936E+03  0.00000000000E+00 0.  1.
         21   -1    0    0  501  503 -0.00000000000E+00 -0.00000000000E+00 -0.12918931237E+03  0.12918931237E+03  0.00000000000E+00 0. -1.
          6    2    1    2  501    0  0.23691936541E+03  0.16783811522E+02  0.20032338969E+03  0.35480455854E+03  0.17130187468E+03 0.  0.
         24    2    3    3    0    0  0.15261496144E+03 -0.35790194949E+02  0.18332073768E+03  0.25389648720E+03  0.79275903298E+02 0.  0.
         -6    2    1    2    0  502 -0.23691936541E+03 -0.16783811522E+02  0.36064368730E+03  0.46454114318E+03  0.17123703596E+03 0.  0.
        -24    2    5    5    0    0 -0.25157548634E+03 -0.18985760487E+02  0.36198126893E+03  0.44893570872E+03  0.82838077482E+02 0.  0.
          5    1    3    3  501    0  0.84304403974E+02  0.52574006471E+02  0.17002652016E+02  0.10090807134E+03  0.47000000000E+01 0. -1.
        -13    1    4    4    0    0 -0.26715780552E+00 -0.89840372520E+00  0.44366553470E+02  0.44376452871E+02  0.00000000000E+00 0.  1.
         14    1    4    4    0    0  0.15288211924E+03 -0.34891791223E+02  0.13895418421E+03  0.20952003433E+03  0.00000000000E+00 0. -1.
         -5    1    5    5    0  502  0.14656120932E+02  0.22019489642E+01 -0.13375816288E+01  0.15605434459E+02  0.47000000000E+01 0.  1.
         11    1    6    6    0    0 -0.60177155524E+02  0.25587583072E+02  0.60667399564E+02  0.89199483318E+02  0.00000000000E+00 0. -1.
        -12    1    6    6    0    0 -0.19139833082E+03 -0.44573343559E+02  0.30131386937E+03  0.35973622541E+03  0.00000000000E+00 0.  1.
</event>
<event>
12    1  0.8133506E-002  0.2227064E+03  0.7818608E-02  0.1132418E+00
         21   -1    0    0  503  502  0.00000000000E+00  0.00000000000E+00  0.18204097796E+03  0.18204097796E+03  0.00000000000E+00 0.  1.
         21   -1    0    0  501  503 -0.00000000000E+00 -0.00000000000E+00 -0.53426636381E+03  0.53426636381E+03  0.00000000000E+00 0. -1.
          6    2    1    2  501    0  0.13797624451E+03  0.54082642845E+01 -0.42793524822E+03  0.48108377339E+03  0.17101557525E+03 0.  0.
         24    2    3    3    0    0  0.21157064596E+02 -0.39187919376E+02 -0.17438954419E+03  0.19834174534E+03  0.83333189158E+02 0.  0.
         -6    2    1    2    0  502 -0.13797624451E+03 -0.54082642845E+01  0.75709862368E+02  0.23522356838E+03  0.17473251125E+03 0.  0.
        -24    2    5    5    0    0 -0.10084583101E+03  0.48457689707E+02  0.80319006109E+01  0.14097599486E+03  0.85391395203E+02 0.  0.
          5    1    3    3  501    0  0.11681917992E+03  0.44596183661E+02 -0.25354570403E+03  0.28274202805E+03  0.47000000000E+01 0. -1.
        -11    1    4    4    0    0 -0.22708183373E+02 -0.85501330911E+01 -0.11427608382E+02  0.26820824023E+02  0.00000000000E+00 0.  1.
         12    1    4    4    0    0  0.43865247968E+02 -0.30637786285E+02 -0.16296193580E+03  0.17152092132E+03  0.00000000000E+00 0. -1.
         -5    1    5    5    0  502 -0.37130413497E+02 -0.53865953991E+02  0.67677961757E+02  0.94247573515E+02  0.47000000000E+01 0.  1.
         11    1    6    6    0    0 -0.34708003875E+02  0.86932481983E+00 -0.34601442076E+02  0.49016946583E+02  0.00000000000E+00 0. -1.
        -12    1    6    6    0    0 -0.66137827140E+02  0.47588364887E+02  0.42633342687E+02  0.91959048277E+02  0.00000000000E+00 0.  1.
</event>
<event>
12    1  0.8133506E-002  0.2099261E+03  0.7818608E-02  0.1141629E+00
         21   -1    0    0  503  502  0.00000000000E+00  0.00000000000E+00  0.20453727699E+04  0.20453727699E+04  0.00000000000E+00 0.  1.
         21   -1    0    0  501  503 -0.00000000000E+00 -0.00000000000E+00 -0.25442229729E+02  0.25442229729E+02  0.00000000000E+00 0.  1.
          6    2    1    2  501    0 -0.11968588608E+03 -0.80604887843E+01  0.60459253282E+03  0.63999332694E+03  0.17224878806E+03 0.  0.
         24    2    3    3    0    0 -0.10011123760E+03  0.41242525144E+02  0.27744077970E+03  0.30853546595E+03  0.80607330537E+02 0.  0.
         -6    2    1    2    0  502  0.11968588608E+03  0.80604887843E+01  0.14153380074E+04  0.14308216727E+04  0.17227681549E+03 0.  0.
        -24    2    5    5    0    0  0.14834281957E+03  0.29233566481E+02  0.10408401160E+04  0.10546032791E+04  0.77328750466E+02 0.  0.
          5    1    3    3  501    0 -0.19574648484E+02 -0.49303013928E+02  0.32715175312E+03  0.33145786099E+03  0.47000000000E+01 0. -1.
        -13    1    4    4    0    0 -0.11504877773E+02  0.35295704979E+02  0.37853136266E+02  0.53018948761E+02  0.00000000000E+00 0.  1.
         14    1    4    4    0    0 -0.88606359826E+02  0.59468201649E+01  0.23958764343E+03  0.25551651719E+03  0.00000000000E+00 0. -1.
         -5    1    5    5    0  502 -0.28656933486E+02 -0.21173077697E+02  0.37449789133E+03  0.37621839358E+03  0.47000000000E+01 0.  1.
         11    1    6    6    0    0  0.97875511906E+02  0.22382897041E+01  0.42598919267E+03  0.43709428965E+03  0.00000000000E+00 0. -1.
        -12    1    6    6    0    0  0.50467307663E+02  0.26995276777E+02  0.61485092336E+03  0.61750898947E+03  0.00000000000E+00 0.  1.
</event>
<event>
12    1  0.8133506E-002  0.2080403E+03  0.7818608E-02  0.1143394E+00
         21   -1    0    0  503  502  0.00000000000E+00  0.00000000000E+00  0.18644318133E+04  0.18644318133E+04  0.00000000000E+00 0. -1.
         21   -1    0    0  501  503 -0.00000000000E+00 -0.00000000000E+00 -0.25626964766E+02  0.25626964766E+02  0.00000000000E+00 0. -1.
          6    2    1    2  501    0  0.22663749831E+02 -0.11073262474E+03  0.12154872418E+04  0.12329396091E+04  0.17307652917E+03 0.  0.
         24    2    3    3    0    0  0.77587216199E+02 -0.42114578240E+02  0.72507215091E+03  0.73468859320E+03  0.79020827233E+02 0.  0.
         -6    2    1    2    0  502 -0.22663749831E+02  0.11073262474E+03  0.62331760675E+03  0.65711916899E+03  0.17465796184E+03 0.  0.
        -24    2    5    5    0    0 -0.38803630005E+02  0.13540208955E+03  0.39800676257E+03  0.42983928705E+03  0.80703048837E+02 0.  0.
          5    1    3    3  501    0 -0.54923466368E+02 -0.68618046499E+02  0.49041509088E+03  0.49825101588E+03  0.47000000000E+01 0. -1.
        -13    1    4    4    0    0  0.55770263752E+01  0.19711056208E+02  0.20554848333E+03  0.20656671551E+03  0.00000000000E+00 0.  1.
         14    1    4    4    0    0  0.72010189824E+02 -0.61825634448E+02  0.51952366758E+03  0.52812187769E+03  0.00000000000E+00 0. -1.
         -5    1    5    5    0  502  0.16139880173E+02 -0.24669464810E+02  0.22531084419E+03  0.22727988194E+03  0.47000000000E+01 0.  1.
         11    1    6    6    0    0 -0.23335914495E+02  0.10916131364E+03  0.37610890370E+03  0.39232469301E+03  0.00000000000E+00 0. -1.
        -12    1    6    6    0    0 -0.15467715510E+02  0.26240775913E+02  0.21897858863E+02  0.37514594045E+02  0.00000000000E+00 0.  1.
</event>
<event>
12    1  0.8133506E-002  0.1789997E+03  0.7818608E-02  0.1169534E+00
         21   -1    0    0  501  502  0.00000000000E+00  0.00000000000E+00  0.52314607611E+02  0.52314607611E+02  0.00000000000E+00 0. -1.
         21   -1    0    0  502  503 -0.00000000000E+00 -0.00000000000E+00 -0.70384952101E+03  0.70384952101E+03  0.00000000000E+00 0.  1.
         -6    2    1    2    0  503  0.42051268666E+02  0.28841983746E+02 -0.46719641079E+03  0.49921746124E+03  0.16836097569E+03 0.  0.
        -24    2    3    3    0    0 -0.38718452606E+02  0.35423301005E+01 -0.20028546053E+03  0.21916859816E+03  0.80055868264E+02 0.  0.
          6    2    1    2  501    0 -0.42051268666E+02 -0.28841983746E+02 -0.18433850262E+03  0.25694666738E+03  0.17158303269E+03 0.  0.
         24    2    5    5    0    0 -0.26326473553E+02  0.96684462545E+00 -0.20179481889E+03  0.21870208073E+03  0.80096399324E+02 0.  0.
          5    1    5    5  501    0 -0.15724795113E+02 -0.29808828372E+02  0.17456316277E+02  0.38244586652E+02  0.47000000000E+01 0. -1.
        -11    1    6    6    0    0 -0.46370953034E+02  0.96435471649E-01 -0.61725110433E+02  0.77202745049E+02  0.00000000000E+00 0.  1.
         12    1    6    6    0    0  0.20044479481E+02  0.87040915381E+00 -0.14006970846E+03  0.14149933568E+03  0.00000000000E+00 0. -1.
         -5    1    3    3    0  503  0.80769721272E+02  0.25299653646E+02 -0.26691095026E+03  0.28004886309E+03  0.47000000000E+01 0.  1.
         13    1    4    4    0    0 -0.42847364506E+02  0.34367229394E+02 -0.99008408024E+02  0.11322397255E+03  0.00000000000E+00 0. -1.
        -14    1    4    4    0    0  0.41289119003E+01 -0.30824899293E+02 -0.10127705250E+03  0.10594462560E+03  0.00000000000E+00 0.  1.
</event>
<event>
12    1  0.8133506E-002  0.2133357E+03  0.7818608E-02  0.1139206E+00
         21   -1    0    0  501  502  0.00000000000E+00  0.00000000000E+00  0.88936169663E+03  0.88936169663E+03  0.00000000000E+00 0.  1.
         21   -1    0    0  502  503 -0.00000000000E+00 -0.00000000000E+00 -0.66891598381E+02  0.66891598381E+02  0.00000000000E+00 0.  1.
         -6    2    1    2    0  503 -0.10006578448E+03 -0.73071451808E+02  0.17813032640E+03  0.27792543390E+03  0.17366500894E+03 0.  0.
        -24    2    3    3    0    0 -0.21753117476E+02  0.26762913411E+02  0.74616260192E+02  0.11410533075E+03  0.79139045778E+02 0.  0.
          6    2    1    2  501    0  0.10006578448E+03  0.73071451808E+02  0.64433977185E+03  0.67832786111E+03  0.17205332685E+03 0.  0.
         24    2    5    5    0    0  0.59306823493E+02 -0.26118094556E+02  0.29397689953E+03  0.31189083882E+03  0.81572199337E+02 0.  0.
          5    1    5    5  501    0  0.40758960991E+02  0.99189546364E+02  0.35036287232E+03  0.36643702229E+03  0.47000000000E+01 0. -1.
        -13    1    6    6    0    0  0.64956502602E+02  0.91168696415E+01  0.15299943580E+03  0.16646708953E+03  0.00000000000E+00 0.  1.
         14    1    6    6    0    0 -0.56496791098E+01 -0.35234964198E+02  0.14097746373E+03  0.14542374929E+03  0.00000000000E+00 0. -1.
         -5    1    3    3    0  503 -0.78312667008E+02 -0.99834365220E+02  0.10351406621E+03  0.16382010315E+03  0.47000000000E+01 0.  1.
         11    1    4    4    0    0  0.27243227427E+02  0.24631653893E+02  0.38426400280E+02  0.53155432955E+02  0.00000000000E+00 0. -1.
        -12    1    4    4    0    0 -0.48996344903E+02  0.21312595187E+01  0.36189859912E+02  0.60949897797E+02  0.00000000000E+00 0.  1.
</event>
<event>
12    1  0.8133506E-002  0.1984167E+03  0.7818608E-02  0.1151746E+00
         21   -1    0    0  501  502  0.00000000000E+00  0.00000000000E+00  0.88897965203E+02  0.88897965203E+02  0.00000000000E+00 0.  1.
         21   -1    0    0  502  503 -0.00000000000E+00 -0.00000000000E+00 -0.43683395623E+03  0.43683395623E+03  0.00000000000E+00 0.  1.
         -6    2    1    2    0  503  0.37355608007E+01  0.98149409078E+02 -0.18694068831E+03  0.27260965719E+03  0.17240053170E+03 0.  0.
        -24    2    3    3    0    0 -0.46053931649E+02  0.62118561132E+01 -0.73999369720E+02  0.11863128647E+03  0.80236672627E+02 0.  0.
          6    2    1    2  501    0 -0.37355608007E+01 -0.98149409078E+02 -0.16099530271E+03  0.25312226424E+03  0.16883166837E+03 0.  0.
         24    2    5    5    0    0 -0.54115392091E+02 -0.98937661352E+02 -0.95093428643E+02  0.17003257927E+03  0.84564657797E+02 0.  0.
          5    1    5    5  501    0  0.50379831290E+02  0.78825227473E+00 -0.65901874069E+02  0.83089684969E+02  0.47000000000E+01 0. -1.
        -11    1    6    6    0    0 -0.65889592364E+01 -0.21300925764E+02  0.15230845360E+02  0.27002267916E+02  0.00000000000E+00 0.  1.
         12    1    6    6    0    0 -0.47526432854E+02 -0.77636735589E+02 -0.11032427400E+03  0.14303031136E+03  0.00000000000E+00 0. -1.
         -5    1    3    3    0  503  0.49789492449E+02  0.91937552964E+02 -0.11294131859E+03  0.15397837072E+03  0.47000000000E+01 0.  1.
         13    1    4    4    0    0 -0.10356940951E+02 -0.27542354001E+02  0.45505164777E+00  0.29428804967E+02  0.00000000000E+00 0. -1.
        -14    1    4    4    0    0 -0.35696990698E+02  0.33754210114E+02 -0.74454421368E+02  0.89202481504E+02  0.00000000000E+00 0.  1.
</event>
<event>
12    1  0.8133506E-002  0.2616073E+03  0.7818608E-02  0.1106284E+00
         21   -1    0    0  501  502  0.00000000000E+00  0.00000000000E+00  0.10528243070E+03  0.10528243070E+03  0.00000000000E+00 0.  1.
         21   -1    0    0  502  503 -0.00000000000E+00 -0.00000000000E+00 -0.82815255649E+03  0.82815255649E+03  0.00000000000E+00 0. -1.
         -6    2    1    2    0  503  0.18829143594E+03 -0.57932875467E+02 -0.57853689897E+03  0.63465339862E+03  0.17108509582E+03 0.  0.
        -24    2    3    3    0    0  0.93749902012E+02 -0.79663164730E+02 -0.45028043428E+03  0.47377419599E+03  0.81081781811E+02 0.  0.
          6    2    1    2  501    0 -0.18829143594E+03  0.57932875467E+02 -0.14433322682E+03  0.29878158857E+03  0.17212923748E+03 0.  0.
         24    2    5    5    0    0 -0.18347090946E+03 -0.26520719215E+01 -0.12340012721E+03  0.23432960656E+03  0.77551047765E+02 0.  0.
          5    1    5    5  501    0 -0.48205264768E+01  0.60584947389E+02 -0.20933099611E+02  0.64451982009E+02  0.47000000000E+01 0. -1.
        -11    1    6    6    0    0 -0.12421856237E+03 -0.36772771824E+02 -0.93163171489E+02  0.15956774269E+03  0.00000000000E+00 0.  1.
         12    1    6    6    0    0 -0.59252347093E+02  0.34120699903E+02 -0.30236955721E+02  0.74761863869E+02  0.00000000000E+00 0. -1.
         -5    1    3    3    0  503  0.94541533926E+02  0.21730289262E+02 -0.12825646468E+03  0.16087920264E+03  0.47000000000E+01 0.  1.
         13    1    4    4    0    0  0.76466561969E+02 -0.12378463600E+02 -0.21967548597E+03  0.23293278129E+03  0.00000000000E+00 0. -1.
        -14    1    4    4    0    0  0.17283340043E+02 -0.67284701129E+02 -0.23060494831E+03  0.24084141470E+03  0.00000000000E+00 0.  1.
</event>
<event>
12    1  0.8133506E-002  0.2458637E+03  0.7818608E-02  0.1116661E+00
         21   -1    0    0  501  502  0.00000000000E+00  0.00000000000E+00  0.67433967422E+02  0.67433967422E+02  0.00000000000E+00 0.  1.
         21   -1    0    0  502  503 -0.00000000000E+00 -0.00000000000E+00 -0.88803191574E+03  0.88803191574E+03  0.00000000000E+00 0. -1.
         -6    2    1    2    0  503  0.89874001792E+02 -0.15039944075E+03 -0.37000205197E+03  0.44424145560E+03  0.17248659203E+03 0.  0.
        -24    2    3    3    0    0  0.10624514981E+03 -0.14627525374E+03 -0.37664574790E+03  0.42549973472E+03  0.80644423975E+02 0.  0.
          6    2    1    2  501    0 -0.89874001792E+02  0.15039944075E+03 -0.45059589634E+03  0.51122442756E+03  0.16618190503E+03 0.  0.
         24    2    5    5    0    0  0.56605727139E+01  0.11164434593E+03 -0.26509706830E+03  0.29894932892E+03  0.81226495526E+02 0.  0.
          5    1    5    5  501    0 -0.95534574506E+02  0.38755094822E+02 -0.18549882804E+03  0.21227509864E+03  0.47000000000E+01 0. -1.
        -13    1    6    6    0    0 -0.33593418537E+02  0.44930006357E+02 -0.74708725365E+02  0.93427067202E+02  0.00000000000E+00 0.  1.
         14    1    6    6    0    0  0.39253991251E+02  0.66714339572E+02 -0.19038834294E+03  0.20552226172E+03  0.00000000000E+00 0. -1.
         -5    1    3    3    0  503 -0.16371148014E+02 -0.41241870097E+01  0.66436959319E+01  0.18741720877E+02  0.47000000000E+01 0.  1.
         13    1    4    4    0    0  0.85774611941E+01 -0.32551572792E+02 -0.15023314801E+03  0.15395835961E+03  0.00000000000E+00 0. -1.
        -14    1    4    4    0    0  0.97667688612E+02 -0.11372368095E+03 -0.22641259989E+03  0.27154137511E+03  0.00000000000E+00 0.  1.
</event>
<event>
12    1  0.8133506E-002  0.2006848E+03  0.7818608E-02  0.1149387E+00
         21   -1    0    0  501  502  0.00000000000E+00  0.00000000000E+00  0.56672231816E+02  0.56672231816E+02  0.00000000000E+00 0.  1.
         21   -1    0    0  502  503 -0.00000000000E+00 -0.00000000000E+00 -0.84321561961E+03  0.84321561961E+03  0.00000000000E+00 0.  1.
         -6    2    1    2    0  503 -0.91756183500E+02 -0.43335010702E+02 -0.57331146623E+03  0.60707010461E+03  0.17190390988E+03 0.  0.
        -24    2    3    3    0    0 -0.88328541862E+02 -0.42660528635E+02 -0.58247562226E+03  0.59619465478E+03  0.80921961532E+02 0.  0.
          6    2    1    2  501    0  0.91756183500E+02  0.43335010702E+02 -0.21323192156E+03  0.29281774682E+03  0.17313942392E+03 0.  0.
         24    2    5    5    0    0  0.73780479981E+02  0.42846758853E+02 -0.46887604599E+02  0.12543827946E+03  0.79100635388E+02 0.  0.
          5    1    5    5  501    0  0.17975703519E+02  0.48825184848E+00 -0.16634431696E+03  0.16737946736E+03  0.47000000000E+01 0. -1.
        -13    1    6    6    0    0 -0.19063306080E+01  0.26391051860E+02 -0.39619881801E+02  0.47643013638E+02  0.00000000000E+00 0.  1.
         14    1    6    6    0    0  0.75686810589E+02  0.16455706994E+02 -0.72677227989E+01  0.77795265823E+02  0.00000000000E+00 0. -1.
         -5    1    3    3    0  503 -0.34276416379E+01 -0.67448206721E+00  0.91641560245E+01  0.10875449825E+02  0.47000000000E+01 0.  1.
         11    1    4    4    0    0 -0.80811065060E+02  0.45732141389E+00 -0.31718801982E+03  0.32732075599E+03  0.00000000000E+00 0. -1.
        -12    1    4    4    0    0 -0.75174768016E+01 -0.43117850049E+02 -0.26528760243E+03  0.26887389880E+03  0.00000000000E+00 0.  1.
</event>
<event>
12    1  0.8133506E-002  0.1784746E+03  0.7818608E-02  0.1169518E+00
         21   -1    0    0  501  502  0.00000000000E+00  0.00000000000E+00  0.11545743583E+03  0.11545743583E+03  0.00000000000E+00 0.  1.
         21   -1    0    0  502  503 -0.00000000000E+00 -0.00000000000E+00 -0.42788550061E+03  0.42788550061E+03  0.00000000000E+00 0.  1.
         -6    2    1    2    0  503 -0.40970396395E+02  0.25229995146E+02 -0.31863870094E+03  0.36476032813E+03  0.17089280032E+03 0.  0.
        -24    2    3    3    0    0 -0.86800465080E+02  0.27778136470E+02 -0.17255427433E+03  0.21156229316E+03  0.81717077121E+02 0.  0.
          6    2    1    2  501    0  0.40970396395E+02 -0.25229995146E+02  0.62106361596E+01  0.17858260831E+03  0.17186637238E+03 0.  0.
         24    2    5    5    0    0 -0.24226893877E+02 -0.62230160996E+02  0.95660780945E+01  0.10339585468E+03  0.78355967162E+02 0.  0.
          5    1    5    5  501    0  0.65197290272E+02  0.37000165850E+02 -0.33554419349E+01  0.75186753636E+02  0.47000000000E+01 0. -1.
        -13    1    6    6    0    0 -0.29624795350E+02 -0.62957892116E+02  0.34648191802E+02  0.77729157171E+02  0.00000000000E+00 0.  1.
         14    1    6    6    0    0  0.53979014727E+01  0.72773112031E+00 -0.25082113708E+02  0.25666697508E+02  0.00000000000E+00 0. -1.
         -5    1    3    3    0  503  0.45830068685E+02 -0.25481413239E+01 -0.14608442661E+03  0.15319803497E+03  0.47000000000E+01 0.  1.
         13    1    4    4    0    0 -0.27770593580E+02  0.20990833596E+02 -0.67859105199E+01  0.35466456610E+02  0.00000000000E+00 0. -1.
        -14    1    4    4    0    0 -0.59029871500E+02  0.67873028737E+01 -0.16576836381E+03  0.17609583655E+03  0.00000000000E+00 0.  1.
</event>
<event>
12    1  0.8133506E-002  0.2312187E+03  0.7818608E-02  0.1125965E+00
         21   -1    0    0  501  502  0.00000000000E+00  0.00000000000E+00  0.21722131439E+03  0.21722131439E+03  0.00000000000E+00 0.  1.
         21   -1    0    0  502  503 -0.00000000000E+00 -0.00000000000E+00 -0.25355940677E+03  0.25355940677E+03  0.00000000000E+00 0. -1.
         -6    2    1    2    0  503 -0.11747582891E+03 -0.10154815700E+03 -0.61398048901E+02  0.23923172472E+03  0.17131695519E+03 0.  0.
        -24    2    3    3    0    0 -0.20476206360E+02 -0.65787226840E+02  0.16331461051E+02  0.10980322084E+03  0.83921370602E+02 0.  0.
          6    2    1    2  501    0  0.11747582891E+03  0.10154815700E+03  0.25059956521E+02  0.23154899644E+03  0.16992450607E+03 0.  0.
         24    2    5    5    0    0  0.10562061200E+03  0.13647969570E+03  0.28909712595E+02  0.19416358237E+03  0.84150485541E+02 0.  0.
          5    1    5    5  501    0  0.11855216912E+02 -0.34931538700E+02 -0.38497560733E+01  0.37385414078E+02  0.47000000000E+01 0. -1.
        -11    1    6    6    0    0  0.88758730986E+02  0.86523155817E+02 -0.15900381640E+02  0.12496875992E+03  0.00000000000E+00 0.  1.
         12    1    6    6    0    0  0.16861881017E+02  0.49956539884E+02  0.44810094235E+02  0.69194822450E+02  0.00000000000E+00 0. -1.
         -5    1    3    3    0  503 -0.96999622554E+02 -0.35760930161E+02 -0.77729509951E+02  0.12942850389E+03  0.47000000000E+01 0.  1.
         11    1    4    4    0    0  0.24452921711E+02 -0.79147645284E+01 -0.15398717655E+02  0.29961798730E+02  0.00000000000E+00 0. -1.
        -12    1    4    4    0    0 -0.44929128071E+02 -0.57872462312E+02  0.31730178705E+02  0.79841422106E+02  0.00000000000E+00 0.  1.
</event>
<event>
12    1  0.8133506E-002  0.2688049E+03  0.7818608E-02  0.1102018E+00
         21   -1    0    0  503  502  0.00000000000E+00  0.00000000000E+00  0.48341123531E+03  0.48341123531E+03  0.00000000000E+00 0. -1.
         21   -1    0    0  501  503 -0.00000000000E+00 -0.00000000000E+00 -0.15285637332E+03  0.15285637332E+03  0.00000000000E+00 0.  1.
          6    2    1    2  501    0  0.18970426932E+03  0.80727133971E+02  0.21389983914E+03  0.34324125041E+03  0.17192101339E+03 0.  0.
         24    2    3    3    0    0  0.12007071496E+03  0.11956007724E+03  0.12780116155E+03  0.22580232306E+03  0.77084132895E+02 0.  0.
         -6    2    1    2    0  502 -0.18970426932E+03 -0.80727133971E+02  0.11665502286E+03  0.29302635822E+03  0.17248615102E+03 0.  0.
        -24    2    5    5    0    0 -0.63776687538E+02 -0.34129904198E+02  0.10386613602E+03  0.15806449952E+03  0.94677851491E+02 0.  0.
          5    1    3    3  501    0  0.69633554368E+02 -0.38832943270E+02  0.86098677583E+02  0.11743892736E+03  0.47000000000E+01 0. -1.
        -13    1    4    4    0    0  0.55161050449E+02  0.57567433635E+02  0.14138830514E+02  0.80973189577E+02  0.00000000000E+00 0.  1.
         14    1    4    4    0    0  0.64909664507E+02  0.61992643606E+02  0.11366233104E+03  0.14482913348E+03  0.00000000000E+00 0. -1.
         -5    1    5    5    0  502 -0.12592758179E+03 -0.46597229773E+02  0.12788886841E+02  0.13496185870E+03  0.47000000000E+01 0.  1.
         13    1    6    6    0    0 -0.18720401627E+02  0.28906125821E+02  0.59583419899E+02  0.68820065925E+02  0.00000000000E+00 0. -1.
        -14    1    6    6    0    0 -0.45056285911E+02 -0.63036030019E+02  0.44282716118E+02  0.89244433593E+02  0.00000000000E+00 0.  1.
</event>
<event>
12    1  0.8133506E-002  0.2146291E+03  0.7818608E-02  0.1138039E+00
         21   -1    0    0  503  502  0.00000000000E+00  0.00000000000E+00  0.60966324670E+02  0.60966324670E+02  0.00000000000E+00 0.  1.
         21   -1    0    0  501  503 -0.00000000000E+00 -0.00000000000E+00 -0.12257243566E+04  0.12257243566E+04  0.00000000000E+00 0.  1.
          6    2    1    2  501    0  0.14527707711E+02  0.12771284085E+03 -0.98187234307E+03  0.10050566906E+04  0.17188376639E+03 0.  0.
         24    2    3    3    0    0  0.71664981348E+02  0.99798367093E+02 -0.75184029835E+03  0.76635034904E+03  0.83267278261E+02 0.  0.
         -6    2    1    2    0  502 -0.14527707711E+02 -0.12771284085E+03 -0.18288568882E+03  0.28163399067E+03  0.17131522266E+03 0.  0.
        -24    2    5    5    0    0 -0.86227465312E+01 -0.15735128461E+03 -0.17766644408E+03  0.25060760785E+03  0.80031426517E+02 0.  0.
          5    1    3    3  501    0 -0.57137273637E+02  0.27914473755E+02 -0.23003204473E+03  0.23870634153E+03  0.47000000000E+01 0. -1.
        -13    1    4    4    0    0  0.10747372146E+02  0.48230343111E+02 -0.49335374677E+03  0.49582213692E+03  0.00000000000E+00 0.  1.
         14    1    4    4    0    0  0.60917609202E+02  0.51568023982E+02 -0.25848655157E+03  0.27052821212E+03  0.00000000000E+00 0. -1.
         -5    1    5    5    0  502 -0.59049611802E+01  0.29638443766E+02 -0.52192447393E+01  0.31026382822E+02  0.47000000000E+01 0.  1.
         13    1    6    6    0    0  0.25153900415E+02 -0.69062898326E+02 -0.40199892048E+02  0.83776094155E+02  0.00000000000E+00 0. -1.
        -14    1    6    6    0    0 -0.33776646946E+02 -0.88288386288E+02 -0.13746655204E+03  0.16683151369E+03  0.00000000000E+00 0.  1.
</event>
<event>
12    1  0.8133506E-002  0.1980302E+03  0.7818608E-02  0.1151584E+00
         21   -1    0    0  501  502  0.00000000000E+00  0.00000000000E+00  0.49163232014E+03  0.49163232014E+03  0.00000000000E+00 0. -1.
         21   -1    0    0  502  503 -0.00000000000E+00 -0.00000000000E+00 -0.85845873607E+02  0.85845873607E+02  0.00000000000E+00 0.  1.
         -6    2    1    2    0  503  0.48450462290E+01  0.96648316165E+02  0.12441717557E+03  0.23387084896E+03  0.17277606583E+03 0.  0.
        -24    2    3    3    0    0 -0.60913731718E+02  0.59948127847E+02  0.10178245887E+03  0.15509559206E+03  0.79941935160E+02 0.  0.
          6    2    1    2  501    0 -0.48450462290E+01 -0.96648316165E+02  0.28136927096E+03  0.34360734479E+03  0.17185159080E+03 0.  0.
         24    2    5    5    0    0  0.60086917540E+01 -0.10092636517E+03  0.10424594403E+03  0.16603801108E+03  0.80493283651E+02 0.  0.
          5    1    5    5  501    0 -0.10853737983E+02  0.42780490060E+01  0.17712332693E+03  0.17756933371E+03  0.47000000000E+01 0. -1.
        -11    1    6    6    0    0  0.11320003779E+02 -0.26726689897E+02 -0.91377288149E+01  0.30429533784E+02  0.00000000000E+00 0.  1.
         12    1    6    6    0    0 -0.53113120248E+01 -0.74199675274E+02  0.11338367285E+03  0.13560847730E+03  0.00000000000E+00 0. -1.
         -5    1    3    3    0  503  0.65758777947E+02  0.36700188318E+02  0.22634716696E+02  0.78775256899E+02  0.47000000000E+01 0.  1.
         13    1    4    4    0    0 -0.16003579268E+02  0.16600534526E+00  0.73389701706E+02  0.75114515399E+02  0.00000000000E+00 0. -1.
        -14    1    4    4    0    0 -0.44910152450E+02  0.59782122501E+02  0.28392757169E+02  0.79981076659E+02  0.00000000000E+00 0.  1.
</event>
<event>
12    1  0.8133506E-002  0.2255740E+03  0.7818608E-02  0.1130799E+00
         21   -1    0    0  501  502  0.00000000000E+00  0.00000000000E+00  0.11521510443E+03  0.11521510443E+03  0.00000000000E+00 0. -1.
         21   -1    0    0  502  503 -0.00000000000E+00 -0.00000000000E+00 -0.43759605441E+03  0.43759605441E+03  0.00000000000E+00 0.  1.
         -6    2    1    2    0  503 -0.95058135387E+02  0.10734022759E+03 -0.12907979136E+03  0.25989467114E+03  0.17414268285E+03 0.  0.
        -24    2    3    3    0    0 -0.13361650759E+03  0.76764602012E+02 -0.10375764865E+03  0.20435263429E+03  0.85136210064E+02 0.  0.
          6    2    1    2  501    0  0.95058135387E+02 -0.10734022759E+03 -0.19330115862E+03  0.29291648769E+03  0.16696334110E+03 0.  0.
         24    2    5    5    0    0  0.28289847696E+02 -0.80816482509E+02 -0.18231450769E+03  0.22008579503E+03  0.88699256661E+02 0.  0.
          5    1    5    5  501    0  0.66768287690E+02 -0.26523745081E+02 -0.10986650930E+02  0.72830692657E+02  0.47000000000E+01 0. -1.
        -13    1    6    6    0    0  0.55328334605E+02 -0.31588714597E+02 -0.12223546603E+03  0.13784259376E+03  0.00000000000E+00 0.  1.
         14    1    6    6    0    0 -0.27038486908E+02 -0.49227767912E+02 -0.60079041662E+02  0.82243201269E+02  0.00000000000E+00 0. -1.
         -5    1    3    3    0  503  0.38558372206E+02  0.30575625577E+02 -0.25322142707E+02  0.55542036854E+02  0.47000000000E+01 0.  1.
         11    1    4    4    0    0 -0.29652830196E+02  0.37562199766E+02  0.59303052060E+01  0.48222170313E+02  0.00000000000E+00 0. -1.
        -12    1    4    4    0    0 -0.10396367740E+03  0.39202402246E+02 -0.10968795386E+03  0.15613046398E+03  0.00000000000E+00 0.  1.
</event>
<event>
12    1  0.8133506E-002  0.2174131E+03  0.7818608E-02  0.1136206E+00
         21   -1    0    0  503  502  0.00000000000E+00  0.00000000000E+00  0.41722242061E+02  0.41722242061E+02  0.00000000000E+00 0.  1.
         21   -1    0    0  501  503 -0.00000000000E+00 -0.00000000000E+00 -0.11422199433E+04  0.11422199433E+04  0.00000000000E+00 0.  1.
          6    2    1    2  501    0  0.18925663210E+02  0.13049483170E+03 -0.62540828759E+03  0.66146883055E+03  0.17034789632E+03 0.  0.
         24    2    3    3    0    0 -0.48651600094E+02  0.40328195926E+02 -0.34883419377E+03  0.36278500425E+03  0.77034557110E+02 0.  0.
         -6    2    1    2    0  502 -0.18925663210E+02 -0.13049483170E+03 -0.47508941368E+03  0.52247335484E+03  0.17286229691E+03 0.  0.
        -24    2    5    5    0    0  0.47083543605E+02 -0.11293505978E+03 -0.35770489341E+03  0.38658083637E+03  0.80751250627E+02 0.  0.
          5    1    3    3  501    0  0.67577263304E+02  0.90166635775E+02 -0.27657409382E+03  0.29868382630E+03  0.47000000000E+01 0. -1.
        -11    1    4    4    0    0 -0.20877794234E+02  0.39762599865E+02 -0.74081295368E+02  0.86631316298E+02  0.00000000000E+00 0.  1.
         12    1    4    4    0    0 -0.27773805860E+02  0.56559606076E+00 -0.27475289840E+03  0.27615368795E+03  0.00000000000E+00 0. -1.
         -5    1    5    5    0  502 -0.66009206815E+02 -0.17559771922E+02 -0.11738452027E+03  0.13589251846E+03  0.47000000000E+01 0.  1.
         11    1    6    6    0    0  0.24001806385E+02  0.54492253563E+01 -0.42868352485E+02  0.49431532563E+02  0.00000000000E+00 0. -1.
        -12    1    6    6    0    0  0.23081737221E+02 -0.11838428514E+03 -0.31483654092E+03  0.33714930381E+03  0.00000000000E+00 0.  1.
</event>
<event>
12    1  0.8133506E-002  0.1815368E+03  0.7818608E-02  0.1166386E+00
         21   -1    0    0  501  502  0.00000000000E+00  0.00000000000E+00  0.87367659926E+02  0.87367659926E+02  0.00000000000E+00 0. -1.
         21   -1    0    0  502  503 -0.00000000000E+00 -0.00000000000E+00 -0.41648194038E+03  0.41648194038E+03  0.00000000000E+00 0. -1.
         -6    2    1    2    0  503  0.27322347440E+01 -0.57421509849E+02 -0.86775029108E+02  0.20121009206E+03  0.17219436858E+03 0.  0.
        -24    2    3    3    0    0  0.41517443034E+02 -0.87435926973E+02 -0.35413248941E+02  0.13003931098E+03  0.79293031204E+02 0.  0.
          6    2    1    2  501    0 -0.27322347440E+01  0.57421509849E+02 -0.24233925135E+03  0.30263950825E+03  0.17192342572E+03 0.  0.
         24    2    5    5    0    0 -0.67171820530E+02  0.19062516907E+02 -0.14644782887E+03  0.18081534209E+03  0.79823482325E+02 0.  0.
          5    1    5    5  501    0  0.64439585786E+02  0.38358992941E+02 -0.95891422482E+02  0.12182416616E+03  0.47000000000E+01 0. -1.
        -11    1    6    6    0    0  0.81272019639E+01 -0.18429343421E+02 -0.16591317872E+02  0.26095285770E+02  0.00000000000E+00 0.  1.
         12    1    6    6    0    0 -0.75299022494E+02  0.37491860328E+02 -0.12985651099E+03  0.15472005632E+03  0.00000000000E+00 0. -1.
         -5    1    3    3    0  503 -0.38785208290E+02  0.30014417124E+02 -0.51361780167E+02  0.71170781079E+02  0.47000000000E+01 0.  1.
         11    1    4    4    0    0 -0.86782022288E+01 -0.24009417487E+02  0.19627628072E+02  0.32202594704E+02  0.00000000000E+00 0. -1.
        -12    1    4    4    0    0  0.50195645263E+02 -0.63426509486E+02 -0.55040877013E+02  0.97836716274E+02  0.00000000000E+00 0.  1.
</event>
<event>
12    1  0.8133506E-002  0.2374023E+03  0.7818608E-02  0.1121796E+00
         21   -1    0    0  503  502  0.00000000000E+00  0.00000000000E+00  0.13513315513E+03  0.13513315513E+03  0.00000000000E+00 0.  1.
         21   -1    0    0  501  503 -0.00000000000E+00 -0.00000000000E+00 -0.53927902643E+03  0.53927902643E+03  0.00000000000E+00 0. -1.
          6    2    1    2  501    0  0.15445914126E+03  0.47455128452E+02 -0.36486385242E+03  0.43529929063E+03  0.17392592125E+03 0.  0.
         24    2    3    3    0    0  0.12885047425E+02  0.47465086033E+02 -0.15464831377E+03  0.18181184156E+03  0.81978570008E+02 0.  0.
         -6    2    1    2    0  502 -0.15445914126E+03 -0.47455128452E+02 -0.39282018880E+02  0.23911289092E+03  0.17182049372E+03 0.  0.
        -24    2    5    5    0    0 -0.62842164617E+02 -0.51114362972E+02  0.36888691162E+02  0.11981860156E+03  0.80211632496E+02 0.  0.
          5    1    3    3  501    0  0.14157409384E+03 -0.99575811063E-02 -0.21021553865E+03  0.25348744907E+03  0.47000000000E+01 0. -1.
        -11    1    4    4    0    0  0.14555782647E+02  0.64411164504E+02 -0.73123862713E+02  0.98528007283E+02  0.00000000000E+00 0.  1.
         12    1    4    4    0    0 -0.16707352212E+01 -0.16946078471E+02 -0.81524451060E+02  0.83283834280E+02  0.00000000000E+00 0. -1.
         -5    1    5    5    0  502 -0.91616976646E+02  0.36592345201E+01 -0.76170710042E+02  0.11929428937E+03  0.47000000000E+01 0.  1.
         11    1    6    6    0    0  0.41735352288E+01 -0.44620402862E+02  0.43120793060E+01  0.45022136509E+02  0.00000000000E+00 0. -1.
        -12    1    6    6    0    0 -0.67015699846E+02 -0.64939601099E+01  0.32576611856E+02  0.74796465049E+02  0.00000000000E+00 0.  1.
</event>
<event>
12    1  0.8133506E-002  0.1929850E+03  0.7818608E-02  0.1156067E+00
         21   -1    0    0  503  502  0.00000000000E+00  0.00000000000E+00  0.13987111887E+03  0.13987111887E+03  0.00000000000E+00 0.  1.
         21   -1    0    0  501  503 -0.00000000000E+00 -0.00000000000E+00 -0.26940788543E+03  0.26940788543E+03  0.00000000000E+00 0. -1.
          6    2    1    2  501    0 -0.44674536885E+02  0.76091259840E+02 -0.37598908206E+02  0.19661357218E+03  0.17163194574E+03 0.  0.
         24    2    3    3    0    0 -0.94449186312E+01  0.20002885374E+02 -0.81946241699E+02  0.11676491696E+03  0.80184396198E+02 0.  0.
         -6    2    1    2    0  502  0.44674536885E+02 -0.76091259840E+02 -0.91937858352E+02  0.21266543212E+03  0.17025957285E+03 0.  0.
        -24    2    5    5    0    0  0.20425702970E+02  0.16621740243E+02 -0.77651958342E+01  0.85029882812E+02  0.80475406890E+02 0.  0.
          5    1    3    3  501    0 -0.35229618254E+02  0.56088374466E+02  0.44347333493E+02  0.79848655220E+02  0.47000000000E+01 0. -1.
        -11    1    4    4    0    0 -0.31703533225E+02 -0.14177449443E+02 -0.13853897916E+02  0.37390434327E+02  0.00000000000E+00 0.  1.
         12    1    4    4    0    0  0.22258614594E+02  0.34180334818E+02 -0.68092343783E+02  0.79374482636E+02  0.00000000000E+00 0. -1.
         -5    1    5    5    0  502  0.24248833915E+02 -0.92713000083E+02 -0.84172662518E+02  0.12763554930E+03  0.47000000000E+01 0.  1.
         13    1    6    6    0    0  0.38771252681E+02  0.10743856828E+02 -0.33866904689E+02  0.52589045696E+02  0.00000000000E+00 0. -1.
        -14    1    6    6    0    0 -0.18345549711E+02  0.58778834154E+01  0.26101708855E+02  0.32440837116E+02  0.00000000000E+00 0.  1.
</event>
<event>
12    1  0.8133506E-002  0.1865011E+03  0.7818608E-02  0.1162037E+00
         21   -1    0    0  501  502  0.00000000000E+00  0.00000000000E+00  0.49956350127E+03  0.49956350127E+03  0.00000000000E+00 0. -1.
         21   -1    0    0  502  503 -0.00000000000E+00 -0.00000000000E+00 -0.71459086988E+02  0.71459086988E+02  0.00000000000E+00 0. -1.
         -6    2    1    2    0  503 -0.40647382636E+02 -0.54858186560E+02  0.16214779326E+03  0.24713266522E+03  0.17355407518E+03 0.  0.
        -24    2    3    3    0    0 -0.67587353194E+02 -0.91990962195E+02  0.10088409426E+03  0.17045192542E+03  0.76458295615E+02 0.  0.
          6    2    1    2  501    0  0.40647382636E+02  0.54858186560E+02  0.26595662102E+03  0.32388992304E+03  0.17178512053E+03 0.  0.
         24    2    5    5    0    0  0.87392755724E+02  0.12858791415E+02  0.19520793843E+03  0.22914529160E+03  0.81231663583E+02 0.  0.
          5    1    5    5  501    0 -0.46745373088E+02  0.41999395145E+02  0.70748682589E+02  0.94744631435E+02  0.47000000000E+01 0. -1.
        -13    1    6    6    0    0  0.16971878895E+02 -0.14561439369E+02  0.12164057953E+03  0.12367906362E+03  0.00000000000E+00 0.  1.
         14    1    6    6    0    0  0.70420876829E+02  0.27420230783E+02  0.73567358902E+02  0.10546622798E+03  0.00000000000E+00 0. -1.
         -5    1    3    3    0  503  0.26939970558E+02  0.37132775635E+02  0.61263699002E+02  0.76680739795E+02  0.47000000000E+01 0.  1.
         13    1    4    4    0    0 -0.23366906260E+02 -0.81621010100E+02  0.90041322127E+02  0.12375557074E+03  0.00000000000E+00 0. -1.
        -14    1    4    4    0    0 -0.44220446934E+02 -0.10369952095E+02  0.10842772134E+02  0.46696354687E+02  0.00000000000E+00 0.  1.
</event>
<event>
12    1  0.8133506E-002  0.1980381E+03  0.7818608E-02  0.1151875E+00
         21   -1    0    0  503  502  0.00000000000E+00  0.00000000000E+00  0.31705108585E+03  0.31705108585E+03  0.00000000000E+00 0.  1.
         21   -1    0    0  501  503 -0.00000000000E+00 -0.00000000000E+00 -0.14616322333E+03  0.14616322333E+03  0.00000000000E+00 0.  1.
          6    2    1    2  501    0  0.37152220069E+02  0.90422226724E+02 -0.76697270066E+01  0.19818658375E+03  0.17222842600E+03 0.  0.
         24    2    3    3    0    0  0.83800019249E+02  0.31518266636E+02 -0.18082381142E+02  0.12218522160E+03  0.81156709587E+02 0.  0.
         -6    2    1    2    0  502 -0.37152220069E+02 -0.90422226724E+02  0.17855758952E+03  0.26502772543E+03  0.16970685293E+03 0.  0.
        -24    2    5    5    0    0 -0.11283188856E+02 -0.43916754907E+02  0.18866018842E+03  0.21065752965E+03  0.82023998881E+02 0.  0.
          5    1    3    3  501    0 -0.46647799180E+02  0.58903960088E+02  0.10412654135E+02  0.76001362149E+02  0.47000000000E+01 0. -1.
        -13    1    4    4    0    0  0.51087653507E+02  0.52146461672E+02  0.10962189906E+02  0.73819857852E+02  0.00000000000E+00 0.  1.
         14    1    4    4    0    0  0.32712365742E+02 -0.20628195036E+02 -0.29044571047E+02  0.48365363745E+02  0.00000000000E+00 0. -1.
         -5    1    5    5    0  502 -0.25869031213E+02 -0.46505471817E+02 -0.10102598899E+02  0.54370195782E+02  0.47000000000E+01 0.  1.
         11    1    6    6    0    0 -0.18861929429E+01  0.51348417940E+01 -0.69086910741E+01  0.88121697910E+01  0.00000000000E+00 0. -1.
        -12    1    6    6    0    0 -0.93969959135E+01 -0.49051596701E+02  0.19556887949E+03  0.20184535986E+03  0.00000000000E+00 0.  1.
</event>
<event>
12    1  0.8133506E-002  0.3150100E+03  0.7818608E-02  0.1077981E+00
         21   -1    0    0  503  502  0.00000000000E+00  0.00000000000E+00  0.28850871489E+03  0.28850871489E+03  0.00000000000E+00 0.  1.
         21   -1    0    0  501  503 -0.00000000000E+00 -0.00000000000E+00 -0.34388190716E+03  0.34388190716E+03  0.00000000000E+00 0.  1.
          6    2    1    2  501    0  0.18064972214E+03  0.19229103129E+03 -0.31534537555E+02  0.31647987379E+03  0.17191544616E+03 0.  0.
         24    2    3    3    0    0  0.80617536389E+02  0.12410613277E+03  0.44748253712E+02  0.17331293341E+03  0.78316328518E+02 0.  0.
         -6    2    1    2    0  502 -0.18064972214E+03 -0.19229103129E+03 -0.23838654708E+02  0.31591074826E+03  0.17210797944E+03 0.  0.
        -24    2    5    5    0    0 -0.19507523605E+03 -0.20552695357E+03 -0.26273895066E+02  0.29563008048E+03  0.80069660663E+02 0.  0.
          5    1    3    3  501    0  0.10003218575E+03  0.68184898514E+02 -0.76282791268E+02  0.14316694037E+03  0.47000000000E+01 0. -1.
        -11    1    4    4    0    0  0.89230821251E+02  0.93457056943E+02  0.54172823617E+02  0.14011086957E+03  0.00000000000E+00 0.  1.
         12    1    4    4    0    0 -0.86132848626E+01  0.30649075832E+02 -0.94245699048E+01  0.33202063842E+02  0.00000000000E+00 0. -1.
         -5    1    5    5    0  502  0.14425513912E+02  0.13235922277E+02  0.24352403578E+01  0.20280667784E+02  0.47000000000E+01 0.  1.
         11    1    6    6    0    0 -0.51026545330E+02 -0.10866222677E+02 -0.79769680963E+01  0.52777032349E+02  0.00000000000E+00 0. -1.
        -12    1    6    6    0    0 -0.14404869072E+03 -0.19466073089E+03 -0.18296926970E+02  0.24285304813E+03  0.00000000000E+00 0.  1.
</event>
<event>
12    1  0.8133506E-002  0.1825598E+03  0.7818608E-02  0.1166418E+00
         21   -1    0    0  501  502  0.00000000000E+00  0.00000000000E+00  0.69790038217E+03  0.69790038217E+03  0.00000000000E+00 0. -1.
         21   -1    0    0  502  503 -0.00000000000E+00 -0.00000000000E+00 -0.62043929277E+02  0.62043929277E+02  0.00000000000E+00 0.  1.
         -6    2    1    2    0  503  0.49705007761E+02 -0.48569053167E+01  0.12541936716E+03  0.21784274091E+03  0.17097153208E+03 0.  0.
        -24    2    3    3    0    0  0.92010839465E+02 -0.46851042138E+00  0.12632654180E+03  0.17504140481E+03  0.78834536555E+02 0.  0.
          6    2    1    2  501    0 -0.49705007761E+02  0.48569053167E+01  0.51043708574E+03  0.54210157054E+03  0.17559589107E+03 0.  0.
         24    2    5    5    0    0 -0.53601338650E+02 -0.61911931353E+02  0.30405908224E+03  0.32510565059E+03  0.80842858741E+02 0.  0.
          5    1    5    5  501    0  0.38963308885E+01  0.66768836670E+02  0.20637800350E+03  0.21699591995E+03  0.47000000000E+01 0. -1.
        -13    1    6    6    0    0  0.11666786134E+02 -0.55016409837E+01  0.49689553970E+01  0.13822896583E+02  0.00000000000E+00 0.  1.
         14    1    6    6    0    0 -0.65268124784E+02 -0.56410290370E+02  0.29909012684E+03  0.31128275401E+03  0.00000000000E+00 0. -1.
         -5    1    3    3    0  503 -0.42305831704E+02 -0.43883948953E+01 -0.90717464016E+00  0.42801336098E+02  0.47000000000E+01 0.  1.
         11    1    4    4    0    0  0.90596698340E+01 -0.31315128259E+02  0.31487377572E+02  0.45322950277E+02  0.00000000000E+00 0. -1.
        -12    1    4    4    0    0  0.82951169631E+02  0.30846617838E+02  0.94839164228E+02  0.12971845453E+03  0.00000000000E+00 0.  1.
</event>
<event>
12    1  0.8133506E-002  0.1822816E+03  0.7818608E-02  0.1165841E+00
         21   -1    0    0  501  502  0.00000000000E+00  0.00000000000E+00  0.39751243354E+02  0.39751243354E+02  0.00000000000E+00 0. -1.
         21   -1    0    0  502  503 -0.00000000000E+00 -0.00000000000E+00 -0.83240633006E+03  0.83240633006E+03  0.00000000000E+00 0. -1.
         -6    2    1    2    0  503  0.12722412329E+02 -0.58160897106E+02 -0.38292053601E+03  0.42409281132E+03  0.17228472360E+03 0.  0.
        -24    2    3    3    0    0 -0.28599197845E+02  0.20923224262E+02 -0.14248843293E+03  0.16759435146E+03  0.80803574739E+02 0.  0.
          6    2    1    2  501    0 -0.12722412329E+02  0.58160897106E+02 -0.40973455070E+03  0.44806476210E+03  0.17127486468E+03 0.  0.
         24    2    5    5    0    0 -0.15033402635E+02 -0.18571885828E+02 -0.31575316285E+03  0.32662402793E+03  0.80076698451E+02 0.  0.
          5    1    5    5  501    0  0.23109903064E+01  0.76732782934E+02 -0.93981387858E+02  0.12144073417E+03  0.47000000000E+01 0. -1.
        -13    1    6    6    0    0  0.15509997969E+02 -0.24540666694E+02 -0.26836337819E+03  0.26992907793E+03  0.00000000000E+00 0.  1.
         14    1    6    6    0    0 -0.30543400604E+02  0.59687808655E+01 -0.47389784654E+02  0.56694949996E+02  0.00000000000E+00 0. -1.
         -5    1    3    3    0  503  0.41321610174E+02 -0.79084121368E+02 -0.24043210308E+03  0.25649845986E+03  0.47000000000E+01 0.  1.
         11    1    4    4    0    0 -0.16019007769E+02 -0.24215505856E+02 -0.17006377352E+02  0.33648420534E+02  0.00000000000E+00 0. -1.
        -12    1    4    4    0    0 -0.12580190076E+02  0.45138730118E+02 -0.12548205558E+03  0.13394593092E+03  0.00000000000E+00 0.  1.
</event>
<event>
12    1  0.8133506E-002  0.2051187E+03  0.7818608E-02  0.1145660E+00
         21   -1    0    0  501  502  0.00000000000E+00  0.00000000000E+00  0.20944846521E+03  0.20944846521E+03  0.00000000000E+00 0.  1.
         21   -1    0    0  502  503 -0.00000000000E+00 -0.00000000000E+00 -0.20007077786E+03  0.20007077786E+03  0.00000000000E+00 0.  1.
         -6    2    1    2    0  503  0.92781740723E+02 -0.62251366909E+02  0.48135763238E+01  0.20517514128E+03  0.17201739444E+03 0.  0.
        -24    2    3    3    0    0 -0.18033884668E+02 -0.20918994712E+02 -0.10524484727E+02  0.85819312184E+02  0.80569002904E+02 0.  0.
          6    2    1    2  501    0 -0.92781740723E+02  0.62251366909E+02  0.45641110303E+01  0.20434410179E+03  0.17103215117E+03 0.  0.
         24    2    5    5    0    0  0.91469853421E+01 -0.22600487949E+01  0.20111681237E+02  0.82627197078E+02  0.79586423550E+02 0.  0.
          5    1    5    5  501    0 -0.10192872606E+03  0.64511415704E+02 -0.15547570207E+02  0.12171690471E+03  0.47000000000E+01 0. -1.
        -11    1    6    6    0    0 -0.25468303895E+02 -0.24459462906E+02 -0.30290048807E+01  0.35441144162E+02  0.00000000000E+00 0.  1.
         12    1    6    6    0    0  0.34615289237E+02  0.22199414112E+02  0.23140686118E+02  0.47186052916E+02  0.00000000000E+00 0. -1.
         -5    1    3    3    0  503  0.11081562539E+03 -0.41332372197E+02  0.15338061050E+02  0.11935582910E+03  0.47000000000E+01 0.  1.
         11    1    4    4    0    0  0.23545870578E+02  0.10791345916E+02 -0.19939146603E+02  0.32686858754E+02  0.00000000000E+00 0. -1.
        -12    1    4    4    0    0 -0.41579755247E+02 -0.31710340629E+02  0.94146618763E+01  0.53132453429E+02  0.00000000000E+00 0.  1.
</event>
<event>
12    1  0.8133506E-002  0.1755248E+03  0.7818608E-02  0.1172379E+00
         21   -1    0    0  503  502  0.00000000000E+00  0.00000000000E+00  0.56895598478E+03  0.56895598478E+03  0.00000000000E+00 0. -1.
         21   -1    0    0  501  503 -0.00000000000E+00 -0.00000000000E+00 -0.66872857702E+02  0.66872857702E+02  0.00000000000E+00 0. -1.
          6    2    1    2  501    0  0.31304884085E+02  0.18743000777E+02  0.11161485018E+03  0.20800676918E+03  0.17169055128E+03 0.  0.
         24    2    3    3    0    0  0.96074417084E+01  0.73124488737E+01  0.14551922249E+03  0.16589937097E+03  0.78746316278E+02 0.  0.
         -6    2    1    2    0  502 -0.31304884085E+02 -0.18743000777E+02  0.39046827691E+03  0.42782207330E+03  0.17098232450E+03 0.  0.
        -24    2    5    5    0    0 -0.69604490330E+02 -0.53607475587E+01  0.36000843479E+03  0.37687272079E+03  0.86910596976E+02 0.  0.
          5    1    3    3  501    0  0.21697442376E+02  0.11430551903E+02 -0.33904372316E+02  0.42107398217E+02  0.47000000000E+01 0. -1.
        -13    1    4    4    0    0  0.90347611133E+01 -0.31439047673E+02  0.10435482543E+03  0.10936164875E+03  0.00000000000E+00 0.  1.
         14    1    4    4    0    0  0.57268059510E+00  0.38751496546E+02  0.41164397058E+02  0.56537722211E+02  0.00000000000E+00 0. -1.
         -5    1    5    5    0  502  0.38299606245E+02 -0.13382253218E+02  0.30459842113E+02  0.50949352511E+02  0.47000000000E+01 0.  1.
         13    1    6    6    0    0 -0.75441161817E+02 -0.18578133368E+02  0.17708399256E+03  0.19337853127E+03  0.00000000000E+00 0. -1.
        -14    1    6    6    0    0  0.58366714875E+01  0.13217385809E+02  0.18292444223E+03  0.18349418952E+03  0.00000000000E+00 0.  1.
</event>
<event>
12    1  0.8133506E-002  0.2047731E+03  0.7818608E-02  0.1145823E+00
         21   -1    0    0  501  502  0.00000000000E+00  0.00000000000E+00  0.72721730801E+03  0.72721730801E+03  0.00000000000E+00 0.  1.
         21   -1    0    0  502  503 -0.00000000000E+00 -0.00000000000E+00 -0.27772129389E+03  0.27772129389E+03  0.00000000000E+00 0.  1.
         -6    2    1    2    0  503  0.67798907505E+02  0.88768677320E+02 -0.22262564524E+03  0.30231526663E+03  0.17133526371E+03 0.  0.
        -24    2    3    3    0    0  0.65783698376E+02  0.36455657299E+02 -0.44628503286E+02  0.11671950786E+03  0.77299613765E+02 0.  0.
          6    2    1    2  501    0 -0.67798907505E+02 -0.88768677320E+02  0.67212165936E+03  0.70262333527E+03  0.17162591980E+03 0.  0.
         24    2    5    5    0    0 -0.71771175812E+02 -0.32472708322E+01  0.25715858514E+03  0.27889449172E+03  0.80560245511E+02 0.  0.
          5    1    5    5  501    0  0.39722683071E+01 -0.85521406488E+02  0.41496307422E+03  0.42372884354E+03  0.47000000000E+01 0. -1.
        -11    1    6    6    0    0 -0.10843541257E+01 -0.19350084913E+02  0.13844101417E+03  0.13979097258E+03  0.00000000000E+00 0.  1.
         12    1    6    6    0    0 -0.70686821686E+02  0.16102814080E+02  0.11871757097E+03  0.13910351915E+03  0.00000000000E+00 0. -1.
         -5    1    3    3    0  503  0.20152091285E+01  0.52313020021E+02 -0.17799714195E+03  0.18559575878E+03  0.47000000000E+01 0.  1.
         11    1    4    4    0    0  0.51945849336E+01 -0.22486765039E+02 -0.12839767769E+02  0.26410186499E+02  0.00000000000E+00 0. -1.
        -12    1    4    4    0    0  0.60589113443E+02  0.58942422338E+02 -0.31788735518E+02  0.90309321360E+02  0.00000000000E+00 0.  1.
</event>
<event>
12    1  0.8133506E-002  0.3008766E+03  0.7818608E-02  0.1084905E+00
         21   -1    0    0  501  502  0.00000000000E+00  0.00000000000E+00  0.97188654965E+02  0.97188654965E+02  0.00000000000E+00 0.  1.
         21   -1    0    0  502  503 -0.00000000000E+00 -0.00000000000E+00 -0.10328370770E+04  0.10328370770E+04  0.00000000000E+00 0. -1.
         -6    2    1    2    0  503  0.15919433200E+03  0.18768749682E+03 -0.64759822057E+03  0.71407994309E+03  0.17308170911E+03 0.  0.
        -24    2    3    3    0    0  0.11857524326E+03  0.20941852892E+03 -0.54050740308E+03  0.59740654715E+03  0.82644547489E+02 0.  0.
          6    2    1    2  501    0 -0.15919433200E+03 -0.18768749682E+03 -0.28805020143E+03  0.41594578884E+03  0.17166405830E+03 0.  0.
         24    2    5    5    0    0 -0.49733100020E+02 -0.44731684032E+02 -0.17325514282E+03  0.20236179788E+03  0.80365713667E+02 0.  0.
          5    1    5    5  501    0 -0.10946123198E+03 -0.14295581279E+03 -0.11479505861E+03  0.21358399096E+03  0.47000000000E+01 0. -1.
        -11    1    6    6    0    0  0.18275308202E+02  0.18810854804E+01 -0.14246838187E+02  0.23248607932E+02  0.00000000000E+00 0.  1.
         12    1    6    6    0    0 -0.68008408222E+02 -0.46612769513E+02 -0.15900830463E+03  0.17911318995E+03  0.00000000000E+00 0. -1.
         -5    1    3    3    0  503  0.40619088745E+02 -0.21731032107E+02 -0.10709081750E+03  0.11667339594E+03  0.47000000000E+01 0.  1.
         11    1    4    4    0    0  0.88182727077E+02  0.82835318680E+02 -0.30842774605E+03  0.33130885577E+03  0.00000000000E+00 0. -1.
        -12    1    4    4    0    0  0.30392516178E+02  0.12658321024E+03 -0.23207965703E+03  0.26609769139E+03  0.00000000000E+00 0.  1.
</event>
<event>
12    1  0.8133506E-002  0.1773170E+03  0.7818608E-02  0.1170826E+00
         21   -1    0    0  501  502  0.00000000000E+00  0.00000000000E+00  0.16919263163E+04  0.16919263163E+04  0.00000000000E+00 0.  1.
         21   -1    0    0  502  503 -0.00000000000E+00 -0.00000000000E+00 -0.27213736960E+02  0.27213736960E+02  0.00000000000E+00 0.  1.
         -6    2    1    2    0  503  0.35111157587E+02  0.62816038675E+00  0.34100326404E+03  0.38360732571E+03  0.17215738811E+03 0.  0.
        -24    2    3    3    0    0 -0.43016124853E+02 -0.77905855682E+01  0.23021928215E+03  0.24770321176E+03  0.80280028793E+02 0.  0.
          6    2    1    2  501    0 -0.35111157587E+02 -0.62816038675E+00  0.13237093153E+04  0.13355327275E+04  0.17380485312E+03 0.  0.
         24    2    5    5    0    0 -0.40997534509E+02 -0.63754444807E+02  0.96053274480E+03  0.96683381437E+03  0.79994022952E+02 0.  0.
          5    1    5    5  501    0  0.58863769213E+01  0.63126284421E+02  0.36317657046E+03  0.36869891314E+03  0.47000000000E+01 0. -1.
        -13    1    6    6    0    0  0.10004928444E+02 -0.44791231734E+02  0.64606313097E+03  0.64769122446E+03  0.00000000000E+00 0.  1.
         14    1    6    6    0    0 -0.51002462952E+02 -0.18963213073E+02  0.31446961383E+03  0.31914258992E+03  0.00000000000E+00 0. -1.
         -5    1    3    3    0  503  0.78127282440E+02  0.84187459549E+01  0.11078398189E+03  0.13590411395E+03  0.47000000000E+01 0.  1.
         11    1    4    4    0    0 -0.58190474061E+02  0.18117501739E+02  0.14243144701E+03  0.15492285899E+03  0.00000000000E+00 0. -1.
        -12    1    4    4    0    0  0.15174349208E+02 -0.25908087307E+02  0.87787835140E+02  0.92780352771E+02  0.00000000000E+00 0.  1.
</event>
<event>
12    1  0.8133506E-002  0.2066034E+03  0.7818608E-02  0.1144543E+00
         21   -1    0    0  501  502  0.00000000000E+00  0.00000000000E+00  0.28858310323E+03  0.28858310323E+03  0.00000000000E+00 0. -1.
         21   -1    0    0  502  503 -0.00000000000E+00 -0.00000000000E+00 -0.19922551420E+03  0.19922551420E+03  0.00000000000E+00 0. -1.
         -6    2    1    2    0  503  0.98256491458E+02 -0.55696707051E+02 -0.80095853441E+02  0.22158592450E+03  0.17299859800E+03 0.  0.
        -24    2    3    3    0    0 -0.34241133920E+01 -0.58140229549E+01 -0.65244803361E+02  0.10726238684E+03  0.84869357539E+02 0.  0.
          6    2    1    2  501    0 -0.98256491458E+02  0.55696707051E+02  0.16945344247E+03  0.26622269292E+03  0.17147475549E+03 0.  0.
         24    2    5    5    0    0 -0.67400005873E+02  0.24956625885E+02  0.18721906350E+03  0.21894920582E+03  0.87875952479E+02 0.  0.
          5    1    5    5  501    0 -0.30856485585E+02  0.30740081166E+02 -0.17765621023E+02  0.47273487105E+02  0.47000000000E+01 0. -1.
        -11    1    6    6    0    0 -0.18459857707E+02 -0.30534724889E+02  0.36470072229E+02  0.51021583070E+02  0.00000000000E+00 0.  1.
         12    1    6    6    0    0 -0.48940148166E+02  0.55491350774E+02  0.15074899127E+03  0.16792762275E+03  0.00000000000E+00 0. -1.
         -5    1    3    3    0  503  0.10168060485E+03 -0.49882684096E+02 -0.14851050080E+02  0.11432353766E+03  0.47000000000E+01 0.  1.
         11    1    4    4    0    0  0.25939396915E+02  0.19249772192E+02 -0.60212817411E+02  0.68330003822E+02  0.00000000000E+00 0. -1.
        -12    1    4    4    0    0 -0.29363510307E+02 -0.25063795147E+02 -0.50319859503E+01  0.38932383016E+02  0.00000000000E+00 0.  1.
</event>
<event>
12    1  0.8133506E-002  0.3531724E+03  0.7818608E-02  0.1061439E+00
         21   -1    0    0  503  502  0.00000000000E+00  0.00000000000E+00  0.13239335461E+04  0.13239335461E+04  0.00000000000E+00 0.  1.
         21   -1    0    0  501  503 -0.00000000000E+00 -0.00000000000E+00 -0.29233643148E+03  0.29233643148E+03  0.00000000000E+00 0.  1.
          6    2    1    2  501    0 -0.30486061144E+03 -0.47500630193E+02 -0.15028481923E+03  0.38274832111E+03  0.16945338047E+03 0.  0.
         24    2    3    3    0    0 -0.58933259452E+02  0.24578314940E+01 -0.26261063466E+02  0.10278387276E+03  0.79973189509E+02 0.  0.
         -6    2    1    2    0  502  0.30486061144E+03  0.47500630193E+02  0.11818819339E+04  0.12335216565E+04  0.17185595467E+03 0.  0.
        -24    2    5    5    0    0  0.26375762075E+03  0.91011967028E+02  0.91246403680E+03  0.95749487240E+03  0.79715441213E+02 0.  0.
          5    1    3    3  501    0 -0.24592735198E+03 -0.49958461687E+02 -0.12402375576E+03  0.27996444835E+03  0.47000000000E+01 0. -1.
        -11    1    4    4    0    0 -0.18530096264E+02 -0.36619539452E+02 -0.72791555191E+00  0.41047350686E+02  0.00000000000E+00 0.  1.
         12    1    4    4    0    0 -0.40403163188E+02  0.39077370946E+02 -0.25533147914E+02  0.61736522076E+02  0.00000000000E+00 0. -1.
         -5    1    5    5    0  502  0.41102990687E+02 -0.43511336836E+02  0.26941789707E+03  0.27602678410E+03  0.47000000000E+01 0.  1.
         11    1    6    6    0    0  0.11614983747E+01  0.85870028416E+01  0.85391736189E+02  0.85830264508E+02  0.00000000000E+00 0. -1.
        -12    1    6    6    0    0  0.26259612237E+03  0.82424964187E+02  0.82707230061E+03  0.87166460789E+03  0.00000000000E+00 0.  1.
</event>
<event>
12    1  0.8133506E-002  0.2843057E+03  0.7818608E-02  0.1093446E+00
         21   -1    0    0  501  502  0.00000000000E+00  0.00000000000E+00  0.33125435271E+02  0.33125435271E+02  0.00000000000E+00 0. -1.
         21   -1    0    0  502  503 -0.00000000000E+00 -0.00000000000E+00 -0.25327041337E+04  0.25327041337E+04  0.00000000000E+00 0. -1.
         -6    2    1    2    0  503  0.15586643883E+03  0.16393364312E+03 -0.99599895266E+03  0.10356067752E+04  0.17116919425E+03 0.  0.
        -24    2    3    3    0    0  0.14355701851E+03  0.18766601088E+03 -0.94936661822E+03  0.98164927598E+03  0.80691858563E+02 0.  0.
          6    2    1    2  501    0 -0.15586643883E+03 -0.16393364312E+03 -0.15035797457E+04  0.15302227937E+04  0.17222415788E+03 0.  0.
         24    2    5    5    0    0 -0.51601697502E+02 -0.13307881808E+02 -0.38133282547E+03  0.39311264238E+03  0.79265319739E+02 0.  0.
          5    1    5    5  501    0 -0.10426474132E+03 -0.15062576132E+03 -0.11222469203E+04  0.11371101513E+04  0.47000000000E+01 0. -1.
        -11    1    6    6    0    0 -0.38514427168E+02  0.30655840429E+02 -0.17898248250E+03  0.18562831329E+03  0.00000000000E+00 0.  1.
         12    1    6    6    0    0 -0.13087270334E+02 -0.43963722237E+02 -0.20235034297E+03  0.20748432909E+03  0.00000000000E+00 0. -1.
         -5    1    3    3    0  503  0.12309420319E+02 -0.23732367756E+02 -0.46632334436E+02  0.53957499228E+02  0.47000000000E+01 0.  1.
         11    1    4    4    0    0  0.12984753195E+03  0.10821168822E+03 -0.64868083597E+03  0.67034094160E+03  0.00000000000E+00 0. -1.
        -12    1    4    4    0    0  0.13709486551E+02  0.79454322655E+02 -0.30068578225E+03  0.31130833438E+03  0.00000000000E+00 0.  1.
</event>
<event>
12    1  0.8133506E-002  0.2531933E+03  0.7818608E-02  0.1111619E+00
         21   -1    0    0  501  502  0.00000000000E+00  0.00000000000E+00  0.16759435522E+03  0.16759435522E+03  0.00000000000E+00 0. -1.
         21   -1    0    0  502  503 -0.00000000000E+00 -0.00000000000E+00 -0.63190769535E+03  0.63190769535E+03  0.00000000000E+00 0. -1.
         -6    2    1    2    0  503 -0.10008651513E+03 -0.15391761039E+03 -0.48537910343E+03  0.54744835756E+03  0.17435277129E+03 0.  0.
        -24    2    3    3    0    0 -0.13672773236E+03 -0.10405808521E+03 -0.38071778092E+03  0.42577406496E+03  0.82552818178E+02 0.  0.
          6    2    1    2  501    0  0.10008651513E+03  0.15391761039E+03  0.21065763291E+02  0.25205369301E+03  0.17140407370E+03 0.  0.
         24    2    5    5    0    0 -0.15328279811E+02  0.68744904080E+02  0.22263311399E+02  0.10853195629E+03  0.79515485930E+02 0.  0.
          5    1    5    5  501    0  0.11541479494E+03  0.85172706307E+02 -0.11975481088E+01  0.14352173672E+03  0.47000000000E+01 0. -1.
        -11    1    6    6    0    0  0.14923464423E+02  0.67825998068E+02 -0.23999356942E+01  0.69489822964E+02  0.00000000000E+00 0.  1.
         12    1    6    6    0    0 -0.30251744234E+02  0.91890601247E+00  0.24663247094E+02  0.39042133326E+02  0.00000000000E+00 0. -1.
         -5    1    3    3    0  503  0.36641217234E+02 -0.49859525176E+02 -0.10466132250E+03  0.12167429260E+03  0.47000000000E+01 0.  1.
         13    1    4    4    0    0 -0.99356574488E+01 -0.51203001199E+02 -0.85345536441E+02  0.10002162372E+03  0.00000000000E+00 0. -1.
        -14    1    4    4    0    0 -0.12679207491E+03 -0.52855084012E+02 -0.29537224448E+03  0.32575244125E+03  0.00000000000E+00 0.  1.
</event>
<event>
12    1  0.8133506E-002  0.1728613E+03  0.7818608E-02  0.1175036E+00
         21   -1    0    0  501  502  0.00000000000E+00  0.00000000000E+00  0.16229027101E+03  0.16229027101E+03  0.00000000000E+00 0. -1.
         21   -1    0    0  502  503 -0.00000000000E+00 -0.00000000000E+00 -0.18462290421E+03  0.18462290421E+03  0.00000000000E+00 0. -1.
         -6    2    1    2    0  503 -0.72077776660E+01 -0.16011971016E+02  0.20955422550E+01  0.17287402348E+03  0.17196715216E+03 0.  0.
        -24    2    3    3    0    0 -0.14330261332E+02  0.56562646659E+02  0.56685822821E+01  0.99712137777E+02  0.80657846537E+02 0.  0.
          6    2    1    2  501    0  0.72077776660E+01  0.16011971016E+02 -0.24428175459E+02  0.17403915174E+03  0.17141923844E+03 0.  0.
         24    2    5    5    0    0 -0.61963594657E+02  0.22937200362E+02 -0.14892118419E+02  0.10371373717E+03  0.78544012275E+02 0.  0.
          5    1    5    5  501    0  0.69171372323E+02 -0.69252293465E+01 -0.95360570401E+01  0.70325414570E+02  0.47000000000E+01 0. -1.
        -13    1    6    6    0    0 -0.85918507133E+01  0.44153678382E+02 -0.31534600911E+01  0.45092255697E+02  0.00000000000E+00 0.  1.
         14    1    6    6    0    0 -0.53371743944E+02 -0.21216478020E+02 -0.11738658327E+02  0.58621481477E+02  0.00000000000E+00 0. -1.
         -5    1    3    3    0  503  0.71224836657E+01 -0.72574617675E+02 -0.35730400271E+01  0.73161885701E+02  0.47000000000E+01 0.  1.
         11    1    4    4    0    0  0.20574023124E+02  0.16858752262E+02  0.31204472488E+02  0.41002768914E+02  0.00000000000E+00 0. -1.
        -12    1    4    4    0    0 -0.34904284456E+02  0.39703894397E+02 -0.25535890206E+02  0.58709368863E+02  0.00000000000E+00 0.  1.
</event>
<event>
12    1  0.8133506E-002  0.2232531E+03  0.7818608E-02  0.1131924E+00
         21   -1    0    0  503  502  0.00000000000E+00  0.00000000000E+00  0.12510527476E+03  0.12510527476E+03  0.00000000000E+00 0. -1.
         21   -1    0    0  501  503 -0.00000000000E+00 -0.00000000000E+00 -0.54541929217E+03  0.54541929217E+03  0.00000000000E+00 0. -1.
          6    2    1    2  501    0 -0.13980544393E+03 -0.20449746763E+00 -0.38591345001E+03  0.44463666839E+03  0.17095897756E+03 0.  0.
         24    2    3    3    0    0 -0.29977074858E+02  0.16150940222E+02 -0.79085376466E+02  0.11830044958E+03  0.81123496675E+02 0.  0.
         -6    2    1    2    0  502  0.13980544393E+03  0.20449746763E+00 -0.34400567401E+02  0.22588789854E+03  0.17405843759E+03 0.  0.
        -24    2    5    5    0    0  0.81182205391E+02  0.42070625247E+02  0.34469892685E+02  0.12611472066E+03  0.79726164363E+02 0.  0.
          5    1    3    3  501    0 -0.10982836908E+03 -0.16355437689E+02 -0.30682807354E+03  0.32633621881E+03  0.47000000000E+01 0. -1.
        -11    1    4    4    0    0  0.37000119500E+01 -0.29811344275E+02 -0.35864227969E+02  0.46783001013E+02  0.00000000000E+00 0.  1.
         12    1    4    4    0    0 -0.33677086808E+02  0.45962284497E+02 -0.43221148496E+02  0.71517448566E+02  0.00000000000E+00 0. -1.
         -5    1    5    5    0  502  0.58623238544E+02 -0.41866127780E+02 -0.68870460086E+02  0.99773177884E+02  0.47000000000E+01 0.  1.
         13    1    6    6    0    0  0.23540309446E+02  0.47457367645E+02 -0.89795306156E+01  0.53730623323E+02  0.00000000000E+00 0. -1.
        -14    1    6    6    0    0  0.57641895945E+02 -0.53867423979E+01  0.43449423301E+02  0.72384097335E+02  0.00000000000E+00 0.  1.
</event>
<event>
12    1  0.8133506E-002  0.2004831E+03  0.7818608E-02  0.1149860E+00
         21   -1    0    0  503  502  0.00000000000E+00  0.00000000000E+00  0.25015664216E+03  0.25015664216E+03  0.00000000000E+00 0. -1.
         21   -1    0    0  501  503 -0.00000000000E+00 -0.00000000000E+00 -0.31422813893E+03  0.31422813893E+03  0.00000000000E+00 0. -1.
          6    2    1    2  501    0 -0.43586768931E+02  0.87411683871E+02 -0.23047641051E+03  0.30383907190E+03  0.17221555363E+03 0.  0.
         24    2    3    3    0    0  0.36394149898E+02  0.32469085123E+02 -0.15539763186E+03  0.18106061476E+03  0.79093277815E+02 0.  0.
         -6    2    1    2    0  502  0.43586768931E+02 -0.87411683871E+02  0.16640491374E+03  0.26054570919E+03  0.17507958863E+03 0.  0.
        -24    2    5    5    0    0 -0.16583323180E+02 -0.88991929275E+02  0.15911102584E+03  0.19973265170E+03  0.79888944965E+02 0.  0.
          5    1    3    3  501    0 -0.79980918829E+02  0.54942598748E+02 -0.75078778647E+02  0.12277845714E+03  0.47000000000E+01 0. -1.
        -13    1    4    4    0    0 -0.22386953561E+02 -0.18539067936E+01 -0.58321991742E+02  0.62498539030E+02  0.00000000000E+00 0.  1.
         14    1    4    4    0    0  0.58781103460E+02  0.34322991916E+02 -0.97075640116E+02  0.11856207573E+03  0.00000000000E+00 0. -1.
         -5    1    5    5    0  502  0.60170092111E+02  0.15802454043E+01  0.72938878983E+01  0.60813057487E+02  0.47000000000E+01 0.  1.
         11    1    6    6    0    0  0.16808447584E+02 -0.49123827678E+02  0.28675900761E+02  0.59312575736E+02  0.00000000000E+00 0. -1.
        -12    1    6    6    0    0 -0.33391770764E+02 -0.39868101597E+02  0.13043512508E+03  0.14042007596E+03  0.00000000000E+00 0.  1.
</event>
<event>
12    1  0.8133506E-002  0.1901818E+03  0.7818608E-02  0.1158442E+00
         21   -1    0    0  503  502  0.00000000000E+00  0.00000000000E+00  0.46498155891E+03  0.46498155891E+03  0.00000000000E+00 0.  1.
         21   -1    0    0  501  503 -0.00000000000E+00 -0.00000000000E+00 -0.15018833107E+03  0.15018833107E+03  0.00000000000E+00 0.  1.
          6    2    1    2  501    0 -0.81248824537E+02  0.95042511018E+01 -0.56412557554E+02  0.19837215619E+03  0.17168993396E+03 0.  0.
         24    2    3    3    0    0 -0.74749047030E+02 -0.45309708981E+02 -0.71554481108E+02  0.14094232791E+03  0.84287046871E+02 0.  0.
         -6    2    1    2    0  502  0.81248824537E+02 -0.95042511018E+01  0.37120578539E+03  0.41679773379E+03  0.17098220231E+03 0.  0.
        -24    2    5    5    0    0  0.53849750989E+02 -0.71662899750E+02  0.25497094733E+03  0.28208680471E+03  0.80792416290E+02 0.  0.
          5    1    3    3  501    0 -0.64997775070E+01  0.54813960082E+02  0.15141923554E+02  0.57429828282E+02  0.47000000000E+01 0. -1.
        -13    1    4    4    0    0 -0.59454128114E+02  0.10170144697E+02 -0.19633229666E+02  0.63432553946E+02  0.00000000000E+00 0.  1.
         14    1    4    4    0    0 -0.15294918916E+02 -0.55479853677E+02 -0.51921251442E+02  0.77509773964E+02  0.00000000000E+00 0. -1.
         -5    1    5    5    0  502  0.27399073548E+02  0.62158648648E+02  0.11623483806E+03  0.13471092908E+03  0.47000000000E+01 0.  1.
         13    1    6    6    0    0  0.78989894793E+01 -0.43817763932E+02  0.20121931156E+03  0.20608639406E+03  0.00000000000E+00 0. -1.
        -14    1    6    6    0    0  0.45950761510E+02 -0.27845135818E+02  0.53751635764E+02  0.76000410653E+02  0.00000000000E+00 0.  1.
</event>
<event>
12    1  0.8133506E-002  0.2035254E+03  0.7818608E-02  0.1147649E+00
         21   -1    0    0  501  502  0.00000000000E+00  0.00000000000E+00  0.38371135790E+03  0.38371135790E+03  0.00000000000E+00 0.  1.
         21   -1    0    0  502  503 -0.00000000000E+00 -0.00000000000E+00 -0.18024131633E+03  0.18024131633E+03  0.00000000000E+00 0.  1.
         -6    2    1    2    0  503 -0.67885258878E+02 -0.70453925848E+02 -0.78870283091E+02  0.21827305178E+03  0.17846691441E+03 0.  0.
        -24    2    3    3    0    0 -0.19615243729E+02 -0.17011077524E+02  0.29485999671E+02  0.88083549852E+02  0.78836241874E+02 0.  0.
          6    2    1    2  501    0  0.67885258878E+02  0.70453925848E+02  0.28234032466E+03  0.34567962245E+03  0.17379924744E+03 0.  0.
         24    2    5    5    0    0  0.95451524726E+02  0.68042562098E+02  0.13570529628E+03  0.19638248505E+03  0.80058535883E+02 0.  0.
          5    1    5    5  501    0 -0.27566265849E+02  0.24113637505E+01  0.14663502838E+03  0.14929713740E+03  0.47000000000E+01 0. -1.
        -11    1    6    6    0    0  0.37191161245E+02  0.62754668264E+02  0.11112381945E+03  0.13292792826E+03  0.00000000000E+00 0.  1.
         12    1    6    6    0    0  0.58260363482E+02  0.52878938340E+01  0.24581476833E+02  0.63454556791E+02  0.00000000000E+00 0. -1.
         -5    1    3    3    0  503 -0.48270015149E+02 -0.53442848324E+02 -0.10835628276E+03  0.13018950193E+03  0.47000000000E+01 0.  1.
         13    1    4    4    0    0  0.10299541140E+02  0.27433804675E+02  0.12735994272E+02  0.31951521666E+02  0.00000000000E+00 0. -1.
        -14    1    4    4    0    0 -0.29914784868E+02 -0.44444882200E+02  0.16750005399E+02  0.56132028186E+02  0.00000000000E+00 0.  1.
</event>
<event>
12    1  0.8133506E-002  0.1810440E+03  0.7818608E-02  0.1166922E+00
         21   -1    0    0  503  502  0.00000000000E+00  0.00000000000E+00  0.98631061202E+03  0.98631061202E+03  0.00000000000E+00 0.  1.
         21   -1    0    0  501  503 -0.00000000000E+00 -0.00000000000E+00 -0.97175007313E+02  0.97175007313E+02  0.00000000000E+00 0.  1.
          6    2    1    2  501    0  0.35124971635E+02 -0.47080042159E+02  0.50043853366E+01  0.18111311043E+03  0.17125017049E+03 0.  0.
         24    2    3    3    0    0  0.81807494379E+02 -0.64154051402E+02  0.93846529143E+01  0.13099269078E+03  0.79137885237E+02 0.  0.
         -6    2    1    2    0  502 -0.35124971635E+02  0.47080042159E+02  0.88413121937E+03  0.90237250891E+03  0.17069808952E+03 0.  0.
        -24    2    5    5    0    0 -0.12819969638E+02  0.66345640114E+02  0.85217174527E+03  0.85864409294E+03  0.80665353855E+02 0.  0.
          5    1    3    3  501    0 -0.46682522744E+02  0.17074009242E+02 -0.43802675777E+01  0.50120419645E+02  0.47000000000E+01 0. -1.
        -13    1    4    4    0    0  0.72818580662E+02 -0.97994547422E+01  0.16889058690E+02  0.75391082406E+02  0.00000000000E+00 0.  1.
         14    1    4    4    0    0  0.89889137168E+01 -0.54354596659E+02 -0.75044057755E+01  0.55601608375E+02  0.00000000000E+00 0. -1.
         -5    1    5    5    0  502 -0.22305001997E+02 -0.19265597955E+02  0.31959474096E+02  0.43728415969E+02  0.47000000000E+01 0.  1.
         11    1    6    6    0    0  0.14598005110E+02  0.17670319158E+02  0.55920920861E+02  0.60435844681E+02  0.00000000000E+00 0. -1.
        -12    1    6    6    0    0 -0.27417974748E+02  0.48675320956E+02  0.79625082441E+03  0.79820824826E+03  0.00000000000E+00 0.  1.
</event>
<event>
12    1  0.8133506E-002  0.3334015E+03  0.7818608E-02  0.1069659E+00
         21   -1    0    0  501  502  0.00000000000E+00  0.00000000000E+00  0.70967186734E+03  0.70967186734E+03  0.00000000000E+00 0. -1.
         21   -1    0    0  502  503 -0.00000000000E+00 -0.00000000000E+00 -0.22605938715E+03  0.22605938715E+03  0.00000000000E+00 0.  1.
         -6    2    1    2    0  503 -0.53761760129E+02 -0.28037966816E+03 -0.17579668534E+02  0.33386463115E+03  0.17220180609E+03 0.  0.
        -24    2    3    3    0    0 -0.23855953664E+02 -0.48537222826E+02  0.12668929441E+02  0.98105549889E+02  0.80865497099E+02 0.  0.
          6    2    1    2  501    0  0.53761760129E+02  0.28037966816E+03  0.50119214872E+03  0.60186662334E+03  0.17189176006E+03 0.  0.
         24    2    5    5    0    0  0.98037492572E+01  0.84312682639E+02  0.27575671901E+03  0.29984378894E+03  0.81607522512E+02 0.  0.
          5    1    5    5  501    0  0.43958010872E+02  0.19606698552E+03  0.22543542971E+03  0.30202283440E+03  0.47000000000E+01 0. -1.
        -13    1    6    6    0    0  0.22408729130E+02  0.75003601749E+01  0.15069450828E+03  0.15253603302E+03  0.00000000000E+00 0.  1.
         14    1    6    6    0    0 -0.12604979873E+02  0.76812322465E+02  0.12506221073E+03  0.14730775592E+03  0.00000000000E+00 0. -1.
         -5    1    3    3    0  503 -0.29905806465E+02 -0.23184244533E+03 -0.30248597976E+02  0.23575908126E+03  0.47000000000E+01 0.  1.
         13    1    4    4    0    0 -0.18502580124E+02 -0.33056111138E+02  0.46821929885E+02  0.60227444516E+02  0.00000000000E+00 0. -1.
        -14    1    4    4    0    0 -0.53533735406E+01 -0.15481111688E+02 -0.34153000444E+02  0.37878105373E+02  0.00000000000E+00 0.  1.
</event>
<event>
12    1  0.8133506E-002  0.1903801E+03  0.7818608E-02  0.1158329E+00
         21   -1    0    0  501  502  0.00000000000E+00  0.00000000000E+00  0.32478405364E+02  0.32478405364E+02  0.00000000000E+00 0. -1.
         21   -1    0    0  502  503 -0.00000000000E+00 -0.00000000000E+00 -0.12378998602E+04  0.12378998602E+04  0.00000000000E+00 0. -1.
         -6    2    1    2    0  503 -0.73308551998E+02 -0.34302099382E+02 -0.80514495901E+03  0.82713356735E+03  0.17129143415E+03 0.  0.
        -24    2    3    3    0    0 -0.11135329390E+03 -0.53938024014E+02 -0.63792426516E+03  0.65445518894E+03  0.77816192074E+02 0.  0.
          6    2    1    2  501    0  0.73308551998E+02  0.34302099382E+02 -0.40027649580E+03  0.44324469818E+03  0.17231892396E+03 0.  0.
         24    2    5    5    0    0 -0.17376554985E+02 -0.13417024823E+02 -0.23029337560E+03  0.24470690682E+03  0.79777629597E+02 0.  0.
          5    1    5    5  501    0  0.90685106983E+02  0.47719124205E+02 -0.16998312021E+03  0.19853779136E+03  0.47000000000E+01 0. -1.
        -11    1    6    6    0    0 -0.33265576297E+02 -0.15948834294E+02 -0.22464619472E+03  0.22765517057E+03  0.00000000000E+00 0.  1.
         12    1    6    6    0    0  0.15889021313E+02  0.25318094712E+01 -0.56471808720E+01  0.17051736254E+02  0.00000000000E+00 0. -1.
         -5    1    3    3    0  503  0.38044741904E+02  0.19635924632E+02 -0.16722069384E+03  0.17267837842E+03  0.47000000000E+01 0.  1.
         13    1    4    4    0    0 -0.20377264221E+02  0.89057890871E+01 -0.25269038957E+03  0.25366706321E+03  0.00000000000E+00 0. -1.
        -14    1    4    4    0    0 -0.90976029681E+02 -0.62843813101E+02 -0.38523387559E+03  0.40078812573E+03  0.00000000000E+00 0.  1.
</event>
<event>
12    1  0.8133506E-002  0.2857221E+03  0.7818608E-02  0.1092629E+00
         21   -1    0    0  503  502  0.00000000000E+00  0.00000000000E+00  0.11186499953E+04  0.11186499953E+04  0.00000000000E+00 0. -1.
         21   -1    0    0  501  503 -0.00000000000E+00 -0.00000000000E+00 -0.74866049690E+02  0.74866049690E+02  0.00000000000E+00 0.  1.
          6    2    1    2  501    0 -0.16116491311E+03  0.16159953426E+03  0.61802006043E+03  0.68087142165E+03  0.17189694309E+03 0.  0.
         24    2    3    3    0    0 -0.19050393549E+03  0.13888750084E+03  0.55008259345E+03  0.60332012176E+03  0.76307420209E+02 0.  0.
         -6    2    1    2    0  502  0.16116491311E+03 -0.16159953426E+03  0.42576388514E+03  0.51264462329E+03  0.17158404707E+03 0.  0.
        -24    2    5    5    0    0  0.45452708640E+02 -0.12927769649E+03  0.29126659940E+03  0.33224056200E+03  0.82273249456E+02 0.  0.
          5    1    3    3  501    0  0.29339022375E+02  0.22712033417E+02  0.67937466977E+02  0.77551299893E+02  0.47000000000E+01 0. -1.
        -11    1    4    4    0    0 -0.38874633687E+02  0.66764304197E+02  0.13467394841E+03  0.15526036790E+03  0.00000000000E+00 0.  1.
         12    1    4    4    0    0 -0.15162930180E+03  0.72123196643E+02  0.41540864504E+03  0.44805975386E+03  0.00000000000E+00 0. -1.
         -5    1    5    5    0  502  0.11571220447E+03 -0.32321837764E+02  0.13449728573E+03  0.18040406129E+03  0.47000000000E+01 0.  1.
         11    1    6    6    0    0  0.27930510660E+02  0.14223167901E+01  0.50990544692E+02  0.58156444688E+02  0.00000000000E+00 0. -1.
        -12    1    6    6    0    0  0.17522197980E+02 -0.13070001328E+03  0.24027605471E+03  0.27408411731E+03  0.00000000000E+00 0.  1.
</event>
<event>
12    1  0.8133506E-002  0.1986871E+03  0.7818608E-02  0.1151083E+00
         21   -1    0    0  501  502  0.00000000000E+00  0.00000000000E+00  0.16892408581E+04  0.16892408581E+04  0.00000000000E+00 0.  1.
         21   -1    0    0  502  503 -0.00000000000E+00 -0.00000000000E+00 -0.29945673164E+02  0.29945673164E+02  0.00000000000E+00 0.  1.
         -6    2    1    2    0  503  0.27187809969E+02 -0.92802729632E+02  0.12345914783E+04  0.12503050975E+04  0.17232293807E+03 0.  0.
        -24    2    3    3    0    0  0.76771275254E+02 -0.98843643754E+02  0.86292861166E+03  0.87527124691E+03  0.76092524153E+02 0.  0.
          6    2    1    2  501    0 -0.27187809969E+02  0.92802729632E+02  0.42470370668E+03  0.46888143378E+03  0.17356565569E+03 0.  0.
         24    2    5    5    0    0 -0.72135760515E+02  0.60114900772E+02  0.18493360675E+03  0.22270953604E+03  0.81127857720E+02 0.  0.
          5    1    5    5  501    0  0.44947950546E+02  0.32687828860E+02  0.23977009993E+03  0.24617189773E+03  0.47000000000E+01 0. -1.
        -11    1    6    6    0    0 -0.64839838599E+01  0.57907706040E+02  0.92121169956E+02  0.10900300188E+03  0.00000000000E+00 0.  1.
         12    1    6    6    0    0 -0.65651776655E+02  0.22071947324E+01  0.92812436798E+02  0.11370653416E+03  0.00000000000E+00 0. -1.
         -5    1    3    3    0  503 -0.49583465286E+02  0.60409141219E+01  0.37166286659E+03  0.37503385057E+03  0.47000000000E+01 0.  1.
         11    1    4    4    0    0  0.53774156546E+02 -0.16235412187E+02  0.45305203023E+03  0.45652096405E+03  0.00000000000E+00 0. -1.
        -12    1    4    4    0    0  0.22997118709E+02 -0.82608231567E+02  0.40987658143E+03  0.41875028287E+03  0.00000000000E+00 0.  1.
</event>
<event>
12    1  0.8133506E-002  0.2450322E+03  0.7818608E-02  0.1116547E+00
         21   -1    0    0  501  502  0.00000000000E+00  0.00000000000E+00  0.26406002407E+03  0.26406002407E+03  0.00000000000E+00 0.  1.
         21   -1    0    0  502  503 -0.00000000000E+00 -0.00000000000E+00 -0.62376182544E+03  0.62376182544E+03  0.00000000000E+00 0. -1.
         -6    2    1    2    0  503  0.17331304697E+03 -0.10929272635E+02 -0.53382854495E+03  0.58722097092E+03  0.17233308454E+03 0.  0.
        -24    2    3    3    0    0  0.11612178693E+03 -0.72878726121E+02 -0.32786298203E+03  0.36461711174E+03  0.81583852964E+02 0.  0.
          6    2    1    2  501    0 -0.17331304697E+03  0.10929272635E+02  0.17412674358E+03  0.30060087860E+03  0.17286961599E+03 0.  0.
         24    2    5    5    0    0 -0.12520681271E+03  0.70956406930E+02  0.12815211803E+03  0.21086112809E+03  0.85603109469E+02 0.  0.
          5    1    5    5  501    0 -0.48106234261E+02 -0.60027134295E+02  0.45974625555E+02  0.89739750509E+02  0.47000000000E+01 0. -1.
        -13    1    6    6    0    0 -0.65978928390E+02  0.24426016299E+02  0.10456096837E+02  0.71127907496E+02  0.00000000000E+00 0.  1.
         14    1    6    6    0    0 -0.59227884319E+02  0.46530390631E+02  0.11769602119E+03  0.13973322059E+03  0.00000000000E+00 0. -1.
         -5    1    3    3    0  503  0.57191260038E+02  0.61949453487E+02 -0.20596556292E+03  0.22260385918E+03  0.47000000000E+01 0.  1.
         11    1    4    4    0    0  0.17097892181E+02 -0.36718644811E+01 -0.14114011156E+03  0.14221937842E+03  0.00000000000E+00 0. -1.
        -12    1    4    4    0    0  0.99023894751E+02 -0.69206861640E+02 -0.18672287047E+03  0.22239773332E+03  0.00000000000E+00 0.  1.
</event>
<event>
12    1  0.8133506E-002  0.2272386E+03  0.7818608E-02  0.1128633E+00
         21   -1    0    0  501  502  0.00000000000E+00  0.00000000000E+00  0.82138552647E+03  0.82138552647E+03  0.00000000000E+00 0.  1.
         21   -1    0    0  502  503 -0.00000000000E+00 -0.00000000000E+00 -0.10906427598E+03  0.10906427598E+03  0.00000000000E+00 0.  1.
         -6    2    1    2    0  503  0.19049887121E+02 -0.14756783687E+03  0.53118033600E+02  0.23317920811E+03  0.17149884233E+03 0.  0.
        -24    2    3    3    0    0  0.25407083256E+02 -0.66334175730E+01 -0.56095946845E+01  0.80293797389E+02  0.75671026413E+02 0.  0.
          6    2    1    2  501    0 -0.19049887121E+02  0.14756783687E+03  0.65920321689E+03  0.69727059435E+03  0.17175050482E+03 0.  0.
         24    2    5    5    0    0  0.26775150063E+02  0.13494826973E+03  0.34811693149E+03  0.38253903496E+03  0.78884542962E+02 0.  0.
          5    1    5    5  501    0 -0.45825037184E+02  0.12619567148E+02  0.31108628540E+03  0.31473155939E+03  0.47000000000E+01 0. -1.
        -13    1    6    6    0    0 -0.21950127013E+02  0.87930455977E+02  0.18855622827E+03  0.20920569874E+03  0.00000000000E+00 0.  1.
         14    1    6    6    0    0  0.48725277077E+02  0.47017813749E+02  0.15956070322E+03  0.17333333622E+03  0.00000000000E+00 0. -1.
         -5    1    3    3    0  503 -0.63571961354E+01 -0.14093441930E+03  0.58727628284E+02  0.15288541072E+03  0.47000000000E+01 0.  1.
         13    1    4    4    0    0 -0.14366342398E+02  0.11769489799E+02 -0.26004980899E+02  0.31955777500E+02  0.00000000000E+00 0. -1.
        -14    1    4    4    0    0  0.39773425654E+02 -0.18402907372E+02  0.20395386215E+02  0.48338019890E+02  0.00000000000E+00 0.  1.
</event>
<event>
12    1  0.8133506E-002  0.2543692E+03  0.7818608E-02  0.1110695E+00
         21   -1    0    0  503  502  0.00000000000E+00  0.00000000000E+00  0.48148159466E+03  0.48148159466E+03  0.00000000000E+00 0. -1.
         21   -1    0    0  501  503 -0.00000000000E+00 -0.00000000000E+00 -0.16852820446E+03  0.16852820446E+03  0.00000000000E+00 0.  1.
          6    2    1    2  501    0 -0.15645747533E+03 -0.10495407026E+03  0.91216745323E+01  0.25375557284E+03  0.16974801133E+03 0.  0.
         24    2    3    3    0    0 -0.15289424044E+03 -0.13531905162E+03  0.20050522974E+02  0.22094919444E+03  0.82028218076E+02 0.  0.
         -6    2    1    2    0  502  0.15645747533E+03  0.10495407026E+03  0.30383171567E+03  0.39625422628E+03  0.17090758306E+03 0.  0.
        -24    2    5    5    0    0  0.64825112132E+02  0.10568635656E+03  0.24940895371E+03  0.28957267564E+03  0.79218729851E+02 0.  0.
          5    1    3    3  501    0 -0.35632348894E+01  0.30364981357E+02 -0.10928848442E+02  0.32806378404E+02  0.47000000000E+01 0. -1.
        -13    1    4    4    0    0 -0.12619308221E+03 -0.68182531572E+02 -0.74816520746E+01  0.14362982534E+03  0.00000000000E+00 0.  1.
         14    1    4    4    0    0 -0.26701158226E+02 -0.67136520044E+02  0.27532175049E+02  0.77319369095E+02  0.00000000000E+00 0. -1.
         -5    1    5    5    0  502  0.91632363195E+02 -0.73228630401E+00  0.54422761959E+02  0.10668155064E+03  0.47000000000E+01 0.  1.
         11    1    6    6    0    0  0.51073522655E+02  0.98490973860E+02  0.13790464336E+03  0.17699341035E+03  0.00000000000E+00 0. -1.
        -12    1    6    6    0    0  0.13751589477E+02  0.71953827028E+01  0.11150431035E+03  0.11257926529E+03  0.00000000000E+00 0.  1.
</event>
<event>
12    1  0.8133506E-002  0.2979476E+03  0.7818608E-02  0.1087086E+00
         21   -1    0    0  503  502  0.00000000000E+00  0.00000000000E+00  0.78177437965E+03  0.78177437965E+03  0.00000000000E+00 0.  1.
         21   -1    0    0  501  503 -0.00000000000E+00 -0.00000000000E+00 -0.16094945878E+03  0.16094945878E+03  0.00000000000E+00 0. -1.
          6    2    1    2  501    0 -0.20796432885E+03  0.12377483694E+03  0.57032340208E+03  0.64052661659E+03  0.16259210086E+03 0.  0.
         24    2    3    3    0    0 -0.56040337310E+02  0.88147185014E+02  0.19249462046E+03  0.23171503773E+03  0.75678492138E+02 0.  0.
         -6    2    1    2    0  502  0.20796432885E+03 -0.12377483694E+03  0.50501518788E+02  0.30219722184E+03  0.17379121138E+03 0.  0.
        -24    2    5    5    0    0  0.22856525570E+03 -0.11014663084E+03  0.63940675090E+02  0.27368709889E+03  0.80261209595E+02 0.  0.
          5    1    3    3  501    0 -0.15192399154E+03  0.35627651923E+02  0.37782878162E+03  0.40881157885E+03  0.47000000000E+01 0. -1.
        -13    1    4    4    0    0 -0.66342170972E+02  0.37648844717E+02  0.99273741976E+02  0.12519582662E+03  0.00000000000E+00 0.  1.
         14    1    4    4    0    0  0.10301833661E+02  0.50498340297E+02  0.93220878488E+02  0.10651921111E+03  0.00000000000E+00 0. -1.
         -5    1    5    5    0  502 -0.20600926852E+02 -0.13628206096E+02 -0.13439156302E+02  0.28510122951E+02  0.47000000000E+01 0.  1.
         11    1    6    6    0    0  0.17095724934E+03 -0.95033794259E+02  0.14235508372E+02  0.19611336734E+03  0.00000000000E+00 0. -1.
        -12    1    6    6    0    0  0.57608006366E+02 -0.15112836582E+02  0.49705166718E+02  0.77573731543E+02  0.00000000000E+00 0.  1.
</event>
<event>
12    1  0.8133506E-002  0.1753724E+03  0.7818608E-02  0.1173953E+00
         21   -1    0    0  503  502  0.00000000000E+00  0.00000000000E+00  0.38513814099E+03  0.38513814099E+03  0.00000000000E+00 0.  1.
         21   -1    0    0  501  503 -0.00000000000E+00 -0.00000000000E+00 -0.80386244359E+02  0.80386244359E+02  0.00000000000E+00 0.  1.
          6    2    1    2  501    0  0.28256834682E+02  0.32158408832E+02  0.19723778037E+03  0.25981881853E+03  0.16361682216E+03 0.  0.
         24    2    3    3    0    0 -0.21329667346E+02  0.61962641530E+02  0.16138156517E+03  0.19159219881E+03  0.79807502235E+02 0.  0.
         -6    2    1    2    0  502 -0.28256834682E+02 -0.32158408832E+02  0.10751411626E+03  0.20570556682E+03  0.17006728980E+03 0.  0.
        -24    2    5    5    0    0 -0.44444313034E+02 -0.12915004480E+02  0.13806909175E+03  0.16585535234E+03  0.79390361519E+02 0.  0.
          5    1    3    3  501    0  0.49586502028E+02 -0.29804232698E+02  0.35856215195E+02  0.68226619719E+02  0.47000000000E+01 0. -1.
        -13    1    4    4    0    0  0.26757266722E+02  0.13664352174E+02  0.24829528046E+02  0.38976548152E+02  0.00000000000E+00 0.  1.
         14    1    4    4    0    0 -0.48086934068E+02  0.48298289356E+02  0.13655203712E+03  0.15261565066E+03  0.00000000000E+00 0. -1.
         -5    1    5    5    0  502  0.16187478352E+02 -0.19243404352E+02 -0.30554975490E+02  0.39850214475E+02  0.47000000000E+01 0.  1.
         13    1    6    6    0    0 -0.51592046603E+02 -0.39089167979E+02  0.99377288713E+02  0.11859826237E+03  0.00000000000E+00 0. -1.
        -14    1    6    6    0    0  0.71477335693E+01  0.26174163499E+02  0.38691803041E+02  0.47257089972E+02  0.00000000000E+00 0.  1.
</event>
<event>
12    1  0.8133506E-002  0.2002830E+03  0.7818608E-02  0.1149975E+00
         21   -1    0    0  501  502  0.00000000000E+00  0.00000000000E+00  0.97586017408E+03  0.97586017408E+03  0.00000000000E+00 0. -1.
         21   -1    0    0  502  503 -0.00000000000E+00 -0.00000000000E+00 -0.82992093226E+02  0.82992093226E+02  0.00000000000E+00 0. -1.
         -6    2    1    2    0  503  0.45730638799E+02 -0.90996877792E+02  0.67034892888E+02  0.20907950980E+03  0.16984946706E+03 0.  0.
        -24    2    3    3    0    0  0.19452459968E+01 -0.16047308989E+02  0.88248704720E+02  0.11959926450E+03  0.79087610132E+02 0.  0.
          6    2    1    2  501    0 -0.45730638799E+02  0.90996877792E+02  0.82583318796E+03  0.84977275750E+03  0.17245742071E+03 0.  0.
         24    2    5    5    0    0 -0.91918395580E+01  0.15360581363E+02  0.64900383075E+03  0.65394976406E+03  0.78255250384E+02 0.  0.
          5    1    5    5  501    0 -0.36538799241E+02  0.75636296429E+02  0.17682935721E+03  0.19582299344E+03  0.47000000000E+01 0. -1.
        -13    1    6    6    0    0  0.10268680345E+02 -0.11359471496E+02  0.26782610090E+02  0.30851119784E+02  0.00000000000E+00 0.  1.
         14    1    6    6    0    0 -0.19460519903E+02  0.26720052859E+02  0.62222122066E+03  0.62309864428E+03  0.00000000000E+00 0. -1.
         -5    1    3    3    0  503  0.43785392802E+02 -0.74949568803E+02 -0.21213811833E+02  0.89480245301E+02  0.47000000000E+01 0.  1.
         13    1    4    4    0    0 -0.21404580458E+02 -0.31458521308E+02  0.14494635370E+02  0.40717184112E+02  0.00000000000E+00 0. -1.
        -14    1    4    4    0    0  0.23349826455E+02  0.15411212319E+02  0.73754069350E+02  0.78882080388E+02  0.00000000000E+00 0.  1.
</event>
<event>
12    1  0.8133506E-002  0.2663579E+03  0.7818608E-02  0.1103558E+00
         21   -1    0    0  501  502  0.00000000000E+00  0.00000000000E+00  0.37271613860E+03  0.37271613860E+03  0.00000000000E+00 0.  1.
         21   -1    0    0  502  503 -0.00000000000E+00 -0.00000000000E+00 -0.19064612060E+03  0.19064612060E+03  0.00000000000E+00 0.  1.
         -6    2    1    2    0  503 -0.28118440625E+00 -0.20257549262E+03  0.11274572111E+03  0.28813075827E+03  0.17108719110E+03 0.  0.
        -24    2    3    3    0    0  0.82060361095E+01 -0.52991178855E+02 -0.70971064148E+01  0.96214388085E+02  0.79570317896E+02 0.  0.
          6    2    1    2  501    0  0.28118440625E+00  0.20257549262E+03  0.69324296889E+02  0.27523150093E+03  0.17294395534E+03 0.  0.
         24    2    5    5    0    0 -0.59289566784E+01  0.17833204071E+03 -0.61971797453E+01  0.19553272901E+03  0.79731887000E+02 0.  0.
          5    1    5    5  501    0  0.62101410846E+01  0.24243451912E+02  0.75521476634E+02  0.79698771922E+02  0.47000000000E+01 0. -1.
        -11    1    6    6    0    0 -0.12226161031E+02  0.86770313801E+02  0.35729258459E+02  0.94631634673E+02  0.00000000000E+00 0.  1.
         12    1    6    6    0    0  0.62972043523E+01  0.91561726911E+02 -0.41926438205E+02  0.10090109434E+03  0.00000000000E+00 0. -1.
         -5    1    3    3    0  503 -0.84872205158E+01 -0.14958431377E+03  0.11984282752E+03  0.19191637019E+03  0.47000000000E+01 0.  1.
         13    1    4    4    0    0 -0.33695993202E+02 -0.39210118772E+02 -0.12155436401E+01  0.51713933502E+02  0.00000000000E+00 0. -1.
        -14    1    4    4    0    0  0.41902029311E+02 -0.13781060083E+02 -0.58815627747E+01  0.44500454583E+02  0.00000000000E+00 0.  1.
</event>
<event>
12    1  0.8133506E-002  0.2391957E+03  0.7818608E-02  0.1120451E+00
         21   -1    0    0  503  502  0.00000000000E+00  0.00000000000E+00  0.87635100148E+02  0.87635100148E+02  0.00000000000E+00 0.  1.
         21   -1    0    0  501  503 -0.00000000000E+00 -0.00000000000E+00 -0.69965638225E+03  0.69965638225E+03  0.00000000000E+00 0. -1.
          6    2    1    2  501    0  0.64281009012E+02 -0.15144686776E+03 -0.41035817118E+03  0.47498251462E+03  0.17362706779E+03 0.  0.
         24    2    3    3    0    0  0.53416082530E+02 -0.92648643443E+02 -0.12859470047E+03  0.18690609900E+03  0.83428075917E+02 0.  0.
         -6    2    1    2    0  502 -0.64281009012E+02  0.15144686776E+03 -0.20166311092E+03  0.31230896777E+03  0.17262873217E+03 0.  0.
        -24    2    5    5    0    0 -0.72455451142E+00  0.13393075973E+03 -0.18890621692E+03  0.24499577966E+03  0.79996249156E+02 0.  0.
          5    1    3    3  501    0  0.10864926483E+02 -0.58798224315E+02 -0.28176347070E+03  0.28807641561E+03  0.47000000000E+01 0. -1.
        -13    1    4    4    0    0 -0.21579615543E+02 -0.16010277065E+02 -0.37944442981E+02  0.46495048466E+02  0.00000000000E+00 0.  1.
         14    1    4    4    0    0  0.74995698072E+02 -0.76638366378E+02 -0.90650257490E+02  0.14041105054E+03  0.00000000000E+00 0. -1.
         -5    1    5    5    0  502 -0.63556454501E+02  0.17516108026E+02 -0.12756893999E+02  0.67313188111E+02  0.47000000000E+01 0.  1.
         13    1    6    6    0    0  0.36768201052E+02  0.71578353709E+02 -0.76053031356E+02  0.11072228731E+03  0.00000000000E+00 0. -1.
        -14    1    6    6    0    0 -0.37492755564E+02  0.62352406022E+02 -0.11285318557E+03  0.13427349235E+03  0.00000000000E+00 0.  1.
</event>
<event>
12    1  0.8133506E-002  0.2090744E+03  0.7818608E-02  0.1143050E+00
         21   -1    0    0  501  502  0.00000000000E+00  0.00000000000E+00  0.40513390780E+03  0.40513390780E+03  0.00000000000E+00 0. -1.
         21   -1    0    0  502  503 -0.00000000000E+00 -0.00000000000E+00 -0.32543895011E+03  0.32543895011E+03  0.00000000000E+00 0. -1.
         -6    2    1    2    0  503  0.10040310810E+03 -0.51661358061E+02 -0.26023302645E+03  0.33149500543E+03  0.17151685206E+03 0.  0.
        -24    2    3    3    0    0  0.61118973321E+02 -0.56885870019E+02 -0.26674543274E+03  0.29105937502E+03  0.81184375309E+02 0.  0.
          6    2    1    2  501    0 -0.10040310810E+03  0.51661358061E+02  0.33992798414E+03  0.39907785247E+03  0.17596141025E+03 0.  0.
         24    2    5    5    0    0 -0.55346077007E+02  0.15189441210E+02  0.62031459314E+02  0.11516077782E+03  0.78231677972E+02 0.  0.
          5    1    5    5  501    0 -0.45057031096E+02  0.36471916852E+02  0.27789652483E+03  0.28391707465E+03  0.47000000000E+01 0. -1.
        -13    1    6    6    0    0  0.99418216594E+01 -0.20379502956E+02  0.14122465362E+02  0.26713442057E+02  0.00000000000E+00 0.  1.
         14    1    6    6    0    0 -0.65287898666E+02  0.35568944166E+02  0.47908993951E+02  0.88447335759E+02  0.00000000000E+00 0. -1.
         -5    1    3    3    0  503  0.39284134782E+02  0.52245119575E+01  0.65124062949E+01  0.40435630409E+02  0.47000000000E+01 0.  1.
         11    1    4    4    0    0  0.62959258259E+02 -0.43500305103E+02 -0.11154375496E+03  0.13527066946E+03  0.00000000000E+00 0. -1.
        -12    1    4    4    0    0 -0.18402849384E+01 -0.13385564916E+02 -0.15520167778E+03  0.15578870557E+03  0.00000000000E+00 0.  1.
</event>
<event>
12    1  0.8133506E-002  0.1761588E+03  0.7818608E-02  0.1172438E+00
         21   -1    0    0  503  502  0.00000000000E+00  0.00000000000E+00  0.13840315051E+04  0.13840315051E+04  0.00000000000E+00 0.  1.
         21   -1    0    0  501  503 -0.00000000000E+00 -0.00000000000E+00 -0.18223036658E+03  0.18223036658E+03  0.00000000000E+00 0.  1.
          6    2    1    2  501    0 -0.33696160508E+02 -0.68221266791E+01 -0.13418130677E+03  0.21871558080E+03  0.16926284162E+03 0.  0.
         24    2    3    3    0    0  0.30177387946E+02 -0.40909102425E+02 -0.10109685771E+03  0.13897586123E+03  0.80681385469E+02 0.  0.
         -6    2    1    2    0  502  0.33696160508E+02  0.68221266791E+01  0.13359824453E+04  0.13475462909E+04  0.17277134987E+03 0.  0.
        -24    2    5    5    0    0 -0.32180030594E+02 -0.34606770932E+02  0.84553225373E+03  0.85093829004E+03  0.83294648065E+02 0.  0.
          5    1    3    3  501    0 -0.63873548454E+02  0.34086975746E+02 -0.33084449060E+02  0.79739719571E+02  0.47000000000E+01 0. -1.
        -13    1    4    4    0    0  0.17237326800E+02  0.34544860002E+01 -0.89662903973E+02  0.91370100457E+02  0.00000000000E+00 0.  1.
         14    1    4    4    0    0  0.12940061147E+02 -0.44363588425E+02 -0.11433953733E+02  0.47605760769E+02  0.00000000000E+00 0. -1.
         -5    1    5    5    0  502  0.65876191102E+02  0.41428897611E+02  0.49045019155E+03  0.49660800085E+03  0.47000000000E+01 0.  1.
         11    1    6    6    0    0  0.20616670227E+02 -0.99151218484E+01  0.80459785837E+02  0.83648872493E+02  0.00000000000E+00 0. -1.
        -12    1    6    6    0    0 -0.52796700821E+02 -0.24691649084E+02  0.76507246789E+03  0.76728941754E+03  0.00000000000E+00 0.  1.
</event>
<event>
12    1  0.8133506E-002  0.1771058E+03  0.7818608E-02  0.1171526E+00
         21   -1    0    0  503  502  0.00000000000E+00  0.00000000000E+00  0.86339578715E+03  0.86339578715E+03  0.00000000000E+00 0.  1.
         21   -1    0    0  501  503 -0.00000000000E+00 -0.00000000000E+00 -0.43677208313E+02  0.43677208313E+02  0.00000000000E+00 0.  1.
          6    2    1    2  501    0  0.34978256659E+02 -0.23759676359E+02  0.21823961816E+03  0.28106046441E+03  0.17198387443E+03 0.  0.
         24    2    3    3    0    0 -0.55056136026E+01  0.37182535015E+02  0.70518891652E+02  0.11614715410E+03  0.84287571058E+02 0.  0.
         -6    2    1    2    0  502 -0.34978256659E+02  0.23759676359E+02  0.60147896068E+03  0.62601253105E+03  0.16830552050E+03 0.  0.
        -24    2    5    5    0    0 -0.45285475347E+02  0.22266517149E+02  0.60632589132E+03  0.61360080200E+03  0.79550522764E+02 0.  0.
          5    1    3    3  501    0  0.40483870262E+02 -0.60942211375E+02  0.14772072650E+03  0.16491331031E+03  0.47000000000E+01 0. -1.
        -11    1    4    4    0    0 -0.26557961865E+02 -0.11111416760E+02  0.84964887477E+00  0.28801229557E+02  0.00000000000E+00 0.  1.
         12    1    4    4    0    0  0.21052348262E+02  0.48293951775E+02  0.69669242777E+02  0.87345924545E+02  0.00000000000E+00 0. -1.
         -5    1    5    5    0  502  0.10307218688E+02  0.14931592100E+01 -0.48469306333E+01  0.12411729052E+02  0.47000000000E+01 0.  1.
         11    1    6    6    0    0 -0.37829784868E+02  0.98156491692E+01  0.10456525319E+03  0.11163033533E+03  0.00000000000E+00 0. -1.
        -12    1    6    6    0    0 -0.74556904794E+01  0.12450867980E+02  0.50176063813E+03  0.50197046667E+03  0.00000000000E+00 0.  1.
</event>
<event>
12    1  0.8133506E-002  0.1881154E+03  0.7818608E-02  0.1161967E+00
         21   -1    0    0  503  502  0.00000000000E+00  0.00000000000E+00  0.56007512968E+02  0.56007512968E+02  0.00000000000E+00 0.  1.
         21   -1    0    0  501  503 -0.00000000000E+00 -0.00000000000E+00 -0.61858993491E+03  0.61858993491E+03  0.00000000000E+00 0.  1.
          6    2    1    2  501    0  0.46867197460E+02 -0.15378265420E+02 -0.32309917596E+03  0.37006560632E+03  0.17355820416E+03 0.  0.
         24    2    3    3    0    0  0.41352705519E+02  0.57199138730E+02 -0.98812187517E+02  0.13421685733E+03  0.57171047439E+02 0.  0.
         -6    2    1    2    0  502 -0.46867197460E+02  0.15378265420E+02 -0.23948324598E+03  0.30453184156E+03  0.18153344643E+03 0.  0.
        -24    2    5    5    0    0 -0.72872840636E+02  0.20196638966E+02 -0.25200424157E+03  0.27489444067E+03  0.79639566905E+02 0.  0.
          5    1    3    3  501    0  0.55144919403E+01 -0.72577404150E+02 -0.22428698844E+03  0.23584874899E+03  0.47000000000E+01 0. -1.
        -11    1    4    4    0    0  0.51804827892E+02  0.52302313594E+02 -0.98104241474E+02  0.12265282058E+03  0.00000000000E+00 0.  1.
         12    1    4    4    0    0 -0.10452122373E+02  0.48968251364E+01 -0.70794604285E+00  0.11564036757E+02  0.00000000000E+00 0. -1.
         -5    1    5    5    0  502  0.26005643177E+02 -0.48183735453E+01  0.12520995587E+02  0.29637400884E+02  0.47000000000E+01 0.  1.
         11    1    6    6    0    0 -0.28384154677E+02  0.49130017511E+02 -0.12816420137E+03  0.14016233935E+03  0.00000000000E+00 0. -1.
        -12    1    6    6    0    0 -0.44488685959E+02 -0.28933378546E+02 -0.12384004020E+03  0.13473210133E+03  0.00000000000E+00 0.  1.
</event>
<event>
12    1  0.8133506E-002  0.2236294E+03  0.7818608E-02  0.1131403E+00
         21   -1    0    0  501  502  0.00000000000E+00  0.00000000000E+00  0.39639216835E+03  0.39639216835E+03  0.00000000000E+00 0.  1.
         21   -1    0    0  502  503 -0.00000000000E+00 -0.00000000000E+00 -0.79154567309E+03  0.79154567309E+03  0.00000000000E+00 0.  1.
         -6    2    1    2    0  503 -0.50801072359E+01  0.14054365506E+03 -0.74247973282E+03  0.77542649395E+03  0.17387284840E+03 0.  0.
        -24    2    3    3    0    0  0.10422403038E+02  0.16258536081E+03 -0.50597455601E+03  0.53734467341E+03  0.78653802675E+02 0.  0.
          6    2    1    2  501    0  0.50801072359E+01 -0.14054365506E+03  0.34732622808E+03  0.41251134748E+03  0.17248703321E+03 0.  0.
         24    2    5    5    0    0  0.22932597601E-03 -0.18400323760E+02  0.22271094780E+03  0.23788071838E+03  0.81538322246E+02 0.  0.
          5    1    5    5  501    0  0.50798779099E+01 -0.12214333130E+03  0.12461528028E+03  0.17463062910E+03  0.47000000000E+01 0. -1.
        -11    1    6    6    0    0 -0.41847523158E+01  0.31253442914E+02  0.61021359826E+02  0.68686943453E+02  0.00000000000E+00 0.  1.
         12    1    6    6    0    0  0.41849816418E+01 -0.49653766675E+02  0.16168958797E+03  0.16919377493E+03  0.00000000000E+00 0. -1.
         -5    1    3    3    0  503 -0.15502510274E+02 -0.22041705750E+02 -0.23650517680E+03  0.23808182054E+03  0.47000000000E+01 0.  1.
         13    1    4    4    0    0 -0.21990587982E+02  0.99894951287E+02 -0.21733055391E+03  0.24019816176E+03  0.00000000000E+00 0. -1.
        -14    1    4    4    0    0  0.32412991021E+02  0.62690409526E+02 -0.28864400211E+03  0.29714651165E+03  0.00000000000E+00 0.  1.
</event>
<event>
12    1  0.8133506E-002  0.1812706E+03  0.7818608E-02  0.1166993E+00
         21   -1    0    0  501  502  0.00000000000E+00  0.00000000000E+00  0.19631434317E+02  0.19631434317E+02  0.00000000000E+00 0.  1.
         21   -1    0    0  502  503 -0.00000000000E+00 -0.00000000000E+00 -0.20429283293E+04  0.20429283293E+04  0.00000000000E+00 0.  1.
         -6    2    1    2    0  503  0.58686291570E+02 -0.43796447043E+01 -0.14554093266E+04  0.14664428977E+04  0.16963255080E+03 0.  0.
        -24    2    3    3    0    0  0.45140107611E+02  0.38069420673E+02 -0.46012467889E+03  0.47015024887E+03  0.76417447471E+02 0.  0.
          6    2    1    2  501    0 -0.58686291570E+02  0.43796447043E+01 -0.56788756843E+03  0.59611686591E+03  0.17145193305E+03 0.  0.
         24    2    5    5    0    0 -0.85369256609E+02 -0.28694298749E+01 -0.55217829420E+03  0.56397031085E+03  0.76586547993E+02 0.  0.
          5    1    5    5  501    0  0.26682965039E+02  0.72490745791E+01 -0.15709274222E+02  0.32146555058E+02  0.47000000000E+01 0. -1.
        -11    1    6    6    0    0 -0.13281330198E+02 -0.23334132131E+01 -0.94289796557E+01  0.16454306622E+02  0.00000000000E+00 0.  1.
         12    1    6    6    0    0 -0.72087926411E+02 -0.53601666179E+00 -0.54274931455E+03  0.54751600423E+03  0.00000000000E+00 0. -1.
         -5    1    3    3    0  503  0.13546183959E+02 -0.42449065377E+02 -0.99528464766E+03  0.99629264884E+03  0.47000000000E+01 0.  1.
         13    1    4    4    0    0  0.14169069944E+01  0.18306478652E+02 -0.18994793607E+02  0.26418496744E+02  0.00000000000E+00 0. -1.
        -14    1    4    4    0    0  0.43723200617E+02  0.19762942021E+02 -0.44112988529E+03  0.44373175212E+03  0.00000000000E+00 0.  1.
</event>
<event>
12    1  0.8133506E-002  0.1795904E+03  0.7818608E-02  0.1168620E+00
         21   -1    0    0  503  502  0.00000000000E+00  0.00000000000E+00  0.31568866220E+03  0.31568866220E+03  0.00000000000E+00 0. -1.
         21   -1    0    0  501  503 -0.00000000000E+00 -0.00000000000E+00 -0.13630123597E+03  0.13630123597E+03  0.00000000000E+00 0.  1.
          6    2    1    2  501    0 -0.52102983030E+02  0.91037832342E+01 -0.24688733419E+02  0.18127944796E+03  0.17162489617E+03 0.  0.
         24    2    3    3    0    0 -0.26270369794E+02  0.40493778321E+02  0.38993405878E+02  0.10558162392E+03  0.85423153747E+02 0.  0.
         -6    2    1    2    0  502  0.52102983030E+02 -0.91037832342E+01  0.20407615965E+03  0.27071045021E+03  0.16982187493E+03 0.  0.
        -24    2    5    5    0    0  0.72938003700E+02  0.36507133800E+02  0.88232561834E+02  0.14439226864E+03  0.80071337406E+02 0.  0.
          5    1    3    3  501    0 -0.25832613236E+02 -0.31389995087E+02 -0.63682139297E+02  0.75697824035E+02  0.47000000000E+01 0. -1.
        -13    1    4    4    0    0  0.25337124307E+02  0.17037515230E+02 -0.84275089034E+01  0.31674432903E+02  0.00000000000E+00 0.  1.
         14    1    4    4    0    0 -0.51607494102E+02  0.23456263091E+02  0.47420914781E+02  0.73907191019E+02  0.00000000000E+00 0. -1.
         -5    1    5    5    0  502 -0.20835020670E+02 -0.45610917034E+02  0.11584359782E+03  0.12631818157E+03  0.47000000000E+01 0.  1.
         13    1    6    6    0    0  0.44750416914E+02  0.57217215276E+02  0.80767199541E+02  0.10862665446E+03  0.00000000000E+00 0. -1.
        -14    1    6    6    0    0  0.28187586786E+02 -0.20710081476E+02  0.74653622937E+01  0.35765614181E+02  0.00000000000E+00 0.  1.
</event>
<event>
12    1  0.8133506E-002  0.3358675E+03  0.7818608E-02  0.1069352E+00
         21   -1    0    0  501  502  0.00000000000E+00  0.00000000000E+00  0.52574845434E+03  0.52574845434E+03  0.00000000000E+00 0. -1.
         21   -1    0    0  502  503 -0.00000000000E+00 -0.00000000000E+00 -0.21707254932E+03  0.21707254932E+03  0.00000000000E+00 0. -1.
         -6    2    1    2    0  503 -0.28023927928E+03  0.15075627589E+02  0.85786033083E+02  0.33972442420E+03  0.17114938716E+03 0.  0.
        -24    2    3    3    0    0 -0.91712208796E+02 -0.36701624220E+02  0.51166787035E+01  0.12817543496E+03  0.81514558606E+02 0.  0.
          6    2    1    2  501    0  0.28023927928E+03 -0.15075627589E+02  0.22288987193E+03  0.40309657945E+03  0.18451457708E+03 0.  0.
         24    2    5    5    0    0  0.10552636548E+03  0.11324884339E+02  0.18607774058E+02  0.13295799503E+03  0.77894238373E+02 0.  0.
          5    1    5    5  501    0  0.17471291381E+03 -0.26400511928E+02  0.20428209787E+03  0.27013858442E+03  0.47000000000E+01 0. -1.
        -11    1    6    6    0    0  0.13914401312E+02 -0.10581406864E+02 -0.23904521505E+02  0.29614234474E+02  0.00000000000E+00 0.  1.
         12    1    6    6    0    0  0.91611964165E+02  0.21906291203E+02  0.42512295563E+02  0.10334376056E+03  0.00000000000E+00 0. -1.
         -5    1    3    3    0  503 -0.18852707049E+03  0.51777251809E+02  0.80669354379E+02  0.21154898924E+03  0.47000000000E+01 0.  1.
         13    1    4    4    0    0 -0.59013557947E+02 -0.27849013935E+02 -0.36298083928E+02  0.74670733863E+02  0.00000000000E+00 0. -1.
        -14    1    4    4    0    0 -0.32698650849E+02 -0.88526102846E+01  0.41414762631E+02  0.53504701102E+02  0.00000000000E+00 0.  1.
</event>
<event>
12    1  0.8133506E-002  0.1987049E+03  0.7818608E-02  0.1151154E+00
         21   -1    0    0  501  502  0.00000000000E+00  0.00000000000E+00  0.12765443012E+03  0.12765443012E+03  0.00000000000E+00 0.  1.
         21   -1    0    0  502  503 -0.00000000000E+00 -0.00000000000E+00 -0.48004418870E+03  0.48004418870E+03  0.00000000000E+00 0.  1.
         -6    2    1    2    0  503  0.63394992819E+02 -0.71307219333E+02 -0.35905206381E+03  0.41036816615E+03  0.17429860189E+03 0.  0.
        -24    2    3    3    0    0  0.60368726290E+01  0.25022965271E+02 -0.12561363861E+03  0.15136035396E+03  0.80427469951E+02 0.  0.
          6    2    1    2  501    0 -0.63394992819E+02  0.71307219333E+02  0.66623052328E+01  0.19733045266E+03  0.17260149650E+03 0.  0.
         24    2    5    5    0    0 -0.45735999530E+02 -0.21627295796E+02  0.30883045910E+02  0.99568504925E+02  0.80003769111E+02 0.  0.
          5    1    5    5  501    0 -0.17658993289E+02  0.92934515129E+02 -0.24220740677E+02  0.97761947737E+02  0.47000000000E+01 0. -1.
        -13    1    6    6    0    0 -0.57461024404E+02  0.11245790202E+02  0.11582271281E+02  0.59685728033E+02  0.00000000000E+00 0.  1.
         14    1    6    6    0    0  0.11725024874E+02 -0.32873085998E+02  0.19300774629E+02  0.39882776892E+02  0.00000000000E+00 0. -1.
         -5    1    3    3    0  503  0.57358120190E+02 -0.96330184604E+02 -0.23343842520E+03  0.25900781219E+03  0.47000000000E+01 0.  1.
         11    1    4    4    0    0  0.21068434048E+02  0.32128836582E+02 -0.17925975114E+02  0.42396717292E+02  0.00000000000E+00 0. -1.
        -12    1    4    4    0    0 -0.15031561419E+02 -0.71058713106E+01 -0.10768766350E+03  0.10896363667E+03  0.00000000000E+00 0.  1.
</event>
<event>
12    1  0.8133506E-002  0.2107694E+03  0.7818608E-02  0.1141217E+00
         21   -1    0    0  501  502  0.00000000000E+00  0.00000000000E+00  0.30888064506E+02  0.30888064506E+02  0.00000000000E+00 0. -1.
         21   -1    0    0  502  503 -0.00000000000E+00 -0.00000000000E+00 -0.14395022217E+04  0.14395022217E+04  0.00000000000E+00 0. -1.
         -6    2    1    2    0  503  0.11485746055E+03  0.35549014274E+02 -0.76404927973E+03  0.79224014701E+03  0.17151437263E+03 0.  0.
        -24    2    3    3    0    0  0.40149158363E+02  0.78674310089E+02 -0.36642855674E+03  0.38534280012E+03  0.80109827264E+02 0.  0.
          6    2    1    2  501    0 -0.11485746055E+03 -0.35549014274E+02 -0.64456487751E+03  0.67815013924E+03  0.17311199085E+03 0.  0.
         24    2    5    5    0    0 -0.14540336514E+03 -0.47107324131E+02 -0.48749482842E+03  0.51765173696E+03  0.83371904495E+02 0.  0.
          5    1    5    5  501    0  0.30545904597E+02  0.11558309857E+02 -0.15707004909E+03  0.16049840228E+03  0.47000000000E+01 0. -1.
        -13    1    6    6    0    0  0.10824627058E+02 -0.99270906924E+00 -0.39235077761E+02  0.40713012037E+02  0.00000000000E+00 0.  1.
         14    1    6    6    0    0 -0.15622799220E+03 -0.46114615061E+02 -0.44825975066E+03  0.47693872492E+03  0.00000000000E+00 0. -1.
         -5    1    3    3    0  503  0.74708302184E+02 -0.43125295815E+02 -0.39762072300E+03  0.40689734689E+03  0.47000000000E+01 0.  1.
         13    1    4    4    0    0  0.26371203376E+02  0.40090044575E+02 -0.31934158819E+03  0.32292677496E+03  0.00000000000E+00 0. -1.
        -14    1    4    4    0    0  0.13777954987E+02  0.38584265514E+02 -0.47086968549E+02  0.62416025154E+02  0.00000000000E+00 0.  1.
</event>
<event>
12    1  0.8133506E-002  0.2543701E+03  0.7818608E-02  0.1110816E+00
         21   -1    0    0  503  502  0.00000000000E+00  0.00000000000E+00  0.77230994866E+03  0.77230994866E+03  0.00000000000E+00 0.  1.
         21   -1    0    0  501  503 -0.00000000000E+00 -0.00000000000E+00 -0.84785694529E+02  0.84785694529E+02  0.00000000000E+00 0.  1.
          6    2    1    2  501    0 -0.12235751474E+03  0.14301619321E+03  0.28741347236E+03  0.38381071234E+03  0.17111155974E+03 0.  0.
         24    2    3    3    0    0 -0.11379605354E+03  0.13750204394E+03  0.30842988473E+03  0.35998878864E+03  0.51054679115E+02 0.  0.
         -6    2    1    2    0  502  0.12235751474E+03 -0.14301619321E+03  0.40011078177E+03  0.47328493085E+03  0.16877498378E+03 0.  0.
        -24    2    5    5    0    0  0.17899083265E+02 -0.69874894156E+01  0.12738690381E+03  0.15108037506E+03  0.78921823832E+02 0.  0.
          5    1    3    3  501    0 -0.85614611936E+01  0.55141492689E+01 -0.21016412370E+02  0.23821923701E+02  0.47000000000E+01 0. -1.
        -13    1    4    4    0    0 -0.74766438165E+02  0.54848219099E+02  0.13240007796E+03  0.16164197493E+03  0.00000000000E+00 0.  1.
         14    1    4    4    0    0 -0.39029615378E+02  0.82653824840E+02  0.17602980677E+03  0.19834681371E+03  0.00000000000E+00 0. -1.
         -5    1    5    5    0  502  0.10445843147E+03 -0.13602870379E+03  0.27272387796E+03  0.32220455579E+03  0.47000000000E+01 0.  1.
         13    1    6    6    0    0 -0.31304798681E+02 -0.24755287988E+01  0.57075462876E+02  0.65143895538E+02  0.00000000000E+00 0. -1.
        -14    1    6    6    0    0  0.49203881946E+02 -0.45119606168E+01  0.70311440932E+02  0.85936479525E+02  0.00000000000E+00 0.  1.
</event>
<event>
12    1  0.8133506E-002  0.2067249E+03  0.7818608E-02  0.1144401E+00
         21   -1    0    0  501  502  0.00000000000E+00  0.00000000000E+00  0.16276709922E+03  0.16276709922E+03  0.00000000000E+00 0.  1.
         21   -1    0    0  502  503 -0.00000000000E+00 -0.00000000000E+00 -0.71340048665E+03  0.71340048665E+03  0.00000000000E+00 0.  1.
         -6    2    1    2    0  503  0.72321736750E+02 -0.87850897361E+02 -0.62383698812E+03  0.65686426569E+03  0.17131801430E+03 0.  0.
        -24    2    3    3    0    0 -0.17991857428E+02 -0.72406271364E+02 -0.32042722612E+03  0.33988689199E+03  0.85341180203E+02 0.  0.
          6    2    1    2  501    0 -0.72321736750E+02  0.87850897361E+02  0.73203600688E+02  0.21930332018E+03  0.17258900694E+03 0.  0.
         24    2    5    5    0    0  0.20129516646E+02  0.42600675551E+02  0.64554002350E+02  0.11590253499E+03  0.83941428383E+02 0.  0.
          5    1    5    5  501    0 -0.92451253395E+02  0.45250221810E+02  0.86495983384E+01  0.10340078520E+03  0.47000000000E+01 0. -1.
        -11    1    6    6    0    0 -0.11197244291E+02  0.33045869824E+01  0.64601229955E+02  0.65647676932E+02  0.00000000000E+00 0.  1.
         12    1    6    6    0    0  0.31326760936E+02  0.39296088569E+02 -0.47227605248E-01  0.50254858054E+02  0.00000000000E+00 0. -1.
         -5    1    3    3    0  503  0.90313594178E+02 -0.15444625998E+02 -0.30340976200E+03  0.31697737370E+03  0.47000000000E+01 0.  1.
         13    1    4    4    0    0 -0.84248866843E+01 -0.19574542223E+02 -0.25204953004E+03  0.25294882291E+03  0.00000000000E+00 0. -1.
        -14    1    4    4    0    0 -0.95669707439E+01 -0.52831729140E+02 -0.68377696079E+02  0.86938069074E+02  0.00000000000E+00 0.  1.
</event>
<event>
12    1  0.8133506E-002  0.1866505E+03  0.7818608E-02  0.1161629E+00
         21   -1    0    0  501  502  0.00000000000E+00  0.00000000000E+00  0.19289003454E+03  0.19289003454E+03  0.00000000000E+00 0. -1.
         21   -1    0    0  502  503 -0.00000000000E+00 -0.00000000000E+00 -0.18862778601E+03  0.18862778601E+03  0.00000000000E+00 0. -1.
         -6    2    1    2    0  503 -0.64464325842E+02 -0.31283856044E+02 -0.38314949187E+02  0.19054251112E+03  0.17234872863E+03 0.  0.
        -24    2    3    3    0    0 -0.33299526126E+02  0.27899088063E+02 -0.71878178712E+02  0.11555953979E+03  0.79374536885E+02 0.  0.
          6    2    1    2  501    0  0.64464325842E+02  0.31283856044E+02  0.42577197712E+02  0.19097530942E+03  0.17182672111E+03 0.  0.
         24    2    5    5    0    0  0.33698997978E+02 -0.40862353776E+02 -0.91380568613E+01  0.96910764849E+02  0.80640175096E+02 0.  0.
          5    1    5    5  501    0  0.30765327864E+02  0.72146209821E+02  0.51715254573E+02  0.94064544573E+02  0.47000000000E+01 0. -1.
        -11    1    6    6    0    0 -0.18398201462E+02  0.92259127154E+00 -0.22214346333E+02  0.28858658574E+02  0.00000000000E+00 0.  1.
         12    1    6    6    0    0  0.52097199440E+02 -0.41784945048E+02  0.13076289472E+02  0.68052106275E+02  0.00000000000E+00 0. -1.
         -5    1    3    3    0  503 -0.31164799716E+02 -0.59182944108E+02  0.33563229525E+02  0.74982971338E+02  0.47000000000E+01 0.  1.
         13    1    4    4    0    0 -0.42991258393E+02 -0.13391777848E+02 -0.22090382233E+02  0.50155488228E+02  0.00000000000E+00 0. -1.
        -14    1    4    4    0    0  0.96917322674E+01  0.41290865911E+02 -0.49787796478E+02  0.65404051558E+02  0.00000000000E+00 0.  1.
</event>
<event>
12    1  0.8133506E-002  0.1806693E+03  0.7818608E-02  0.1167318E+00
         21   -1    0    0  503  502  0.00000000000E+00  0.00000000000E+00  0.65300230587E+03  0.65300230587E+03  0.00000000000E+00 0. -1.
         21   -1    0    0  501  503 -0.00000000000E+00 -0.00000000000E+00 -0.51350684204E+02  0.51350684204E+02  0.00000000000E+00 0. -1.
          6    2    1    2  501    0 -0.28623762177E+02  0.48940465896E+02  0.36252818714E+03  0.40505317480E+03  0.17154270309E+03 0.  0.
         24    2    3    3    0    0 -0.55008534870E+02 -0.25564081802E+02  0.24088829982E+03  0.25991380714E+03  0.76475832556E+02 0.  0.
         -6    2    1    2    0  502  0.28623762177E+02 -0.48940465896E+02  0.23912343452E+03  0.29929981527E+03  0.17083873542E+03 0.  0.
        -24    2    5    5    0    0  0.61088992503E+02  0.20923849962E+02  0.13630404628E+03  0.17073492734E+03  0.80012185812E+02 0.  0.
          5    1    3    3  501    0  0.26384772692E+02  0.74504547698E+02  0.12163988732E+03  0.14513936766E+03  0.47000000000E+01 0. -1.
        -11    1    4    4    0    0 -0.28967903699E+01 -0.31663205309E+02  0.34313018196E+02  0.46779623583E+02  0.00000000000E+00 0.  1.
         12    1    4    4    0    0 -0.52111744500E+02  0.60991235072E+01  0.20657528163E+03  0.21313418356E+03  0.00000000000E+00 0. -1.
         -5    1    5    5    0  502 -0.32465230326E+02 -0.69864315858E+02  0.10281938823E+03  0.12856488793E+03  0.47000000000E+01 0.  1.
         11    1    6    6    0    0  0.29927911399E+02 -0.10308558828E+02  0.47850337233E+01  0.32013166253E+02  0.00000000000E+00 0. -1.
        -12    1    6    6    0    0  0.31161081104E+02  0.31232408790E+02  0.13151901256E+03  0.13872176109E+03  0.00000000000E+00 0.  1.
</event>
<event>
12    1  0.8133506E-002  0.1949707E+03  0.7818608E-02  0.1154306E+00
         21   -1    0    0  501  502  0.00000000000E+00  0.00000000000E+00  0.26291830749E+03  0.26291830749E+03  0.00000000000E+00 0.  1.
         21   -1    0    0  502  503 -0.00000000000E+00 -0.00000000000E+00 -0.15353611335E+03  0.15353611335E+03  0.00000000000E+00 0.  1.
         -6    2    1    2    0  503 -0.85558068763E+02  0.28009264912E+02  0.22126701873E+01  0.19498330010E+03  0.17294186698E+03 0.  0.
        -24    2    3    3    0    0 -0.35928680886E+02  0.68093111698E+02  0.41592188944E+02  0.11986587594E+03  0.81916885091E+02 0.  0.
          6    2    1    2  501    0  0.85558068763E+02 -0.28009264912E+02  0.10716952395E+03  0.22147112075E+03  0.17163754953E+03 0.  0.
         24    2    5    5    0    0  0.80757123227E+02 -0.23074897984E+02  0.14298925561E+03  0.18469422269E+03  0.81313374097E+02 0.  0.
          5    1    5    5  501    0  0.48009455365E+01 -0.49343669289E+01 -0.35819731653E+02  0.36776898057E+02  0.47000000000E+01 0. -1.
        -13    1    6    6    0    0  0.91505720880E+02 -0.33169812353E+01  0.12904338619E+03  0.15822924773E+03  0.00000000000E+00 0.  1.
         14    1    6    6    0    0 -0.10748597653E+02 -0.19757916748E+02  0.13945869416E+02  0.26464974957E+02  0.00000000000E+00 0. -1.
         -5    1    3    3    0  503 -0.49629387877E+02 -0.40083846785E+02 -0.39379518756E+02  0.75117424155E+02  0.47000000000E+01 0.  1.
         11    1    4    4    0    0 -0.18982585364E+02  0.84024488145E+02  0.20683399514E+02  0.88590384188E+02  0.00000000000E+00 0. -1.
        -12    1    4    4    0    0 -0.16946095522E+02 -0.15931376447E+02  0.20908789429E+02  0.31275491752E+02  0.00000000000E+00 0.  1.
</event>
<event>
12    1  0.8133506E-002  0.2221163E+03  0.7818608E-02  0.1135394E+00
         21   -1    0    0  501  502  0.00000000000E+00  0.00000000000E+00  0.10173402372E+03  0.10173402372E+03  0.00000000000E+00 0. -1.
         21   -1    0    0  502  503 -0.00000000000E+00 -0.00000000000E+00 -0.57479717933E+03  0.57479717933E+03  0.00000000000E+00 0. -1.
         -6    2    1    2    0  503  0.11210685880E+03 -0.56097915772E+01 -0.40070160210E+03  0.45814563074E+03  0.19166697026E+03 0.  0.
        -24    2    3    3    0    0  0.74659232463E+02  0.68950290507E+02 -0.30328667182E+03  0.32979731871E+03  0.80345022088E+02 0.  0.
          6    2    1    2  501    0 -0.11210685880E+03  0.56097915772E+01 -0.72361553512E+02  0.21838557231E+03  0.17279075847E+03 0.  0.
         24    2    5    5    0    0 -0.58210517576E+02  0.48222078420E+02 -0.96081141915E+02  0.14554786599E+03  0.78985835813E+02 0.  0.
          5    1    5    5  501    0 -0.53896341224E+02 -0.42612286842E+02  0.23719588403E+02  0.72837706315E+02  0.47000000000E+01 0. -1.
        -13    1    6    6    0    0  0.11480165412E+02 -0.10114378823E+02 -0.32644238356E+01  0.15644530029E+02  0.00000000000E+00 0.  1.
         14    1    6    6    0    0 -0.69690682988E+02  0.58336457242E+02 -0.92816718079E+02  0.12990333596E+03  0.00000000000E+00 0. -1.
         -5    1    3    3    0  503  0.37447626337E+02 -0.74560082084E+02 -0.97414930279E+02  0.12834831203E+03  0.47000000000E+01 0.  1.
         11    1    4    4    0    0  0.81695056835E+02  0.35298694267E+02 -0.25814562875E+03  0.27305538956E+03  0.00000000000E+00 0. -1.
        -12    1    4    4    0    0 -0.70358243717E+01  0.33651596240E+02 -0.45141043075E+02  0.56741929152E+02  0.00000000000E+00 0.  1.
</event>
<event>
12    1  0.8133506E-002  0.2199775E+03  0.7818608E-02  0.1135469E+00
         21   -1    0    0  503  502  0.00000000000E+00  0.00000000000E+00  0.79111559446E+02  0.79111559446E+02  0.00000000000E+00 0. -1.
         21   -1    0    0  501  503 -0.00000000000E+00 -0.00000000000E+00 -0.65053860347E+03  0.65053860347E+03  0.00000000000E+00 0.  1.
          6    2    1    2  501    0 -0.72714005962E+02  0.11702366956E+03 -0.40289606591E+03  0.45903742695E+03  0.17148834802E+03 0.  0.
         24    2    3    3    0    0 -0.84703523117E+02  0.50125318182E+02 -0.35317120361E+03  0.37469414108E+03  0.77321186950E+02 0.  0.
         -6    2    1    2    0  502  0.72714005962E+02 -0.11702366956E+03 -0.16853097811E+03  0.27061273597E+03  0.16076907783E+03 0.  0.
        -24    2    5    5    0    0  0.10804113540E+02 -0.59693195958E+02 -0.23616396870E+02  0.10285712849E+03  0.79635721684E+02 0.  0.
          5    1    3    3  501    0  0.11989517155E+02  0.66898351381E+02 -0.49724862308E+02  0.84343285866E+02  0.47000000000E+01 0. -1.
        -11    1    4    4    0    0 -0.94409612589E+02  0.59117538050E+02 -0.30368775895E+03  0.32347227576E+03  0.00000000000E+00 0.  1.
         12    1    4    4    0    0  0.97060894717E+01 -0.89922198673E+01 -0.49483444660E+02  0.51221865315E+02  0.00000000000E+00 0. -1.
         -5    1    5    5    0  502  0.61909892422E+02 -0.57330473605E+02 -0.14491458124E+03  0.16775560748E+03  0.47000000000E+01 0.  1.
         11    1    6    6    0    0  0.22931090202E+01  0.79788816594E+00  0.24794695545E+02  0.24913287653E+02  0.00000000000E+00 0. -1.
        -12    1    6    6    0    0  0.85110045201E+01 -0.60491084124E+02 -0.48411092415E+02  0.77943840842E+02  0.00000000000E+00 0.  1.
</event>
<event>
12    1  0.8133506E-002  0.1881487E+03  0.7818608E-02  0.1161066E+00
         21   -1    0    0  503  502  0.00000000000E+00  0.00000000000E+00  0.31260545888E+03  0.31260545888E+03  0.00000000000E+00 0.  1.
         21   -1    0    0  501  503 -0.00000000000E+00 -0.00000000000E+00 -0.17848112070E+03  0.17848112070E+03  0.00000000000E+00 0.  1.
          6    2    1    2  501    0 -0.54484857333E+02  0.40591051089E+02 -0.83637066239E+02  0.20590068048E+03  0.17545283773E+03 0.  0.
         24    2    3    3    0    0  0.52891064349E+01  0.12144705891E+02 -0.10835969825E+03  0.13508105161E+03  0.79558769287E+02 0.  0.
         -6    2    1    2    0  502  0.54484857333E+02 -0.40591051089E+02  0.21776140441E+03  0.28518589910E+03  0.17115704684E+03 0.  0.
        -24    2    5    5    0    0  0.23006430097E+02 -0.33348885209E+02  0.30719945998E+02  0.95317688187E+02  0.80624454285E+02 0.  0.
          5    1    3    3  501    0 -0.59773963768E+02  0.28446345198E+02  0.24722632016E+02  0.70819628871E+02  0.47000000000E+01 0. -1.
        -11    1    4    4    0    0  0.14393389170E+02 -0.31889962327E+02 -0.38722250906E+02  0.52187661993E+02  0.00000000000E+00 0.  1.
         12    1    4    4    0    0 -0.91042827355E+01  0.44034668218E+02 -0.69637447349E+02  0.82893389619E+02  0.00000000000E+00 0. -1.
         -5    1    5    5    0  502  0.31478427236E+02 -0.72421658797E+01  0.18704145841E+03  0.18986821091E+03  0.47000000000E+01 0.  1.
         13    1    6    6    0    0  0.42770255481E+01 -0.50588824669E+02 -0.54791332080E+01  0.51064107058E+02  0.00000000000E+00 0. -1.
        -14    1    6    6    0    0  0.18729404549E+02  0.17239939460E+02  0.36199079206E+02  0.44253581129E+02  0.00000000000E+00 0.  1.
</event>
<event>
12    1  0.8133506E-002  0.1968097E+03  0.7818608E-02  0.1153011E+00
         21   -1    0    0  503  502  0.00000000000E+00  0.00000000000E+00  0.24208174496E+03  0.24208174496E+03  0.00000000000E+00 0.  1.
         21   -1    0    0  501  503 -0.00000000000E+00 -0.00000000000E+00 -0.16043764680E+03  0.16043764680E+03  0.00000000000E+00 0.  1.
          6    2    1    2  501    0 -0.93693156917E+02  0.15174265999E+02  0.15979699636E+02  0.19745731360E+03  0.17241048080E+03 0.  0.
         24    2    3    3    0    0 -0.34670153489E+02 -0.15896312798E+02  0.69266698226E+02  0.11195474042E+03  0.79254502185E+02 0.  0.
         -6    2    1    2    0  502  0.93693156917E+02 -0.15174265999E+02  0.65664398527E+02  0.20506207816E+03  0.16949919369E+03 0.  0.
        -24    2    5    5    0    0  0.26640112679E+02  0.42151328881E+02 -0.16711172333E+01  0.93983294167E+02  0.79646951100E+02 0.  0.
          5    1    3    3  501    0 -0.59023003428E+02  0.31070578797E+02 -0.53286998590E+02  0.85502573173E+02  0.47000000000E+01 0. -1.
        -13    1    4    4    0    0 -0.38712548640E+02  0.20980399372E+02  0.58704262564E+02  0.73382756988E+02  0.00000000000E+00 0.  1.
         14    1    4    4    0    0  0.40423951508E+01 -0.36876712170E+02  0.10562435663E+02  0.38571983436E+02  0.00000000000E+00 0. -1.
         -5    1    5    5    0  502  0.67053044238E+02 -0.57325594880E+02  0.67335515761E+02  0.11107878399E+03  0.47000000000E+01 0.  1.
         13    1    6    6    0    0 -0.21272066971E+02  0.32874785817E+01 -0.20251049268E+02  0.29553567384E+02  0.00000000000E+00 0. -1.
        -14    1    6    6    0    0  0.47912179650E+02  0.38863850299E+02  0.18579932034E+02  0.64429726783E+02  0.00000000000E+00 0.  1.
</event>
<event>
12    1  0.8133506E-002  0.2183590E+03  0.7818608E-02  0.1135719E+00
         21   -1    0    0  501  502  0.00000000000E+00  0.00000000000E+00  0.41156232085E+02  0.41156232085E+02  0.00000000000E+00 0. -1.
         21   -1    0    0  502  503 -0.00000000000E+00 -0.00000000000E+00 -0.16555075771E+04  0.16555075771E+04  0.00000000000E+00 0.  1.
         -6    2    1    2    0  503 -0.11433543329E+03  0.56849502197E+02 -0.12757043559E+04  0.12937215702E+04  0.17317459539E+03 0.  0.
        -24    2    3    3    0    0 -0.69752554813E+02  0.40752738138E+02 -0.37491335182E+03  0.39167209163E+03  0.79503467974E+02 0.  0.
          6    2    1    2  501    0  0.11433543329E+03 -0.56849502197E+02 -0.33864698917E+03  0.40294223898E+03  0.17713330425E+03 0.  0.
         24    2    5    5    0    0  0.14055871587E+03 -0.43825125980E+02 -0.33295167705E+03  0.37274585666E+03  0.80032869064E+02 0.  0.
          5    1    5    5  501    0 -0.26223282582E+02 -0.13024376217E+02 -0.56953121219E+01  0.30196382323E+02  0.47000000000E+01 0. -1.
        -13    1    6    6    0    0  0.99335275425E+02 -0.50965820735E+02 -0.29800694513E+03  0.31823442801E+03  0.00000000000E+00 0.  1.
         14    1    6    6    0    0  0.41223440449E+02  0.71406947546E+01 -0.34944731918E+02  0.54511428645E+02  0.00000000000E+00 0. -1.
         -5    1    3    3    0  503 -0.44582878479E+02  0.16096764058E+02 -0.90079100407E+03  0.90204947862E+03  0.47000000000E+01 0.  1.
         13    1    4    4    0    0 -0.86579358968E+02  0.24829970493E+02 -0.29107199310E+03  0.30468905133E+03  0.00000000000E+00 0. -1.
        -14    1    4    4    0    0  0.16826804154E+02  0.15922767645E+02 -0.83841358726E+02  0.86983040304E+02  0.00000000000E+00 0.  1.
</event>
<event>
12    1  0.8133506E-002  0.2492705E+03  0.7818608E-02  0.1113786E+00
         21   -1    0    0  501  502  0.00000000000E+00  0.00000000000E+00  0.12530993111E+03  0.12530993111E+03  0.00000000000E+00 0. -1.
         21   -1    0    0  502  503 -0.00000000000E+00 -0.00000000000E+00 -0.78518847048E+03  0.78518847048E+03  0.00000000000E+00 0.  1.
         -6    2    1    2    0  503 -0.16659132928E+03 -0.69802219529E+02 -0.60645806456E+03  0.65568829625E+03  0.17178689389E+03 0.  0.
        -24    2    3    3    0    0 -0.19342442787E+02 -0.49260347400E+02 -0.17849443170E+03  0.20261085900E+03  0.79938639708E+02 0.  0.
          6    2    1    2  501    0  0.16659132928E+03  0.69802219529E+02 -0.53420474805E+02  0.25481010535E+03  0.17160833842E+03 0.  0.
         24    2    5    5    0    0  0.16615851629E+03  0.10550427790E+03 -0.40596280032E+02  0.21658218008E+03  0.80746378152E+02 0.  0.
          5    1    5    5  501    0  0.43281299619E+00 -0.35702058370E+02 -0.12824194773E+02  0.38227925271E+02  0.47000000000E+01 0. -1.
        -11    1    6    6    0    0  0.12179485412E+03  0.51712929386E+02 -0.58379015836E+02  0.14462476636E+03  0.00000000000E+00 0.  1.
         12    1    6    6    0    0  0.44363662172E+02  0.53791348512E+02  0.17782735805E+02  0.71957413717E+02  0.00000000000E+00 0. -1.
         -5    1    3    3    0  503 -0.14724888650E+03 -0.20541872129E+02 -0.42796363286E+03  0.45307743724E+03  0.47000000000E+01 0.  1.
         13    1    4    4    0    0 -0.58255161562E+01 -0.60678841546E+02 -0.17397968184E+03  0.18434963559E+03  0.00000000000E+00 0. -1.
        -14    1    4    4    0    0 -0.13516926631E+02  0.11418494145E+02 -0.45147498600E+01  0.18261223409E+02  0.00000000000E+00 0.  1.
</event>
<event>
12    1  0.8133506E-002  0.1988407E+03  0.7818608E-02  0.1152635E+00
         21   -1    0    0  503  502  0.00000000000E+00  0.00000000000E+00  0.34224522750E+03  0.34224522750E+03  0.00000000000E+00 0.  1.
         21   -1    0    0  501  503 -0.00000000000E+00 -0.00000000000E+00 -0.11135180862E+03  0.11135180862E+03  0.00000000000E+00 0. -1.
          6    2    1    2  501    0  0.94422034976E+02  0.40019159225E+02  0.97894841361E+02  0.22163260418E+03  0.17035421180E+03 0.  0.
         24    2    3    3    0    0  0.16137580050E+01  0.58752562345E+01  0.88636453587E+02  0.12219925902E+03  0.83899434740E+02 0.  0.
         -6    2    1    2    0  502 -0.94422034976E+02 -0.40019159225E+02  0.13299857752E+03  0.23196443194E+03  0.16000569449E+03 0.  0.
        -24    2    5    5    0    0 -0.27902774991E+01  0.58974834552E+01  0.22623986140E+02  0.81268189535E+02  0.77782439675E+02 0.  0.
          5    1    3    3  501    0  0.92808276971E+02  0.34143902991E+02  0.92583877744E+01  0.99433345162E+02  0.47000000000E+01 0. -1.
        -13    1    4    4    0    0 -0.11963686961E+01  0.20389217246E+02  0.10092772012E+03  0.10297357023E+03  0.00000000000E+00 0.  1.
         14    1    4    4    0    0  0.28101267011E+01 -0.14513961012E+02 -0.12291266533E+02  0.19225688786E+02  0.00000000000E+00 0. -1.
         -5    1    5    5    0  502 -0.91631757477E+02 -0.45916642680E+02  0.11037459138E+03  0.15069624241E+03  0.47000000000E+01 0.  1.
         13    1    6    6    0    0 -0.14620754938E+01 -0.32443897515E+02  0.27550964075E+02  0.42588728229E+02  0.00000000000E+00 0. -1.
        -14    1    6    6    0    0 -0.13282020053E+01  0.38341380970E+02 -0.49269779349E+01  0.38679461305E+02  0.00000000000E+00 0.  1.
</event>
<event>
12    1  0.8133506E-002  0.1949433E+03  0.7818608E-02  0.1154522E+00
         21   -1    0    0  501  502  0.00000000000E+00  0.00000000000E+00  0.14096505788E+03  0.14096505788E+03  0.00000000000E+00 0. -1.
         21   -1    0    0  502  503 -0.00000000000E+00 -0.00000000000E+00 -0.87177236306E+03  0.87177236306E+03  0.00000000000E+00 0. -1.
         -6    2    1    2    0  503  0.33886312258E+02 -0.82033082681E+02 -0.78781697221E+03  0.81157775854E+03  0.17356603250E+03 0.  0.
        -24    2    3    3    0    0  0.29037379820E+02 -0.29269114663E+02 -0.18149399143E+03  0.20292580916E+03  0.80863864584E+02 0.  0.
          6    2    1    2  501    0 -0.33886312258E+02  0.82033082681E+02  0.57009667028E+02  0.20115966240E+03  0.17128163600E+03 0.  0.
         24    2    5    5    0    0 -0.70447250802E+02  0.95129461265E+02  0.69446991427E+02  0.16011097914E+03  0.82463394767E+02 0.  0.
          5    1    5    5  501    0  0.36560938544E+02 -0.13096378585E+02 -0.12437324399E+02  0.41048683261E+02  0.47000000000E+01 0. -1.
        -13    1    6    6    0    0 -0.27213293070E+02 -0.10587922488E+02  0.21388791880E+02  0.36195964422E+02  0.00000000000E+00 0.  1.
         14    1    6    6    0    0 -0.43233957731E+02  0.10571738375E+03  0.48058199547E+02  0.12391501472E+03  0.00000000000E+00 0. -1.
         -5    1    3    3    0  503  0.48489324378E+01 -0.52763968018E+02 -0.60632298078E+03  0.60865194938E+03  0.47000000000E+01 0.  1.
         13    1    4    4    0    0  0.39918224726E+02  0.16818752661E+02 -0.82044673402E+02  0.92777494793E+02  0.00000000000E+00 0. -1.
        -14    1    4    4    0    0 -0.10880844906E+02 -0.46087867324E+02 -0.99449318031E+02  0.11014831436E+03  0.00000000000E+00 0.  1.
</event>
<event>
12    1  0.8133506E-002  0.2173802E+03  0.7818608E-02  0.1135987E+00
         21   -1    0    0  503  502  0.00000000000E+00  0.00000000000E+00  0.64136129141E+03  0.64136129141E+03  0.00000000000E+00 0.  1.
         21   -1    0    0  501  503 -0.00000000000E+00 -0.00000000000E+00 -0.73443679738E+02  0.73443679738E+02  0.00000000000E+00 0. -1.
          6    2    1    2  501    0  0.63495519513E+02 -0.11867561482E+03  0.28079693139E+03  0.35510714827E+03  0.17070028565E+03 0.  0.
         24    2    3    3    0    0  0.65732296133E+02 -0.93206719968E+02  0.97214509899E+02  0.16969338595E+03  0.79605005496E+02 0.  0.
         -6    2    1    2    0  502 -0.63495519513E+02  0.11867561482E+03  0.28712068028E+03  0.35969782288E+03  0.16979003560E+03 0.  0.
        -24    2    5    5    0    0 -0.49604959800E+02 -0.48857355328E+00  0.10595619693E+03  0.14236004093E+03  0.81109647038E+02 0.  0.
          5    1    3    3  501    0 -0.22367766200E+01 -0.25468894849E+02  0.18358242149E+03  0.18541376231E+03  0.47000000000E+01 0. -1.
        -13    1    4    4    0    0  0.31458875753E+02 -0.30191196258E+00  0.52131402496E+02  0.60888711110E+02  0.00000000000E+00 0.  1.
         14    1    4    4    0    0  0.34273420380E+02 -0.92904808005E+02  0.45083107403E+02  0.10880467485E+03  0.00000000000E+00 0. -1.
         -5    1    5    5    0  502 -0.13890559713E+02  0.11916418837E+03  0.18116448335E+03  0.21733778196E+03  0.47000000000E+01 0.  1.
         13    1    6    6    0    0 -0.41869949524E+02 -0.11397076876E+02  0.87859068568E+01  0.44273899690E+02  0.00000000000E+00 0. -1.
        -14    1    6    6    0    0 -0.77350102763E+01  0.10908503323E+02  0.97170290078E+02  0.98086141236E+02  0.00000000000E+00 0.  1.
</event>
<event>
12    1  0.8133506E-002  0.1965909E+03  0.7818608E-02  0.1153414E+00
         21   -1    0    0  501  502  0.00000000000E+00  0.00000000000E+00  0.16610685299E+03  0.16610685299E+03  0.00000000000E+00 0.  1.
         21   -1    0    0  502  503 -0.00000000000E+00 -0.00000000000E+00 -0.22899138773E+03  0.22899138773E+03  0.00000000000E+00 0.  1.
         -6    2    1    2    0  503 -0.95657475610E+02  0.13617191253E+01 -0.40645908221E+02  0.20074879431E+03  0.17174335983E+03 0.  0.
        -24    2    3    3    0    0 -0.53841039961E+02 -0.31637753801E+02 -0.84236044620E+02  0.13175771159E+03  0.79778307211E+02 0.  0.
          6    2    1    2  501    0  0.95657475610E+02 -0.13617191253E+01 -0.22238626521E+02  0.19434944640E+03  0.16770493101E+03 0.  0.
         24    2    5    5    0    0  0.12053475197E+03  0.29750451901E+02 -0.36897910541E+02  0.15164311580E+03  0.78869911555E+02 0.  0.
          5    1    5    5  501    0 -0.24877276356E+02 -0.31112171026E+02  0.14659284020E+02  0.42706330595E+02  0.47000000000E+01 0. -1.
        -13    1    6    6    0    0  0.72926827572E+02  0.44569037635E+02  0.62624125055E+01  0.85696785855E+02  0.00000000000E+00 0.  1.
         14    1    6    6    0    0  0.47607924394E+02 -0.14818585734E+02 -0.43160323047E+02  0.65946329949E+02  0.00000000000E+00 0. -1.
         -5    1    3    3    0  503 -0.41816435649E+02  0.32999472926E+02  0.43590136399E+02  0.68991082721E+02  0.47000000000E+01 0.  1.
         11    1    4    4    0    0  0.55844670328E+01 -0.40763857408E+02 -0.32271662481E+02  0.52290903053E+02  0.00000000000E+00 0. -1.
        -12    1    4    4    0    0 -0.59425506993E+02  0.91261036074E+01 -0.51964382139E+02  0.79466808540E+02  0.00000000000E+00 0.  1.
</event>
<event>
12    1  0.8133506E-002  0.2401271E+03  0.7818608E-02  0.1119989E+00
         21   -1    0    0  503  502  0.00000000000E+00  0.00000000000E+00  0.38470115873E+03  0.38470115873E+03  0.00000000000E+00 0. -1.
         21   -1    0    0  501  503 -0.00000000000E+00 -0.00000000000E+00 -0.18402823270E+03  0.18402823270E+03  0.00000000000E+00 0.  1.
          6    2    1    2  501    0  0.11391250482E+03  0.11516693424E+03 -0.23728992435E+02  0.24129663445E+03  0.17726116105E+03 0.  0.
         24    2    3    3    0    0  0.13922438185E+03  0.50379494928E+02 -0.52213600940E+01  0.16916671093E+03  0.81661444221E+02 0.  0.
         -6    2    1    2    0  502 -0.11391250482E+03 -0.11516693424E+03  0.22440191847E+03  0.32743275698E+03  0.17497573499E+03 0.  0.
        -24    2    5    5    0    0 -0.82031555569E+02 -0.13224373849E+03  0.10809973778E+03  0.20554633690E+03  0.79662794475E+02 0.  0.
          5    1    3    3  501    0 -0.25311877038E+02  0.64787439316E+02 -0.18507632341E+02  0.72129923521E+02  0.47000000000E+01 0. -1.
        -13    1    4    4    0    0  0.13831341606E+02 -0.12911329417E+01 -0.28365402614E+02  0.31584317316E+02  0.00000000000E+00 0.  1.
         14    1    4    4    0    0  0.12539304025E+03  0.51670627870E+02  0.23144042520E+02  0.13758239361E+03  0.00000000000E+00 0. -1.
         -5    1    5    5    0  502 -0.31880949246E+02  0.17076804250E+02  0.11630218069E+03  0.12188642009E+03  0.47000000000E+01 0.  1.
         11    1    6    6    0    0 -0.93706522075E+02 -0.86345590446E+02  0.80816416197E+02  0.15088991482E+03  0.00000000000E+00 0. -1.
        -12    1    6    6    0    0  0.11674966505E+02 -0.45898148048E+02  0.27283321580E+02  0.54656422071E+02  0.00000000000E+00 0.  1.
</event>
<event>
12    1  0.8133506E-002  0.1858899E+03  0.7818608E-02  0.1162678E+00
         21   -1    0    0  503  502  0.00000000000E+00  0.00000000000E+00  0.45854389415E+03  0.45854389415E+03  0.00000000000E+00 0. -1.
         21   -1    0    0  501  503 -0.00000000000E+00 -0.00000000000E+00 -0.76512203870E+02  0.76512203870E+02  0.00000000000E+00 0. -1.
          6    2    1    2  501    0  0.45133277393E+02  0.47832292362E+02  0.14737488103E+03  0.23569199140E+03  0.17177432384E+03 0.  0.
         24    2    3    3    0    0 -0.84842893319E+01  0.73510211930E+02  0.13762886966E+03  0.17526622080E+03  0.79377628889E+02 0.  0.
         -6    2    1    2    0  502 -0.45133277393E+02 -0.47832292362E+02  0.23465680926E+03  0.29936410662E+03  0.17386808011E+03 0.  0.
        -24    2    5    5    0    0  0.10687370241E+02 -0.67517662242E+02  0.21108127487E+03  0.23547862853E+03  0.78879815510E+02 0.  0.
          5    1    3    3  501    0  0.53617566725E+02 -0.25677919568E+02  0.97460113716E+01  0.60425770599E+02  0.47000000000E+01 0. -1.
        -11    1    4    4    0    0  0.21672041700E+02  0.18077756944E+02  0.53758655564E+01  0.28729472986E+02  0.00000000000E+00 0.  1.
         12    1    4    4    0    0 -0.30156331032E+02  0.55432454986E+02  0.13225300410E+03  0.14653674782E+03  0.00000000000E+00 0. -1.
         -5    1    5    5    0  502 -0.55820647634E+02  0.19685369880E+02  0.23575534384E+02  0.63885478093E+02  0.47000000000E+01 0.  1.
         13    1    6    6    0    0  0.40829174738E+02 -0.15273882831E+02  0.77684216904E+02  0.89079462069E+02  0.00000000000E+00 0. -1.
        -14    1    6    6    0    0 -0.30141804497E+02 -0.52243779412E+02  0.13339705797E+03  0.14639916646E+03  0.00000000000E+00 0.  1.
</event>
<event>
12    1  0.8133506E-002  0.1753090E+03  0.7818608E-02  0.1172489E+00
         21   -1    0    0  501  502  0.00000000000E+00  0.00000000000E+00  0.80849567774E+03  0.80849567774E+03  0.00000000000E+00 0.  1.
         21   -1    0    0  502  503 -0.00000000000E+00 -0.00000000000E+00 -0.56738904321E+02  0.56738904321E+02  0.00000000000E+00 0.  1.
         -6    2    1    2    0  503  0.33408821993E+02 -0.99605755326E+01  0.12676239605E+03  0.21611886638E+03  0.17153220369E+03 0.  0.
        -24    2    3    3    0    0 -0.36312165089E+02 -0.17185903936E+02  0.25064459302E+02  0.92515542204E+02  0.79479367144E+02 0.  0.
          6    2    1    2  501    0 -0.33408821993E+02  0.99605755326E+01  0.62499437737E+03  0.64911571567E+03  0.17180767777E+03 0.  0.
         24    2    5    5    0    0  0.23909165502E+02  0.55663376191E+02  0.37090491187E+03  0.38462064171E+03  0.81807852493E+02 0.  0.
          5    1    5    5  501    0 -0.57317987495E+02 -0.45702800658E+02  0.25408946549E+03  0.26449507397E+03  0.47000000000E+01 0. -1.
        -13    1    6    6    0    0 -0.26897993766E+01  0.26383307439E+02  0.31511806370E+03  0.31623204772E+03  0.00000000000E+00 0.  1.
         14    1    6    6    0    0  0.26598964879E+02  0.29280068752E+02  0.55786848174E+02  0.68388593990E+02  0.00000000000E+00 0. -1.
         -5    1    3    3    0  503  0.69720987082E+02  0.72253284033E+01  0.10169793674E+03  0.12360332418E+03  0.47000000000E+01 0.  1.
         13    1    4    4    0    0 -0.41780457905E+02 -0.21359022268E+02  0.48861607290E+02  0.67744159615E+02  0.00000000000E+00 0. -1.
        -14    1    4    4    0    0  0.54682928160E+01  0.41731183319E+01 -0.23797147989E+02  0.24771382588E+02  0.00000000000E+00 0.  1.
</event>
<event>
12    1  0.8133506E-002  0.1973355E+03  0.7818608E-02  0.1152963E+00
         21   -1    0    0  501  502  0.00000000000E+00  0.00000000000E+00  0.85536201114E+02  0.85536201114E+02  0.00000000000E+00 0. -1.
         21   -1    0    0  502  503 -0.00000000000E+00 -0.00000000000E+00 -0.98458260907E+03  0.98458260907E+03  0.00000000000E+00 0.  1.
         -6    2    1    2    0  503 -0.18019931992E+02 -0.96983720326E+02 -0.84325963552E+03  0.86504937004E+03  0.16581025230E+03 0.  0.
        -24    2    3    3    0    0  0.42749355623E+02 -0.78139100421E+02 -0.66568253617E+03  0.67635983078E+03  0.79975967069E+02 0.  0.
          6    2    1    2  501    0  0.18019931992E+02  0.96983720326E+02 -0.55786772443E+02  0.20506944014E+03  0.17091153075E+03 0.  0.
         24    2    5    5    0    0  0.59971905323E+02  0.90773993296E+02 -0.80216354502E+02  0.15590214150E+03  0.77680543946E+02 0.  0.
          5    1    5    5  501    0 -0.41951973330E+02  0.62097270308E+01  0.24429582059E+02  0.49167298641E+02  0.47000000000E+01 0. -1.
        -11    1    6    6    0    0  0.18266644202E+02  0.37618255884E+01 -0.52192256590E+02  0.55424302162E+02  0.00000000000E+00 0.  1.
         12    1    6    6    0    0  0.41705261120E+02  0.87012167707E+02 -0.28024097912E+02  0.10047783934E+03  0.00000000000E+00 0. -1.
         -5    1    3    3    0  503 -0.60769287615E+02 -0.18844619906E+02 -0.17757709935E+03  0.18868953927E+03  0.47000000000E+01 0.  1.
         11    1    4    4    0    0  0.18905481682E+02 -0.38882187917E+02 -0.10167947083E+03  0.11048962197E+03  0.00000000000E+00 0. -1.
        -12    1    4    4    0    0  0.23843873941E+02 -0.39256912503E+02 -0.56400306534E+03  0.56587020881E+03  0.00000000000E+00 0.  1.
</event>
<event>
12    1  0.8133506E-002  0.1813418E+03  0.7818608E-02  0.1166648E+00
         21   -1    0    0  501  502  0.00000000000E+00  0.00000000000E+00  0.16049378087E+02  0.16049378087E+02  0.00000000000E+00 0. -1.
         21   -1    0    0  502  503 -0.00000000000E+00 -0.00000000000E+00 -0.20833786095E+04  0.20833786095E+04  0.00000000000E+00 0. -1.
         -6    2    1    2    0  503 -0.47841645111E+02  0.27284523443E+02 -0.88824916557E+03  0.90657125072E+03  0.17277611026E+03 0.  0.
        -24    2    3    3    0    0 -0.80787648797E+02  0.25099599071E+02 -0.38416871195E+03  0.40138870276E+03  0.79816397969E+02 0.  0.
          6    2    1    2  501    0  0.47841645111E+02 -0.27284523443E+02 -0.11790800659E+04  0.11928567369E+04  0.17217469264E+03 0.  0.
         24    2    5    5    0    0  0.19561628059E+02  0.51395609177E+02 -0.69181765226E+03  0.69845095987E+03  0.78726827891E+02 0.  0.
          5    1    5    5  501    0  0.28280017052E+02 -0.78680132620E+02 -0.48726241362E+03  0.49440577703E+03  0.47000000000E+01 0. -1.
        -13    1    6    6    0    0 -0.47470338255E+01  0.60848673712E+02 -0.32324207703E+03  0.32895369854E+03  0.00000000000E+00 0.  1.
         14    1    6    6    0    0  0.24308661885E+02 -0.94530645356E+01 -0.36857557523E+03  0.36949726133E+03  0.00000000000E+00 0. -1.
         -5    1    3    3    0  503  0.32946003685E+02  0.21849243720E+01 -0.50408045362E+03  0.50518254797E+03  0.47000000000E+01 0.  1.
         13    1    4    4    0    0 -0.26781091317E+02 -0.23860725210E+02 -0.20229440134E+03  0.20544971616E+03  0.00000000000E+00 0. -1.
        -14    1    4    4    0    0 -0.54006557479E+02  0.48960324281E+02 -0.18187431062E+03  0.19593898659E+03  0.00000000000E+00 0.  1.
</event>
<event>
12    1  0.8133506E-002  0.2592717E+03  0.7818608E-02  0.1107587E+00
         21   -1    0    0  501  502  0.00000000000E+00  0.00000000000E+00  0.10797505308E+04  0.10797505308E+04  0.00000000000E+00 0. -1.
         21   -1    0    0  502  503 -0.00000000000E+00 -0.00000000000E+00 -0.69878331614E+02  0.69878331614E+02  0.00000000000E+00 0.  1.
         -6    2    1    2    0  503 -0.17747284307E+03 -0.78480614502E+02  0.31502007762E+03  0.40799446513E+03  0.17194771703E+03 0.  0.
        -24    2    3    3    0    0 -0.12494264257E+03  0.17959620506E+02  0.18773037002E+03  0.23981331115E+03  0.79589700807E+02 0.  0.
          6    2    1    2  501    0  0.17747284307E+03  0.78480614502E+02  0.69485212159E+03  0.74163439732E+03  0.17189034737E+03 0.  0.
         24    2    5    5    0    0  0.11187678895E+03  0.11166253047E+03  0.56822669820E+03  0.59514218007E+03  0.79546824792E+02 0.  0.
          5    1    5    5  501    0  0.65596054124E+02 -0.33181915968E+02  0.12662542340E+03  0.14649221725E+03  0.47000000000E+01 0. -1.
        -13    1    6    6    0    0 -0.11365192382E+02  0.15091818257E+02  0.40712415018E+02  0.44882416521E+02  0.00000000000E+00 0.  1.
         14    1    6    6    0    0  0.12324198133E+03  0.96570712213E+02  0.52751428318E+03  0.55025976355E+03  0.00000000000E+00 0. -1.
         -5    1    3    3    0  503 -0.52530200502E+02 -0.96440235008E+02  0.12728970760E+03  0.16818115398E+03  0.47000000000E+01 0.  1.
         13    1    4    4    0    0 -0.34044530009E+02  0.34590036811E+02  0.30146835815E+02  0.57134336259E+02  0.00000000000E+00 0. -1.
        -14    1    4    4    0    0 -0.90898112559E+02 -0.16630416305E+02  0.15758353421E+03  0.18267897489E+03  0.00000000000E+00 0.  1.
</event>
<event>
12    1  0.8133506E-002  0.2684619E+03  0.7818608E-02  0.1102180E+00
         21   -1    0    0  503  502  0.00000000000E+00  0.00000000000E+00  0.13534564798E+03  0.13534564798E+03  0.00000000000E+00 0. -1.
         21   -1    0    0  501  503 -0.00000000000E+00 -0.00000000000E+00 -0.10984559336E+04  0.10984559336E+04  0.00000000000E+00 0.  1.
          6    2    1    2  501    0 -0.19947246260E+03  0.50954990010E+02 -0.92440170521E+03  0.96256339062E+03  0.17211651292E+03 0.  0.
         24    2    3    3    0    0 -0.10126328948E+03 -0.14850013696E+02 -0.66323262812E+03  0.67584625296E+03  0.80099075742E+02 0.  0.
         -6    2    1    2    0  502  0.19947246260E+03 -0.50954990010E+02 -0.38708580424E+02  0.27123819099E+03  0.17229662709E+03 0.  0.
        -24    2    5    5    0    0  0.21642492938E+03 -0.69828390374E+02 -0.27372215423E+02  0.24305673356E+03  0.81311643660E+02 0.  0.
          5    1    3    3  501    0 -0.98209173123E+02  0.65805003706E+02 -0.26116907709E+03  0.28671713766E+03  0.47000000000E+01 0. -1.
        -13    1    4    4    0    0 -0.30171337522E+02 -0.43729480541E+02 -0.25825664644E+03  0.26366469712E+03  0.00000000000E+00 0.  1.
         14    1    4    4    0    0 -0.71091951958E+02  0.28879466845E+02 -0.40497598168E+03  0.41218155584E+03  0.00000000000E+00 0. -1.
         -5    1    5    5    0  502 -0.16952466774E+02  0.18873400364E+02 -0.11336365002E+02  0.28181457422E+02  0.47000000000E+01 0.  1.
         13    1    6    6    0    0 -0.24318855926E+01  0.82063256159E+01  0.21800587978E+01  0.88323555188E+01  0.00000000000E+00 0. -1.
        -14    1    6    6    0    0  0.21885681497E+03 -0.78034715990E+02 -0.29552274221E+02  0.23422437804E+03  0.00000000000E+00 0.  1.
</event>
<event>
12    1  0.8133506E-002  0.1804336E+03  0.7818608E-02  0.1167656E+00
         21   -1    0    0  503  502  0.00000000000E+00  0.00000000000E+00  0.31198018433E+03  0.31198018433E+03  0.00000000000E+00 0.  1.
         21   -1    0    0  501  503 -0.00000000000E+00 -0.00000000000E+00 -0.10981411268E+03  0.10981411268E+03  0.00000000000E+00 0.  1.
          6    2    1    2  501    0 -0.23214275939E+02  0.48970747230E+02  0.51045577331E+02  0.18643566648E+03  0.17092562733E+03 0.  0.
         24    2    3    3    0    0  0.30477879441E+02 -0.13735371999E+02  0.55248299605E+02  0.10364280560E+03  0.81067224971E+02 0.  0.
         -6    2    1    2    0  502  0.23214275939E+02 -0.48970747230E+02  0.15112049432E+03  0.23535863053E+03  0.17210242436E+03 0.  0.
        -24    2    5    5    0    0  0.79598250521E+00  0.16986747964E+02  0.13878479905E+02  0.81376710899E+02  0.78360536482E+02 0.  0.
          5    1    3    3  501    0 -0.53692155380E+02  0.62706119229E+02 -0.42027222740E+01  0.82792860880E+02  0.47000000000E+01 0. -1.
        -11    1    4    4    0    0  0.13127847679E+02  0.28388862648E+02  0.48323141875E+02  0.57562087764E+02  0.00000000000E+00 0.  1.
         12    1    4    4    0    0  0.17350031762E+02 -0.42124234647E+02  0.69251577299E+01  0.46080717837E+02  0.00000000000E+00 0. -1.
         -5    1    5    5    0  502  0.22418293434E+02 -0.65957495194E+02  0.13724201442E+03  0.15398191963E+03  0.47000000000E+01 0.  1.
         13    1    6    6    0    0  0.11930655676E+02  0.45978163941E+02  0.16316341407E+02  0.50225044561E+02  0.00000000000E+00 0. -1.
        -14    1    6    6    0    0 -0.11134673171E+02 -0.28991415977E+02 -0.24378615021E+01  0.31151666338E+02  0.00000000000E+00 0.  1.
</event>
<event>
12    1  0.8133506E-002  0.2741942E+03  0.7818608E-02  0.1098959E+00
         21   -1    0    0  503  502  0.00000000000E+00  0.00000000000E+00  0.61842111544E+03  0.61842111544E+03  0.00000000000E+00 0.  1.
         21   -1    0    0  501  503 -0.00000000000E+00 -0.00000000000E+00 -0.18034247998E+03  0.18034247998E+03  0.00000000000E+00 0.  1.
          6    2    1    2  501    0 -0.21189433477E+03  0.25430394598E+02 -0.94062989854E+01  0.27395388039E+03  0.17151191224E+03 0.  0.
         24    2    3    3    0    0 -0.14999755930E+03 -0.49574591805E+02 -0.29488167319E+01  0.17637956063E+03  0.78384602694E+02 0.  0.
         -6    2    1    2    0  502  0.21189433477E+03 -0.25430394598E+02  0.44748493444E+03  0.52480971503E+03  0.17215271233E+03 0.  0.
        -24    2    5    5    0    0  0.17838033501E+03 -0.41905768778E+02  0.23411524611E+03  0.30814559702E+03  0.81043957999E+02 0.  0.
          5    1    3    3  501    0 -0.61896775473E+02  0.75004986403E+02 -0.64574822535E+01  0.97574319758E+02  0.47000000000E+01 0. -1.
        -13    1    4    4    0    0 -0.10003135019E+03 -0.54470165604E+01  0.26313100357E+02  0.10357760501E+03  0.00000000000E+00 0.  1.
         14    1    4    4    0    0 -0.49966209113E+02 -0.44127575245E+02 -0.29261917089E+02  0.72801955618E+02  0.00000000000E+00 0. -1.
         -5    1    5    5    0  502  0.33513999764E+02  0.16475374180E+02  0.21336968833E+03  0.21666411801E+03  0.47000000000E+01 0.  1.
         11    1    6    6    0    0  0.29654889785E+02  0.23382618426E+02  0.39324435725E+02  0.54521285547E+02  0.00000000000E+00 0. -1.
        -12    1    6    6    0    0  0.14872544522E+03 -0.65288387204E+02  0.19479081038E+03  0.25362431147E+03  0.00000000000E+00 0.  1.
</event>
<event>
12    1  0.8133506E-002  0.1781788E+03  0.7818608E-02  0.1169977E+00
         21   -1    0    0  503  502  0.00000000000E+00  0.00000000000E+00  0.12687420159E+02  0.12687420159E+02  0.00000000000E+00 0.  1.
         21   -1    0    0  501  503 -0.00000000000E+00 -0.00000000000E+00 -0.24910577358E+04  0.24910577358E+04  0.00000000000E+00 0. -1.
          6    2    1    2  501    0 -0.22346807618E+02 -0.40654739125E+02 -0.11598654801E+04  0.11734716079E+04  0.17203341264E+03 0.  0.
         24    2    3    3    0    0 -0.61468165058E+02 -0.75053511869E+02 -0.83087295120E+03  0.84034711132E+03  0.80137640948E+02 0.  0.
         -6    2    1    2    0  502  0.22346807618E+02  0.40654739125E+02 -0.13185048355E+04  0.13302735480E+04  0.17035411241E+03 0.  0.
        -24    2    5    5    0    0  0.64902982512E+02  0.70122931791E+02 -0.99494096052E+03  0.10025616721E+04  0.78056189742E+02 0.  0.
          5    1    3    3  501    0  0.39121357440E+02  0.34398772744E+02 -0.32899252886E+03  0.33312449658E+03  0.47000000000E+01 0. -1.
        -11    1    4    4    0    0 -0.40184539007E+02 -0.76419856415E+02 -0.41291940205E+03  0.42184976499E+03  0.00000000000E+00 0.  1.
         12    1    4    4    0    0 -0.21283626051E+02  0.13663445460E+01 -0.41795354915E+03  0.41849734633E+03  0.00000000000E+00 0. -1.
         -5    1    5    5    0  502 -0.42556174895E+02 -0.29468192666E+02 -0.32356387502E+03  0.32771187592E+03  0.47000000000E+01 0.  1.
         11    1    6    6    0    0 -0.17977871818E+02  0.17739792306E+02 -0.21828594203E+03  0.21974225036E+03  0.00000000000E+00 0. -1.
        -12    1    6    6    0    0  0.82880854330E+02  0.52383139485E+02 -0.77665501849E+03  0.78281942175E+03  0.00000000000E+00 0.  1.
</event>
<event>
12    1  0.8133506E-002  0.2027458E+03  0.7818608E-02  0.1147610E+00
         21   -1    0    0  501  502  0.00000000000E+00  0.00000000000E+00  0.52375282012E+03  0.52375282012E+03  0.00000000000E+00 0. -1.
         21   -1    0    0  502  503 -0.00000000000E+00 -0.00000000000E+00 -0.78292282440E+02  0.78292282440E+02  0.00000000000E+00 0.  1.
         -6    2    1    2    0  503 -0.51086993731E+02 -0.94180859001E+02  0.23408954145E+03  0.30915680651E+03  0.17117272698E+03 0.  0.
        -24    2    3    3    0    0 -0.27869820847E+01  0.13606709704E+01  0.16561505278E+03  0.18198793975E+03  0.75376692754E+02 0.  0.
          6    2    1    2  501    0  0.51086993731E+02  0.94180859001E+02  0.21137099623E+03  0.29288829606E+03  0.17212187772E+03 0.  0.
         24    2    5    5    0    0  0.99206568266E+02  0.65566574300E+02  0.17230283312E+03  0.22445817030E+03  0.80946186198E+02 0.  0.
          5    1    5    5  501    0 -0.48119574536E+02  0.28614284701E+02  0.39068163113E+02  0.68430125759E+02  0.47000000000E+01 0. -1.
        -13    1    6    6    0    0  0.12996772287E+02  0.46803681149E+02  0.30211338278E+02  0.57203370700E+02  0.00000000000E+00 0.  1.
         14    1    6    6    0    0  0.86209795979E+02  0.18762893151E+02  0.14209149484E+03  0.16725479960E+03  0.00000000000E+00 0. -1.
         -5    1    3    3    0  503 -0.48300011646E+02 -0.95541529971E+02  0.68474488667E+02  0.12716886676E+03  0.47000000000E+01 0.  1.
         11    1    4    4    0    0 -0.26009103752E+02  0.24335159735E+02  0.12439194314E+03  0.12939099271E+03  0.00000000000E+00 0. -1.
        -12    1    4    4    0    0  0.23222121667E+02 -0.22974488764E+02  0.41223109647E+02  0.52596947038E+02  0.00000000000E+00 0.  1.
</event>
<event>
12    1  0.8133506E-002  0.2165165E+03  0.7818608E-02  0.1136698E+00
         21   -1    0    0  503  502  0.00000000000E+00  0.00000000000E+00  0.87412561402E+02  0.87412561402E+02  0.00000000000E+00 0.  1.
         21   -1    0    0  501  503 -0.00000000000E+00 -0.00000000000E+00 -0.10463163077E+04  0.10463163077E+04  0.00000000000E+00 0.  1.
          6    2    1    2  501    0 -0.68327808387E+02  0.11219726657E+03 -0.87674821587E+03  0.90308738701E+03  0.17211181978E+03 0.  0.
         24    2    3    3    0    0 -0.53194724197E+01  0.46012797401E+01 -0.49036009426E+03  0.49705189926E+03  0.80982096522E+02 0.  0.
         -6    2    1    2    0  502  0.68327808387E+02 -0.11219726657E+03 -0.82155530417E+02  0.23064148209E+03  0.17084802035E+03 0.  0.
        -24    2    5    5    0    0  0.10650982444E+03 -0.88736346535E+02 -0.30811406294E+02  0.16232903666E+03  0.78631364514E+02 0.  0.
          5    1    3    3  501    0 -0.63008335967E+02  0.10759598683E+03 -0.38638812162E+03  0.40603548775E+03  0.47000000000E+01 0. -1.
        -13    1    4    4    0    0 -0.19500989322E+02 -0.32382987568E+02 -0.31578976909E+03  0.31804421820E+03  0.00000000000E+00 0.  1.
         14    1    4    4    0    0  0.14181516903E+02  0.36984267308E+02 -0.17457032516E+03  0.17900768106E+03  0.00000000000E+00 0. -1.
         -5    1    5    5    0  502 -0.38182016054E+02 -0.23460920033E+02 -0.51344124123E+02  0.68312445431E+02  0.47000000000E+01 0.  1.
         13    1    6    6    0    0 -0.10821475729E+02 -0.25524093404E-01  0.33373962509E+01  0.11324451517E+02  0.00000000000E+00 0. -1.
        -14    1    6    6    0    0  0.11733130017E+03 -0.88710822441E+02 -0.34148802545E+02  0.15100458514E+03  0.00000000000E+00 0.  1.
</event>
<event>
12    1  0.8133506E-002  0.2801907E+03  0.7818608E-02  0.1096024E+00
         21   -1    0    0  503  502  0.00000000000E+00  0.00000000000E+00  0.25945037008E+03  0.25945037008E+03  0.00000000000E+00 0. -1.
         21   -1    0    0  501  503 -0.00000000000E+00 -0.00000000000E+00 -0.37719149066E+03  0.37719149066E+03  0.00000000000E+00 0. -1.
          6    2    1    2  501    0 -0.47898042063E+02 -0.21119573532E+03 -0.20339863148E+03  0.34365037548E+03  0.17270412916E+03 0.  0.
         24    2    3    3    0    0 -0.71574571616E+02 -0.16880718050E+03 -0.21514040274E+03  0.29347740642E+03  0.78897475891E+02 0.  0.
         -6    2    1    2    0  502  0.47898042063E+02  0.21119573532E+03  0.85657510897E+02  0.29299148526E+03  0.17778903288E+03 0.  0.
        -24    2    5    5    0    0  0.89751620554E+02  0.92775143863E+02  0.27946220283E+02  0.15468804504E+03  0.80528375989E+02 0.  0.
          5    1    3    3  501    0  0.23676529553E+02 -0.42388554819E+02  0.11741771257E+02  0.50172969053E+02  0.47000000000E+01 0. -1.
        -13    1    4    4    0    0  0.13344686938E+02 -0.21121212355E+02 -0.10224725569E+02  0.26995023500E+02  0.00000000000E+00 0.  1.
         14    1    4    4    0    0 -0.84919258554E+02 -0.14768596815E+03 -0.20491567717E+03  0.26648238292E+03  0.00000000000E+00 0. -1.
         -5    1    5    5    0  502 -0.41853578492E+02  0.11842059146E+03  0.57711290615E+02  0.13830344022E+03  0.47000000000E+01 0.  1.
         13    1    6    6    0    0  0.48835775760E+02  0.97885970906E+02  0.10430164819E+02  0.10988805500E+03  0.00000000000E+00 0. -1.
        -14    1    6    6    0    0  0.40915844794E+02 -0.51108270431E+01  0.17516055464E+02  0.44799990037E+02  0.00000000000E+00 0.  1.
</event>
<event>
12    1  0.8133506E-002  0.1806645E+03  0.7818608E-02  0.1167719E+00
         21   -1    0    0  501  502  0.00000000000E+00  0.00000000000E+00  0.41708031136E+02  0.41708031136E+02  0.00000000000E+00 0.  1.
         21   -1    0    0  502  503 -0.00000000000E+00 -0.00000000000E+00 -0.15820873100E+04  0.15820873100E+04  0.00000000000E+00 0.  1.
         -6    2    1    2    0  503  0.26503736176E+02  0.48743756797E+02 -0.13485099233E+04  0.13602549841E+04  0.16951757047E+03 0.  0.
        -24    2    3    3    0    0  0.68256609529E+02  0.67119109176E+02 -0.75730315879E+03  0.76727228250E+03  0.77683599393E+02 0.  0.
          6    2    1    2  501    0 -0.26503736176E+02 -0.48743756797E+02 -0.19186935558E+03  0.26354035704E+03  0.17193390684E+03 0.  0.
         24    2    5    5    0    0 -0.56055242133E+02  0.11750527544E+02 -0.16202500312E+03  0.18974587679E+03  0.80443340647E+02 0.  0.
          5    1    5    5  501    0  0.29551505957E+02 -0.60494284341E+02 -0.29844352464E+02  0.73794480256E+02  0.47000000000E+01 0. -1.
        -11    1    6    6    0    0 -0.37008267826E+02 -0.10390083519E+02 -0.17386882134E+02  0.42188498354E+02  0.00000000000E+00 0.  1.
         12    1    6    6    0    0 -0.19046974306E+02  0.22140611063E+02 -0.14463812098E+03  0.14755737843E+03  0.00000000000E+00 0. -1.
         -5    1    3    3    0  503 -0.41752873353E+02 -0.18375352378E+02 -0.59120676448E+03  0.59298270159E+03  0.47000000000E+01 0.  1.
         13    1    4    4    0    0 -0.16191234324E+02  0.13439507713E+02 -0.19530628870E+03  0.19643656188E+03  0.00000000000E+00 0. -1.
        -14    1    4    4    0    0  0.84447843853E+02  0.53679601463E+02 -0.56199687009E+03  0.57083572062E+03  0.00000000000E+00 0.  1.
</event>
<event>
12    1  0.8133506E-002  0.2254971E+03  0.7818608E-02  0.1129900E+00
         21   -1    0    0  501  502  0.00000000000E+00  0.00000000000E+00  0.43502944819E+03  0.43502944819E+03  0.00000000000E+00 0.  1.
         21   -1    0    0  502  503 -0.00000000000E+00 -0.00000000000E+00 -0.29615719476E+03  0.29615719476E+03  0.00000000000E+00 0. -1.
         -6    2    1    2    0  503  0.13790045670E+03 -0.48444826658E+02 -0.21513584402E+03  0.31145974522E+03  0.17134848795E+03 0.  0.
        -24    2    3    3    0    0  0.10565227687E+03 -0.97863451975E+02 -0.14230256428E+03  0.21760388622E+03  0.79760721269E+02 0.  0.
          6    2    1    2  501    0 -0.13790045670E+03  0.48444826658E+02  0.35400809745E+03  0.41972689773E+03  0.17171341948E+03 0.  0.
         24    2    5    5    0    0 -0.14268496063E+01  0.34859267660E+02  0.14074757304E+03  0.16612927527E+03  0.81066962094E+02 0.  0.
          5    1    5    5  501    0 -0.13647360710E+03  0.13585558998E+02  0.21326052441E+03  0.25359762247E+03  0.47000000000E+01 0. -1.
        -11    1    6    6    0    0 -0.36422972618E+02  0.14957735251E+01  0.84047423561E+02  0.91612442824E+02  0.00000000000E+00 0.  1.
         12    1    6    6    0    0  0.34996123012E+02  0.33363494135E+02  0.56700149475E+02  0.74516832442E+02  0.00000000000E+00 0. -1.
         -5    1    3    3    0  503  0.32248179830E+02  0.49418625317E+02 -0.72833279746E+02  0.93855859003E+02  0.47000000000E+01 0.  1.
         11    1    4    4    0    0 -0.41636621837E+01 -0.24078278844E+02 -0.51901637498E+02  0.57366188385E+02  0.00000000000E+00 0. -1.
        -12    1    4    4    0    0  0.10981593906E+03 -0.73785173131E+02 -0.90400926777E+02  0.16023769783E+03  0.00000000000E+00 0.  1.
</event>
<event>
12    1  0.8133506E-002  0.2025544E+03  0.7818608E-02  0.1147683E+00
         21   -1    0    0  503  502  0.00000000000E+00  0.00000000000E+00  0.11572522908E+04  0.11572522908E+04  0.00000000000E+00 0.  1.
         21   -1    0    0  501  503 -0.00000000000E+00 -0.00000000000E+00 -0.36139792134E+02  0.36139792134E+02  0.00000000000E+00 0.  1.
          6    2    1    2  501    0 -0.12768474596E+02 -0.10604375852E+03  0.47485332956E+03  0.51624989196E+03  0.17210448481E+03 0.  0.
         24    2    3    3    0    0 -0.68607552983E+00 -0.17977085282E+02  0.92393285833E+02  0.12356745239E+03  0.80054667118E+02 0.  0.
         -6    2    1    2    0  502  0.12768474596E+02  0.10604375852E+03  0.64625916914E+03  0.67714219101E+03  0.17164591600E+03 0.  0.
        -24    2    5    5    0    0  0.53155706114E+02  0.46382535068E+02  0.18454152943E+03  0.20981376380E+03  0.70635477947E+02 0.  0.
          5    1    3    3  501    0 -0.12082399066E+02 -0.88066673240E+02  0.38246004372E+03  0.39268243957E+03  0.47000000000E+01 0. -1.
        -13    1    4    4    0    0 -0.19916431613E+02 -0.44558559510E+02  0.61394228862E+02  0.78430738945E+02  0.00000000000E+00 0.  1.
         14    1    4    4    0    0  0.19230356083E+02  0.26581474228E+02  0.30999056971E+02  0.45136713442E+02  0.00000000000E+00 0. -1.
         -5    1    5    5    0  502 -0.40387231518E+02  0.59661223453E+02  0.46171763971E+03  0.46732842720E+03  0.47000000000E+01 0.  1.
         13    1    6    6    0    0 -0.13059661243E+02 -0.66400080919E+01  0.21377437729E+02  0.25916004767E+02  0.00000000000E+00 0. -1.
        -14    1    6    6    0    0  0.66215367358E+02  0.53022543160E+02  0.16316409170E+03  0.18389775904E+03  0.00000000000E+00 0.  1.
</event>
<event>
12    1  0.8133506E-002  0.2078588E+03  0.7818608E-02  0.1143624E+00
         21   -1    0    0  501  502  0.00000000000E+00  0.00000000000E+00  0.51661722677E+02  0.51661722677E+02  0.00000000000E+00 0. -1.
         21   -1    0    0  502  503 -0.00000000000E+00 -0.00000000000E+00 -0.93211051423E+03  0.93211051423E+03  0.00000000000E+00 0. -1.
         -6    2    1    2    0  503  0.34870915175E+02 -0.10992884542E+03 -0.27852073242E+03  0.34753283590E+03  0.17293045382E+03 0.  0.
        -24    2    3    3    0    0  0.19931029932E+02 -0.11559171037E+03 -0.11024279095E+03  0.17843279510E+03  0.76981166211E+02 0.  0.
          6    2    1    2  501    0 -0.34870915175E+02  0.10992884542E+03 -0.60192805913E+03  0.63623940101E+03  0.17082990150E+03 0.  0.
         24    2    5    5    0    0  0.71905449737E+00  0.27011838658E+02 -0.46225403629E+03  0.46988796998E+03  0.79910911584E+02 0.  0.
          5    1    5    5  501    0 -0.35589969672E+02  0.82917006760E+02 -0.13967402283E+03  0.16635143103E+03  0.47000000000E+01 0. -1.
        -13    1    6    6    0    0  0.37627606150E+02  0.27565066535E+02 -0.22549121464E+03  0.23026497241E+03  0.00000000000E+00 0.  1.
         14    1    6    6    0    0 -0.36908551652E+02 -0.55322787719E+00 -0.23676282165E+03  0.23962299757E+03  0.00000000000E+00 0. -1.
         -5    1    3    3    0  503  0.14939885242E+02  0.56628649534E+01 -0.16827794147E+03  0.16910004080E+03  0.47000000000E+01 0.  1.
         13    1    4    4    0    0  0.26896593655E+02 -0.10427675846E+03 -0.12052845655E+03  0.16162975575E+03  0.00000000000E+00 0. -1.
        -14    1    4    4    0    0 -0.69655637224E+01 -0.11314951910E+02  0.10285665600E+02  0.16803039353E+02  0.00000000000E+00 0.  1.
</event>
<event>
12    1  0.8133506E-002  0.1793847E+03  0.7818608E-02  0.1169464E+00
         21   -1    0    0  503  502  0.00000000000E+00  0.00000000000E+00  0.21554852218E+03  0.21554852218E+03  0.00000000000E+00 0. -1.
         21   -1    0    0  501  503 -0.00000000000E+00 -0.00000000000E+00 -0.14714893076E+03  0.14714893076E+03  0.00000000000E+00 0. -1.
          6    2    1    2  501    0  0.32847078734E+02 -0.36358121083E+02  0.51700410947E+02  0.18253716287E+03  0.16806558180E+03 0.  0.
         24    2    3    3    0    0  0.33791339965E+01  0.29959292728E+02 -0.11081249524E+02  0.86464346562E+02  0.80276468333E+02 0.  0.
         -6    2    1    2    0  502 -0.32847078734E+02  0.36358121083E+02  0.16699180468E+02  0.18016029008E+03  0.17256310133E+03 0.  0.
        -24    2    5    5    0    0 -0.78126757821E+02  0.24617336054E+02 -0.26094087003E+02  0.11658789739E+03  0.78752986730E+02 0.  0.
          5    1    3    3  501    0  0.29467944738E+02 -0.66317413811E+02  0.62781660471E+02  0.96072816307E+02  0.47000000000E+01 0. -1.
        -11    1    4    4    0    0 -0.37799382279E+02  0.21481282583E+02 -0.88122624110E+01  0.44360959986E+02  0.00000000000E+00 0.  1.
         12    1    4    4    0    0  0.41178516275E+02  0.84780101447E+01 -0.22689871128E+01  0.42103386576E+02  0.00000000000E+00 0. -1.
         -5    1    5    5    0  502  0.45279679086E+02  0.11740785030E+02  0.42793267471E+02  0.63572392688E+02  0.47000000000E+01 0.  1.
         13    1    6    6    0    0 -0.11123893524E+02 -0.25120987212E+02  0.42403711974E+01  0.27799024326E+02  0.00000000000E+00 0. -1.
        -14    1    6    6    0    0 -0.67002864297E+02  0.49738323265E+02 -0.30334458200E+02  0.88788873061E+02  0.00000000000E+00 0.  1.
</event>
<event>
12    1  0.8133506E-002  0.1869824E+03  0.7818608E-02  0.1161298E+00
         21   -1    0    0  501  502  0.00000000000E+00  0.00000000000E+00  0.29559416231E+03  0.29559416231E+03  0.00000000000E+00 0. -1.
         21   -1    0    0  502  503 -0.00000000000E+00 -0.00000000000E+00 -0.11918237150E+03  0.11918237150E+03  0.00000000000E+00 0. -1.
         -6    2    1    2    0  503 -0.61916924248E+02  0.39767797491E+02  0.67837028645E+02  0.19855701547E+03  0.17148715028E+03 0.  0.
        -24    2    3    3    0    0 -0.94212163486E+01 -0.12481835890E+02 -0.16271042711E+02  0.86387138924E+02  0.83387261593E+02 0.  0.
          6    2    1    2  501    0  0.61916924248E+02 -0.39767797491E+02  0.10857476217E+03  0.21621951835E+03  0.17189304206E+03 0.  0.
         24    2    5    5    0    0  0.24800534267E+02  0.43903042241E+02  0.56553591068E+02  0.11083105565E+03  0.80886776520E+02 0.  0.
          5    1    5    5  501    0  0.37116389982E+02 -0.83670839733E+02  0.52021171098E+02  0.10538846270E+03  0.47000000000E+01 0. -1.
        -13    1    6    6    0    0 -0.11139969973E+01  0.34136633599E+02  0.71588859541E+02  0.79319074334E+02  0.00000000000E+00 0.  1.
         14    1    6    6    0    0  0.25914531264E+02  0.97664086424E+01 -0.15035268473E+02  0.31511981316E+02  0.00000000000E+00 0. -1.
         -5    1    3    3    0  503 -0.52495707900E+02  0.52249633381E+02  0.84108071356E+02  0.11216987654E+03  0.47000000000E+01 0.  1.
         13    1    4    4    0    0  0.21141235678E+02  0.23985551131E+02  0.80215875767E+01  0.32963682687E+02  0.00000000000E+00 0. -1.
        -14    1    4    4    0    0 -0.30562452027E+02 -0.36467387021E+02 -0.24292630288E+02  0.53423456237E+02  0.00000000000E+00 0.  1.
</event>
<event>
12    1  0.8133506E-002  0.2064582E+03  0.7818608E-02  0.1144562E+00
         21   -1    0    0  503  502  0.00000000000E+00  0.00000000000E+00  0.15704957847E+03  0.15704957847E+03  0.00000000000E+00 0.  1.
         21   -1    0    0  501  503 -0.00000000000E+00 -0.00000000000E+00 -0.29812130614E+03  0.29812130614E+03  0.00000000000E+00 0.  1.
          6    2    1    2  501    0  0.87242308842E+02  0.69671865012E+02 -0.13984498484E+03  0.24870905504E+03  0.17272575096E+03 0.  0.
         24    2    3    3    0    0  0.65824949660E+01  0.78747891633E+02 -0.12064827242E+03  0.16516874380E+03  0.80499370279E+02 0.  0.
         -6    2    1    2    0  502 -0.87242308842E+02 -0.69671865012E+02 -0.12267428256E+01  0.20646182956E+03  0.17366517481E+03 0.  0.
        -24    2    5    5    0    0 -0.84000014560E+01  0.21008884090E+02 -0.29245918930E+02  0.82986034683E+02  0.74292832381E+02 0.  0.
          5    1    3    3  501    0  0.80659813876E+02 -0.90760266207E+01 -0.19196712427E+02  0.83540311238E+02  0.47000000000E+01 0. -1.
        -11    1    4    4    0    0  0.25896586718E+02  0.48490355852E+02 -0.11677091596E+03  0.12906352943E+03  0.00000000000E+00 0.  1.
         12    1    4    4    0    0 -0.19314091752E+02  0.30257535781E+02 -0.38773564545E+01  0.36105214372E+02  0.00000000000E+00 0. -1.
         -5    1    5    5    0  502 -0.78842307386E+02 -0.90680749102E+02  0.28019176104E+02  0.12347579488E+03  0.47000000000E+01 0.  1.
         11    1    6    6    0    0  0.27010130931E+02 -0.10552971655E+02 -0.18348556124E+02  0.34315913152E+02  0.00000000000E+00 0. -1.
        -12    1    6    6    0    0 -0.35410132387E+02  0.31561855745E+02 -0.10897362805E+02  0.48670121531E+02  0.00000000000E+00 0.  1.
</event>
<event>
12    1  0.8133506E-002  0.2129032E+03  0.7818608E-02  0.1140000E+00
         21   -1    0    0  501  502  0.00000000000E+00  0.00000000000E+00  0.54308186341E+02  0.54308186341E+02  0.00000000000E+00 0.  1.
         21   -1    0    0  502  503 -0.00000000000E+00 -0.00000000000E+00 -0.82160514426E+03  0.82160514426E+03  0.00000000000E+00 0.  1.
         -6    2    1    2    0  503 -0.43458888368E+01  0.12543703286E+03 -0.40317198193E+03  0.45593355176E+03  0.17197215079E+03 0.  0.
        -24    2    3    3    0    0  0.13300753520E+02  0.47857063680E+02 -0.78361013907E+02  0.12148727722E+03  0.78431507944E+02 0.  0.
          6    2    1    2  501    0  0.43458888368E+01 -0.12543703286E+03 -0.36412497599E+03  0.41997977884E+03  0.16745948922E+03 0.  0.
         24    2    5    5    0    0  0.13631824302E+02 -0.87346314949E+02 -0.10970055888E+03  0.16250938168E+03  0.80993093214E+02 0.  0.
          5    1    5    5  501    0 -0.92859354651E+01 -0.38090717914E+02 -0.25442441711E+03  0.25747039715E+03  0.47000000000E+01 0. -1.
        -11    1    6    6    0    0  0.17274269104E+02 -0.84077717223E+02 -0.12205882587E+03  0.14921735783E+03  0.00000000000E+00 0.  1.
         12    1    6    6    0    0 -0.36424448016E+01 -0.32685977255E+01  0.12358266986E+02  0.13292023854E+02  0.00000000000E+00 0. -1.
         -5    1    3    3    0  503 -0.17646642357E+02  0.77579969184E+02 -0.32481096802E+03  0.33444627454E+03  0.47000000000E+01 0.  1.
         13    1    4    4    0    0 -0.32952902785E+02  0.15703282691E+02 -0.31202877826E+02  0.48021937423E+02  0.00000000000E+00 0. -1.
        -14    1    4    4    0    0  0.46253656305E+02  0.32153780988E+02 -0.47158136081E+02  0.73465339800E+02  0.00000000000E+00 0.  1.
</event>
<event>
12    1  0.8133506E-002  0.2056373E+03  0.7818608E-02  0.1145143E+00
         21   -1    0    0  501  502  0.00000000000E+00  0.00000000000E+00  0.81807189482E+02  0.81807189482E+02  0.00000000000E+00 0. -1.
         21   -1    0    0  502  503 -0.00000000000E+00 -0.00000000000E+00 -0.64670167964E+03  0.64670167964E+03  0.00000000000E+00 0.  1.
         -6    2    1    2    0  503  0.10111912554E+03 -0.50344118946E+02 -0.11888322753E+03  0.23752875238E+03  0.17183445102E+03 0.  0.
        -24    2    3    3    0    0 -0.88267536567E+01 -0.87485151522E+01 -0.16475130137E+02  0.81555039790E+02  0.78900865044E+02 0.  0.
          6    2    1    2  501    0 -0.10111912554E+03  0.50344118946E+02 -0.44601126262E+03  0.49098011674E+03  0.17139375947E+03 0.  0.
         24    2    5    5    0    0 -0.13566787884E+03  0.47086143932E+02 -0.31303178606E+03  0.35346698302E+03  0.79543263113E+02 0.  0.
          5    1    5    5  501    0  0.34548753307E+02  0.32579750147E+01 -0.13297947657E+03  0.13751313372E+03  0.47000000000E+01 0. -1.
        -13    1    6    6    0    0 -0.10092622520E+03  0.52717300610E+02 -0.28961242506E+03  0.31119218092E+03  0.00000000000E+00 0.  1.
         14    1    6    6    0    0 -0.34741653648E+02 -0.56311566787E+01 -0.23419360999E+02  0.42274802109E+02  0.00000000000E+00 0. -1.
         -5    1    3    3    0  503  0.10994587919E+03 -0.41595603794E+02 -0.10240809739E+03  0.15597371259E+03  0.47000000000E+01 0.  1.
         11    1    4    4    0    0  0.13753931160E+02 -0.38876339863E+02 -0.14981806095E+02  0.43874764243E+02  0.00000000000E+00 0. -1.
        -12    1    4    4    0    0 -0.22580684817E+02  0.30127824711E+02 -0.14933240429E+01  0.37680275547E+02  0.00000000000E+00 0.  1.
</event>
<event>
12    1  0.8133506E-002  0.1836010E+03  0.7818608E-02  0.1164467E+00
         21   -1    0    0  503  502  0.00000000000E+00  0.00000000000E+00  0.13658845544E+03  0.13658845544E+03  0.00000000000E+00 0.  1.
         21   -1    0    0  501  503 -0.00000000000E+00 -0.00000000000E+00 -0.32692854765E+03  0.32692854765E+03  0.00000000000E+00 0. -1.
          6    2    1    2  501    0 -0.43091901292E+02 -0.47625486312E+02 -0.21042065105E+03  0.27926002401E+03  0.17200061545E+03 0.  0.
         24    2    3    3    0    0 -0.63239555683E+02 -0.44139508022E+02 -0.57236102024E+02  0.12464541900E+03  0.79454210275E+02 0.  0.
         -6    2    1    2    0  502  0.43091901292E+02  0.47625486312E+02  0.20080558840E+02  0.18425697908E+03  0.17152931701E+03 0.  0.
        -24    2    5    5    0    0  0.41294982907E+02  0.28856307911E+02 -0.53176761983E+02  0.10846624068E+03  0.79994970041E+02 0.  0.
          5    1    3    3  501    0  0.20147654391E+02 -0.34859782905E+01 -0.15318454903E+03  0.15461460501E+03  0.47000000000E+01 0. -1.
        -13    1    4    4    0    0 -0.29131319083E+02 -0.60901888247E+02 -0.17672449872E+02  0.69785308110E+02  0.00000000000E+00 0.  1.
         14    1    4    4    0    0 -0.34108236600E+02  0.16762380225E+02 -0.39563652152E+02  0.54860110886E+02  0.00000000000E+00 0. -1.
         -5    1    5    5    0  502  0.17969183855E+01  0.18769178401E+02  0.73257320823E+02  0.75790738403E+02  0.47000000000E+01 0.  1.
         13    1    6    6    0    0  0.14156742304E+01  0.41963422631E+02 -0.51510722369E+02  0.66455153987E+02  0.00000000000E+00 0. -1.
        -14    1    6    6    0    0  0.39879308676E+02 -0.13107114720E+02 -0.16660396139E+01  0.42011086689E+02  0.00000000000E+00 0.  1.
</event>
<event>
12    1  0.8133506E-002  0.2526447E+03  0.7818608E-02  0.1111660E+00
         21   -1    0    0  501  502  0.00000000000E+00  0.00000000000E+00  0.11129809130E+04  0.11129809130E+04  0.00000000000E+00 0.  1.
         21   -1    0    0  502  503 -0.00000000000E+00 -0.00000000000E+00 -0.58853034699E+02  0.58853034699E+02  0.00000000000E+00 0. -1.
         -6    2    1    2    0  503  0.16272250950E+03  0.86565556020E+02  0.43283661755E+03  0.50117550968E+03  0.17279219722E+03 0.  0.
        -24    2    3    3    0    0  0.10734332961E+02  0.45863079987E+02  0.13078328546E+03  0.16056517104E+03  0.80363290026E+02 0.  0.
          6    2    1    2  501    0 -0.16272250950E+03 -0.86565556020E+02  0.62129126073E+03  0.67065843800E+03  0.17264906375E+03 0.  0.
         24    2    5    5    0    0 -0.15452436787E+03 -0.67564622193E+02  0.62355125647E+03  0.64931733697E+03  0.65985424200E+02 0.  0.
          5    1    5    5  501    0 -0.81981416306E+01 -0.19000933827E+02 -0.22599957384E+01  0.21341101032E+02  0.47000000000E+01 0. -1.
        -11    1    6    6    0    0 -0.43145652462E+02  0.10464607660E+02  0.12992045640E+03  0.13729668725E+03  0.00000000000E+00 0.  1.
         12    1    6    6    0    0 -0.11137871541E+03 -0.78029229853E+02  0.49363080008E+03  0.51202064972E+03  0.00000000000E+00 0. -1.
         -5    1    3    3    0  503  0.15198817654E+03  0.40702476033E+02  0.30205333209E+03  0.34061033864E+03  0.47000000000E+01 0.  1.
         13    1    4    4    0    0  0.23330323773E+02  0.41767720148E+02  0.25045662615E+02  0.54001219149E+02  0.00000000000E+00 0. -1.
        -14    1    4    4    0    0 -0.12595990812E+02  0.40953598394E+01  0.10573762285E+03  0.10656395189E+03  0.00000000000E+00 0.  1.
</event>
<event>
12    1  0.8133506E-002  0.2713854E+03  0.7818608E-02  0.1101677E+00
         21   -1    0    0  501  502  0.00000000000E+00  0.00000000000E+00  0.15956338052E+03  0.15956338052E+03  0.00000000000E+00 0. -1.
         21   -1    0    0  502  503 -0.00000000000E+00 -0.00000000000E+00 -0.57127010716E+03  0.57127010716E+03  0.00000000000E+00 0.  1.
         -6    2    1    2    0  503 -0.18829137302E+03 -0.68249582470E+02 -0.37331118170E+03  0.45674548344E+03  0.17071482535E+03 0.  0.
        -24    2    3    3    0    0 -0.16645502275E+03 -0.90728587341E+02 -0.37227138183E+03  0.42503896933E+03  0.78314702068E+02 0.  0.
          6    2    1    2  501    0  0.18829137302E+03  0.68249582470E+02 -0.38395544934E+02  0.27408800424E+03  0.18313483977E+03 0.  0.
         24    2    5    5    0    0  0.14366523909E+03 -0.20169197300E+02 -0.53400101344E+02  0.17380540775E+03  0.79437091453E+02 0.  0.
          5    1    5    5  501    0  0.44626133939E+02  0.88418779770E+02  0.15004556409E+02  0.10028259649E+03  0.47000000000E+01 0. -1.
        -11    1    6    6    0    0  0.10885783379E+03 -0.48990344157E+02 -0.46405918816E+02  0.12807650487E+03  0.00000000000E+00 0.  1.
         12    1    6    6    0    0  0.34807405296E+02  0.28821146857E+02 -0.69941825274E+01  0.45728902882E+02  0.00000000000E+00 0. -1.
         -5    1    3    3    0  503 -0.21836350272E+02  0.22479004871E+02 -0.10397998729E+01  0.31706514109E+02  0.47000000000E+01 0.  1.
         13    1    4    4    0    0 -0.65610127125E+02 -0.80225198743E+02 -0.18199057274E+03  0.20943099069E+03  0.00000000000E+00 0. -1.
        -14    1    4    4    0    0 -0.10084489563E+03 -0.10503388597E+02 -0.19028080909E+03  0.21560797864E+03  0.00000000000E+00 0.  1.
</event>
<event>
12    1  0.8133506E-002  0.2047082E+03  0.7818608E-02  0.1146129E+00
         21   -1    0    0  501  502  0.00000000000E+00  0.00000000000E+00  0.18304056882E+03  0.18304056882E+03  0.00000000000E+00 0.  1.
         21   -1    0    0  502  503 -0.00000000000E+00 -0.00000000000E+00 -0.32567133463E+03  0.32567133463E+03  0.00000000000E+00 0.  1.
         -6    2    1    2    0  503  0.98080589825E+02  0.46317998159E+02 -0.21093224349E+03  0.29290985454E+03  0.17186800892E+03 0.  0.
        -24    2    3    3    0    0  0.10512652894E+03  0.19287534399E+02 -0.22479386640E+03  0.26137375112E+03  0.79751861014E+02 0.  0.
          6    2    1    2  501    0 -0.98080589825E+02 -0.46317998159E+02  0.68301477673E+02  0.21580204891E+03  0.17360954296E+03 0.  0.
         24    2    5    5    0    0 -0.93210389369E+01 -0.38910013189E+02  0.87659239747E+02  0.12453349426E+03  0.78889657034E+02 0.  0.
          5    1    5    5  501    0 -0.88759550888E+02 -0.74079849696E+01 -0.19357762074E+02  0.91268554649E+02  0.47000000000E+01 0. -1.
        -13    1    6    6    0    0 -0.37287794526E+02 -0.41889603304E+02  0.75106762751E+02  0.93734434956E+02  0.00000000000E+00 0.  1.
         14    1    6    6    0    0  0.27966755589E+02  0.29795901145E+01  0.12552476996E+02  0.30799059307E+02  0.00000000000E+00 0. -1.
         -5    1    3    3    0  503 -0.70459391112E+01  0.27030463760E+02  0.13861622910E+02  0.31536103417E+02  0.47000000000E+01 0.  1.
         13    1    4    4    0    0  0.48343047210E+02  0.24713324855E+02 -0.38542615083E+02  0.66583269793E+02  0.00000000000E+00 0. -1.
        -14    1    4    4    0    0  0.56783481726E+02 -0.54257904564E+01 -0.18625125132E+03  0.19479048133E+03  0.00000000000E+00 0.  1.
</event>
<event>
12    1  0.8133506E-002  0.1980563E+03  0.7818608E-02  0.1153446E+00
         21   -1    0    0  501  502  0.00000000000E+00  0.00000000000E+00  0.39520664668E+03  0.39520664668E+03  0.00000000000E+00 0.  1.
         21   -1    0    0  502  503 -0.00000000000E+00 -0.00000000000E+00 -0.10033313463E+03  0.10033313463E+03  0.00000000000E+00 0.  1.
         -6    2    1    2    0  503 -0.72618913372E+02  0.10522434621E+02  0.84907534526E+02  0.20690156602E+03  0.17382387752E+03 0.  0.
        -24    2    3    3    0    0 -0.95821599778E+02  0.31127244123E+02  0.10746329008E+03  0.16825218130E+03  0.81300390437E+02 0.  0.
          6    2    1    2  501    0  0.72618913372E+02 -0.10522434621E+02  0.20996597752E+03  0.28863821529E+03  0.18396216839E+03 0.  0.
         24    2    5    5    0    0  0.59756691689E+02  0.65910274000E+02  0.12202424600E+03  0.17132140560E+03  0.80907854893E+02 0.  0.
          5    1    5    5  501    0  0.12862221683E+02 -0.76432708621E+02  0.87941731523E+02  0.11731680970E+03  0.47000000000E+01 0. -1.
        -13    1    6    6    0    0  0.46017517267E+02  0.46466240641E+02  0.13056527438E+03  0.14602744361E+03  0.00000000000E+00 0.  1.
         14    1    6    6    0    0  0.13739174422E+02  0.19444033359E+02 -0.85410283787E+01  0.25293961984E+02  0.00000000000E+00 0. -1.
         -5    1    3    3    0  503  0.23202686406E+02 -0.20604809502E+02 -0.22555755557E+02  0.38649384727E+02  0.47000000000E+01 0.  1.
         13    1    4    4    0    0 -0.12524309976E+01  0.34558037033E+02  0.24227023323E+02  0.42222922282E+02  0.00000000000E+00 0. -1.
        -14    1    4    4    0    0 -0.94569168780E+02 -0.34307929095E+01  0.83236266760E+02  0.12602925902E+03  0.00000000000E+00 0.  1.
</event>
<event>
12    1  0.8133506E-002  0.2968083E+03  0.7818608E-02  0.1086853E+00
         21   -1    0    0  501  502  0.00000000000E+00  0.00000000000E+00  0.20863729838E+03  0.20863729838E+03  0.00000000000E+00 0. -1.
         21   -1    0    0  502  503 -0.00000000000E+00 -0.00000000000E+00 -0.52199094816E+03  0.52199094816E+03  0.00000000000E+00 0.  1.
         -6    2    1    2    0  503  0.16300154501E+03  0.17836393741E+03 -0.31643907857E+03  0.43385346637E+03  0.17237152314E+03 0.  0.
        -24    2    3    3    0    0  0.52204784384E+02  0.15775887459E+03 -0.18338666500E+03  0.25942432449E+03  0.77827432270E+02 0.  0.
          6    2    1    2  501    0 -0.16300154501E+03 -0.17836393741E+03  0.30854287963E+01  0.29677478016E+03  0.17228625142E+03 0.  0.
         24    2    5    5    0    0 -0.12310207564E+03 -0.11555986274E+03 -0.66686525954E+02  0.19466437364E+03  0.70277469487E+02 0.  0.
          5    1    5    5  501    0 -0.39899469369E+02 -0.62804074667E+02  0.69771954750E+02  0.10211040652E+03  0.47000000000E+01 0. -1.
        -11    1    6    6    0    0 -0.11803900200E+03 -0.95537066951E+02 -0.33392875404E+02  0.15548511595E+03  0.00000000000E+00 0.  1.
         12    1    6    6    0    0 -0.50630736367E+01 -0.20022795790E+02 -0.33293650550E+02  0.39179257687E+02  0.00000000000E+00 0. -1.
         -5    1    3    3    0  503  0.11079676062E+03  0.20605062816E+02 -0.13305241357E+03  0.17442914188E+03  0.47000000000E+01 0.  1.
         11    1    4    4    0    0 -0.13788117640E+02  0.20517254684E+02 -0.56232458386E+01  0.25351347530E+02  0.00000000000E+00 0. -1.
        -12    1    4    4    0    0  0.65992902023E+02  0.13724161991E+03 -0.17776341916E+03  0.23407297697E+03  0.00000000000E+00 0.  1.
</event>
<event>
12    1  0.8133506E-002  0.2619696E+03  0.7818608E-02  0.1106007E+00
         21   -1    0    0  503  502  0.00000000000E+00  0.00000000000E+00  0.29614472497E+03  0.29614472497E+03  0.00000000000E+00 0.  1.
         21   -1    0    0  501  503 -0.00000000000E+00 -0.00000000000E+00 -0.45459012658E+03  0.45459012658E+03  0.00000000000E+00 0. -1.
          6    2    1    2  501    0  0.19490547352E+03  0.30133163585E+02 -0.34216489830E+03  0.43076467796E+03  0.17200360170E+03 0.  0.
         24    2    3    3    0    0  0.85294901961E+02 -0.48341840809E+02 -0.15725234915E+03  0.20188142269E+03  0.80097775503E+02 0.  0.
         -6    2    1    2    0  502 -0.19490547352E+03 -0.30133163585E+02  0.18371949670E+03  0.31997017359E+03  0.17242942720E+03 0.  0.
        -24    2    5    5    0    0 -0.13343855838E+03  0.46318514775E+02  0.94393823697E+02  0.18721398112E+03  0.78661471527E+02 0.  0.
          5    1    3    3  501    0  0.10961057155E+03  0.78475004395E+02 -0.18491254915E+03  0.22888325527E+03  0.47000000000E+01 0. -1.
        -11    1    4    4    0    0  0.79457680451E+02 -0.25716482284E+02 -0.62559368759E+02  0.10434814355E+03  0.00000000000E+00 0.  1.
         12    1    4    4    0    0  0.58372215106E+01 -0.22625358525E+02 -0.94692980395E+02  0.97533279138E+02  0.00000000000E+00 0. -1.
         -5    1    5    5    0  502 -0.61466915140E+02 -0.76451678360E+02  0.89325672998E+02  0.13275619246E+03  0.47000000000E+01 0.  1.
         11    1    6    6    0    0 -0.11778054769E+03  0.55625632593E+01  0.71828177491E+02  0.13806696421E+03  0.00000000000E+00 0. -1.
        -12    1    6    6    0    0 -0.15658010683E+02  0.40755951516E+02  0.22565646206E+02  0.49147016910E+02  0.00000000000E+00 0.  1.
</event>
<event>
12    1  0.8133506E-002  0.2019350E+03  0.7818608E-02  0.1148461E+00
         21   -1    0    0  503  502  0.00000000000E+00  0.00000000000E+00  0.35536516523E+03  0.35536516523E+03  0.00000000000E+00 0. -1.
         21   -1    0    0  501  503 -0.00000000000E+00 -0.00000000000E+00 -0.19341585841E+03  0.19341585841E+03  0.00000000000E+00 0. -1.
          6    2    1    2  501    0  0.82160011110E+02  0.55460142697E+02 -0.95247921894E+02  0.22178228354E+03  0.17403769653E+03 0.  0.
         24    2    3    3    0    0  0.14530705997E+01 -0.16544860662E+02  0.69310775301E+01  0.72916677446E+02  0.70660867428E+02 0.  0.
         -6    2    1    2    0  502 -0.82160011110E+02 -0.55460142697E+02  0.25719722871E+03  0.32699874010E+03  0.17593085778E+03 0.  0.
        -24    2    5    5    0    0 -0.11344780195E+03 -0.21251269897E+02  0.13122769071E+03  0.19268720919E+03  0.81151916390E+02 0.  0.
          5    1    3    3  501    0  0.80706940511E+02  0.72005003358E+02 -0.10217899942E+03  0.14886560610E+03  0.47000000000E+01 0. -1.
        -11    1    4    4    0    0  0.21222239494E+02 -0.13028170997E+02  0.32158996720E+02  0.40673305234E+02  0.00000000000E+00 0.  1.
         12    1    4    4    0    0 -0.19769168894E+02 -0.35166896647E+01 -0.25227919190E+02  0.32243372212E+02  0.00000000000E+00 0. -1.
         -5    1    5    5    0  502  0.31287790842E+02 -0.34208872800E+02  0.12596953800E+03  0.13431153092E+03  0.47000000000E+01 0.  1.
         13    1    6    6    0    0 -0.48560629958E+01 -0.31050704738E+02  0.37302109791E+02  0.48776787588E+02  0.00000000000E+00 0. -1.
        -14    1    6    6    0    0 -0.10859173896E+03  0.97994348406E+01  0.93925580923E+02  0.14391042160E+03  0.00000000000E+00 0.  1.
</event>
<event>
12    1  0.8133506E-002  0.1729348E+03  0.7818608E-02  0.1175266E+00
         21   -1    0    0  501  502  0.00000000000E+00  0.00000000000E+00  0.74397635867E+03  0.74397635867E+03  0.00000000000E+00 0.  1.
         21   -1    0    0  502  503 -0.00000000000E+00 -0.00000000000E+00 -0.53176283170E+02  0.53176283170E+02  0.00000000000E+00 0.  1.
         -6    2    1    2    0  503 -0.42497596023E+01  0.18769104520E+02  0.14416830027E+03  0.22381789655E+03  0.17011646679E+03 0.  0.
        -24    2    3    3    0    0 -0.16384494276E+01  0.72164669735E+02  0.12215504148E+03  0.16581290635E+03  0.85800009791E+02 0.  0.
          6    2    1    2  501    0  0.42497596023E+01 -0.18769104520E+02  0.54663177523E+03  0.57333474529E+03  0.17186067822E+03 0.  0.
         24    2    5    5    0    0  0.31301725005E+02 -0.52359479613E+02  0.49894767319E+03  0.50886781021E+03  0.79223447220E+02 0.  0.
          5    1    5    5  501    0 -0.27051965403E+02  0.33590375093E+02  0.47684102043E+02  0.64466935081E+02  0.47000000000E+01 0. -1.
        -11    1    6    6    0    0  0.21678571814E+02  0.17766981421E+02  0.10888747655E+03  0.11243713201E+03  0.00000000000E+00 0.  1.
         12    1    6    6    0    0  0.96231531910E+01 -0.70126461034E+02  0.39006019664E+03  0.39643067820E+03  0.00000000000E+00 0. -1.
         -5    1    3    3    0  503 -0.26113101747E+01 -0.53395565215E+02  0.22013258789E+02  0.58004990199E+02  0.47000000000E+01 0.  1.
         11    1    4    4    0    0  0.27552771071E+02  0.67077879813E+02  0.11394890959E+03  0.13506646938E+03  0.00000000000E+00 0. -1.
        -12    1    4    4    0    0 -0.29191220499E+02  0.50867899217E+01  0.82061318865E+01  0.30746436972E+02  0.00000000000E+00 0.  1.
</event>
<event>
12    1  0.8133506E-002  0.2192762E+03  0.7818608E-02  0.1134506E+00
         21   -1    0    0  503  502  0.00000000000E+00  0.00000000000E+00  0.10721526137E+03  0.10721526137E+03  0.00000000000E+00 0. -1.
         21   -1    0    0  501  503 -0.00000000000E+00 -0.00000000000E+00 -0.49310304523E+03  0.49310304523E+03  0.00000000000E+00 0. -1.
          6    2    1    2  501    0 -0.10030068480E+03  0.91844030971E+02 -0.28433262171E+03  0.35906420880E+03  0.17200730472E+03 0.  0.
         24    2    3    3    0    0 -0.37000841525E+02  0.85901838420E+02 -0.93469347107E+02  0.15783533562E+03  0.86181704571E+02 0.  0.
         -6    2    1    2    0  502  0.10030068480E+03 -0.91844030971E+02 -0.10155516215E+03  0.24125409781E+03  0.17144834602E+03 0.  0.
        -24    2    5    5    0    0  0.11703341965E+03 -0.11973051327E+03 -0.83058700838E+02  0.20354667955E+03  0.80624350223E+02 0.  0.
          5    1    3    3  501    0 -0.63299843280E+02  0.59421925510E+01 -0.19086327460E+03  0.20122887319E+03  0.47000000000E+01 0. -1.
        -13    1    4    4    0    0 -0.27587929834E+02 -0.51076749102E+01 -0.14859962020E+01  0.28096092259E+02  0.00000000000E+00 0.  1.
         14    1    4    4    0    0 -0.94129116909E+01  0.91009513330E+02 -0.91983350905E+02  0.12973924336E+03  0.00000000000E+00 0. -1.
         -5    1    5    5    0  502 -0.16732734848E+02  0.27886482296E+02 -0.18496461311E+02  0.37707418254E+02  0.47000000000E+01 0.  1.
         11    1    6    6    0    0  0.16769959951E+02 -0.30494930507E+02  0.14410287571E+02  0.37667343035E+02  0.00000000000E+00 0. -1.
        -12    1    6    6    0    0  0.10026345970E+03 -0.89235582759E+02 -0.97468988409E+02  0.16587933652E+03  0.00000000000E+00 0.  1.
</event>
<event>
12    1  0.8133506E-002  0.2274939E+03  0.7818608E-02  0.1128432E+00
         21   -1    0    0  503  502  0.00000000000E+00  0.00000000000E+00  0.23469806660E+03  0.23469806660E+03  0.00000000000E+00 0.  1.
         21   -1    0    0  501  503 -0.00000000000E+00 -0.00000000000E+00 -0.51853387462E+03  0.51853387462E+03  0.00000000000E+00 0. -1.
          6    2    1    2  501    0  0.13372676523E+03  0.66364081349E+02 -0.42746650790E+03  0.48419056549E+03  0.17153964353E+03 0.  0.
         24    2    3    3    0    0  0.13449779601E+03  0.37223874518E+02 -0.20744199158E+03  0.26219366478E+03  0.78981415629E+02 0.  0.
         -6    2    1    2    0  502 -0.13372676523E+03 -0.66364081349E+02  0.14363069988E+03  0.26904137573E+03  0.17165792983E+03 0.  0.
        -24    2    5    5    0    0 -0.63972031147E+02  0.36215713160E+00  0.45365697701E+01  0.99667880576E+02  0.76292555511E+02 0.  0.
          5    1    3    3  501    0 -0.77103078018E+00  0.29140206831E+02 -0.22002451632E+03  0.22199690071E+03  0.47000000000E+01 0. -1.
        -13    1    4    4    0    0  0.75592724135E+02 -0.62643213031E+01 -0.57004683381E+02  0.94884327425E+02  0.00000000000E+00 0.  1.
         14    1    4    4    0    0  0.58905071877E+02  0.43488195821E+02 -0.15043730820E+03  0.16730933736E+03  0.00000000000E+00 0. -1.
         -5    1    5    5    0  502 -0.69754734085E+02 -0.66726238480E+02  0.13909413011E+03  0.16937349516E+03  0.47000000000E+01 0.  1.
         11    1    6    6    0    0 -0.23221668571E+02  0.36211224972E+01 -0.35417175175E+02  0.42505702167E+02  0.00000000000E+00 0. -1.
        -12    1    6    6    0    0 -0.40750362575E+02 -0.32589653656E+01  0.39953744945E+02  0.57162178409E+02  0.00000000000E+00 0.  1.
</event>
<event>
12    1  0.8133506E-002  0.2420411E+03  0.7818608E-02  0.1119043E+00
         21   -1    0    0  503  502  0.00000000000E+00  0.00000000000E+00  0.43991989237E+03  0.43991989237E+03  0.00000000000E+00 0.  1.
         21   -1    0    0  501  503 -0.00000000000E+00 -0.00000000000E+00 -0.14359399536E+03  0.14359399536E+03  0.00000000000E+00 0.  1.
          6    2    1    2  501    0  0.67763878874E+02  0.15138707072E+03  0.63401156780E+02  0.25020712220E+03  0.17627793072E+03 0.  0.
         24    2    3    3    0    0  0.63377721131E+02  0.18014437668E+03  0.46035100936E+02  0.21600345396E+03  0.89830560602E+02 0.  0.
         -6    2    1    2    0  502 -0.67763878874E+02 -0.15138707072E+03  0.23292474023E+03  0.33330676553E+03  0.17125850891E+03 0.  0.
        -24    2    5    5    0    0  0.27273462989E+02 -0.64373948094E+02  0.13403902690E+03  0.17081413752E+03  0.79518311518E+02 0.  0.
          5    1    3    3  501    0  0.43861577438E+01 -0.28757305959E+02  0.17366055844E+02  0.34203668244E+02  0.47000000000E+01 0. -1.
        -13    1    4    4    0    0  0.56396302500E+02  0.38189811344E+02  0.61526409261E+01  0.68387569167E+02  0.00000000000E+00 0.  1.
         14    1    4    4    0    0  0.69814186303E+01  0.14195456534E+03  0.39882460010E+02  0.14761588479E+03  0.00000000000E+00 0. -1.
         -5    1    5    5    0  502 -0.95037341863E+02 -0.87013122629E+02  0.98885713329E+02  0.16249262801E+03  0.47000000000E+01 0.  1.
         11    1    6    6    0    0  0.99326137745E+01 -0.63573803206E+02  0.13864971524E+03  0.15285296466E+03  0.00000000000E+00 0. -1.
        -12    1    6    6    0    0  0.17340849214E+02 -0.80014488765E+00 -0.46106883388E+01  0.17961172854E+02  0.00000000000E+00 0.  1.
</event>
<event>
12    1  0.8133506E-002  0.2918748E+03  0.7818608E-02  0.1089797E+00
         21   -1    0    0  503  502  0.00000000000E+00  0.00000000000E+00  0.17178733130E+04  0.17178733130E+04  0.00000000000E+00 0.  1.
         21   -1    0    0  501  503 -0.00000000000E+00 -0.00000000000E+00 -0.66233374816E+02  0.66233374816E+02  0.00000000000E+00 0. -1.
          6    2    1    2  501    0  0.18879539196E+02  0.23198668968E+03  0.37475973370E+03  0.47501134719E+03  0.17611547568E+03 0.  0.
         24    2    3    3    0    0  0.68173003714E+02  0.12033962466E+03  0.27264312908E+03  0.31581083303E+03  0.79202416159E+02 0.  0.
         -6    2    1    2    0  502 -0.18879539196E+02 -0.23198668968E+03  0.12768802045E+04  0.13090953407E+04  0.17068477683E+03 0.  0.
        -24    2    5    5    0    0 -0.60679596784E+02 -0.18093930961E+03  0.73748211777E+03  0.76565678312E+03  0.77002521253E+02 0.  0.
          5    1    3    3  501    0 -0.49293464519E+02  0.11164706502E+03  0.10211660462E+03  0.15920051416E+03  0.47000000000E+01 0. -1.
        -11    1    4    4    0    0  0.35791928794E+02  0.85286183091E+01  0.10859610532E+03  0.11465999122E+03  0.00000000000E+00 0.  1.
         12    1    4    4    0    0  0.32381074920E+02  0.11181100635E+03  0.16404702377E+03  0.20115084181E+03  0.00000000000E+00 0. -1.
         -5    1    5    5    0  502  0.41800057588E+02 -0.51047380067E+02  0.53939808676E+03  0.54343855754E+03  0.47000000000E+01 0.  1.
         11    1    6    6    0    0 -0.32779543642E+02 -0.16089515880E+03  0.67129566505E+03  0.69108582717E+03  0.00000000000E+00 0. -1.
        -12    1    6    6    0    0 -0.27900053142E+02 -0.20044150811E+02  0.66186452725E+02  0.74570955951E+02  0.00000000000E+00 0.  1.
</event>
<event>
12    1  0.8133506E-002  0.1943480E+03  0.7818608E-02  0.1156382E+00
         21   -1    0    0  503  502  0.00000000000E+00  0.00000000000E+00  0.20712044019E+03  0.20712044019E+03  0.00000000000E+00 0. -1.
         21   -1    0    0  501  503 -0.00000000000E+00 -0.00000000000E+00 -0.17799254033E+03  0.17799254033E+03  0.00000000000E+00 0. -1.
          6    2    1    2  501    0 -0.63155630202E+02 -0.61676714050E+02 -0.10262605526E+02  0.19461873294E+03  0.17314294515E+03 0.  0.
         24    2    3    3    0    0 -0.34004470756E+02  0.26938721476E+02  0.25596343276E+02  0.94566547957E+02  0.80035370039E+02 0.  0.
         -6    2    1    2    0  502  0.63155630202E+02  0.61676714050E+02  0.39390505385E+02  0.19049424758E+03  0.16414565412E+03 0.  0.
        -24    2    5    5    0    0  0.90862044085E+02  0.18639471470E+02  0.54554705704E+02  0.13690420569E+03  0.84635717451E+02 0.  0.
          5    1    3    3  501    0 -0.29151159447E+02 -0.88615435526E+02 -0.35858948802E+02  0.10005218498E+03  0.47000000000E+01 0. -1.
        -11    1    4    4    0    0 -0.36332239353E+02 -0.12656560350E+02 -0.11606173301E+02  0.40186109478E+02  0.00000000000E+00 0.  1.
         12    1    4    4    0    0  0.23277685974E+01  0.39595281826E+02  0.37202516577E+02  0.54380438479E+02  0.00000000000E+00 0. -1.
         -5    1    5    5    0  502 -0.27706413883E+02  0.43037242580E+02 -0.15164200319E+02  0.53590041896E+02  0.47000000000E+01 0.  1.
         13    1    6    6    0    0  0.52144855647E+02 -0.74102596156E+01 -0.13514756086E+02  0.54375054483E+02  0.00000000000E+00 0. -1.
        -14    1    6    6    0    0  0.38717188438E+02  0.26049731086E+02  0.68069461789E+02  0.82529151204E+02  0.00000000000E+00 0.  1.
</event>
<event>
12    1  0.8133506E-002  0.1739646E+03  0.7818608E-02  0.1174245E+00
         21   -1    0    0  503  502  0.00000000000E+00  0.00000000000E+00  0.15932532661E+03  0.15932532661E+03  0.00000000000E+00 0.  1.
         21   -1    0    0  501  503 -0.00000000000E+00 -0.00000000000E+00 -0.35019139832E+03  0.35019139832E+03  0.00000000000E+00 0.  1.
          6    2    1    2  501    0  0.10143840719E+01  0.14671932258E+02 -0.26911462995E+03  0.32044714153E+03  0.17334183537E+03 0.  0.
         24    2    3    3    0    0 -0.61432291718E+02 -0.19461269198E+02 -0.16658185617E+03  0.19554829262E+03  0.79604977721E+02 0.  0.
         -6    2    1    2    0  502 -0.10143840719E+01 -0.14671932258E+02  0.78248558243E+02  0.18906958340E+03  0.17148812183E+03 0.  0.
        -24    2    5    5    0    0  0.58397913120E+02  0.13597039197E+02  0.44747491894E+02  0.11508737438E+03  0.87450385821E+02 0.  0.
          5    1    3    3  501    0  0.62446675790E+02  0.34133201455E+02 -0.10253277378E+03  0.12489884890E+03  0.47000000000E+01 0. -1.
        -13    1    4    4    0    0 -0.42524423422E+02 -0.49281497367E+02 -0.88558887842E+02  0.10990754836E+03  0.00000000000E+00 0.  1.
         14    1    4    4    0    0 -0.18907868296E+02  0.29820228169E+02 -0.78022968328E+02  0.85640744265E+02  0.00000000000E+00 0. -1.
         -5    1    5    5    0  502 -0.59412297192E+02 -0.28268971455E+02  0.33501066349E+02  0.73982209019E+02  0.47000000000E+01 0.  1.
         13    1    6    6    0    0 -0.18364731874E+02 -0.92444186998E+01 -0.45292132970E+01  0.21053180923E+02  0.00000000000E+00 0. -1.
        -14    1    6    6    0    0  0.76762644995E+02  0.22841457897E+02  0.49276705191E+02  0.94034193461E+02  0.00000000000E+00 0.  1.
</event>
<event>
12    1  0.8133506E-002  0.2112970E+03  0.7818608E-02  0.1141201E+00
         21   -1    0    0  501  502  0.00000000000E+00  0.00000000000E+00  0.41720813510E+03  0.41720813510E+03  0.00000000000E+00 0. -1.
         21   -1    0    0  502  503 -0.00000000000E+00 -0.00000000000E+00 -0.17735571454E+03  0.17735571454E+03  0.00000000000E+00 0. -1.
         -6    2    1    2    0  503  0.15218554386E+01 -0.11703835391E+03  0.30992599210E+03  0.37510069171E+03  0.17591508183E+03 0.  0.
        -24    2    3    3    0    0 -0.64744426680E+02 -0.97147669150E+02  0.19612687968E+03  0.24183709025E+03  0.79936943159E+02 0.  0.
          6    2    1    2  501    0 -0.15218554386E+01  0.11703835391E+03 -0.70073571541E+02  0.21946315794E+03  0.17191125598E+03 0.  0.
         24    2    5    5    0    0  0.89592667502E+01 -0.76706934347E+01 -0.41053063543E+02  0.90907799059E+02  0.80248152035E+02 0.  0.
          5    1    5    5  501    0 -0.10481122189E+02  0.12470904734E+03 -0.29020507998E+02  0.12855535888E+03  0.47000000000E+01 0. -1.
        -11    1    6    6    0    0  0.43847665467E+02  0.39449926174E+01 -0.26336255361E+02  0.51300868220E+02  0.00000000000E+00 0.  1.
         12    1    6    6    0    0 -0.34888398716E+02 -0.11615686052E+02 -0.14716808182E+02  0.39606930839E+02  0.00000000000E+00 0. -1.
         -5    1    3    3    0  503  0.66266282119E+02 -0.19890684758E+02  0.11379911242E+03  0.13326360146E+03  0.47000000000E+01 0.  1.
         13    1    4    4    0    0 -0.22994734043E+02 -0.84119760446E+02  0.16954393259E+03  0.19065685660E+03  0.00000000000E+00 0. -1.
        -14    1    4    4    0    0 -0.41749692638E+02 -0.13027908705E+02  0.26582947087E+02  0.51180233649E+02  0.00000000000E+00 0.  1.
</event>
<event>
12    1  0.8133506E-002  0.2277094E+03  0.7818608E-02  0.1128402E+00
         21   -1    0    0  501  502  0.00000000000E+00  0.00000000000E+00  0.49879343166E+02  0.49879343166E+02  0.00000000000E+00 0. -1.
         21   -1    0    0  502  503 -0.00000000000E+00 -0.00000000000E+00 -0.10502133628E+04  0.10502133628E+04  0.00000000000E+00 0. -1.
         -6    2    1    2    0  503 -0.12677171441E+03 -0.77710019995E+02 -0.43525903852E+03  0.49086260471E+03  0.17142272691E+03 0.  0.
        -24    2    3    3    0    0 -0.56025545957E+02  0.25884194223E+02 -0.16489092270E+03  0.19277236732E+03  0.78506788900E+02 0.  0.
          6    2    1    2  501    0  0.12677171441E+03  0.77710019995E+02 -0.56507498114E+03  0.60923010129E+03  0.17245772590E+03 0.  0.
         24    2    5    5    0    0  0.24344891446E+01  0.62786444803E+02 -0.22273401625E+03  0.24467299338E+03  0.79412639466E+02 0.  0.
          5    1    5    5  501    0  0.12433722527E+03  0.14923575191E+02 -0.34234096489E+03  0.36455710791E+03  0.47000000000E+01 0. -1.
        -11    1    6    6    0    0  0.29696844838E+02  0.65859400843E+02 -0.14054850571E+03  0.15802925593E+03  0.00000000000E+00 0.  1.
         12    1    6    6    0    0 -0.27262355694E+02 -0.30729560391E+01 -0.82185510535E+02  0.86643737446E+02  0.00000000000E+00 0. -1.
         -5    1    3    3    0  503 -0.70746168457E+02 -0.10359421422E+03 -0.27036811582E+03  0.29809023738E+03  0.47000000000E+01 0.  1.
         13    1    4    4    0    0 -0.26862730811E+02  0.81402547229E+01 -0.15458670542E+03  0.15711435182E+03  0.00000000000E+00 0. -1.
        -14    1    4    4    0    0 -0.29162815146E+02  0.17743939500E+02 -0.10304217283E+02  0.35658015509E+02  0.00000000000E+00 0.  1.
</event>
<event>
12    1  0.8133506E-002  0.1788828E+03  0.7818608E-02  0.1168909E+00
         21   -1    0    0  501  502  0.00000000000E+00  0.00000000000E+00  0.13126588934E+04  0.13126588934E+04  0.00000000000E+00 0.  1.
         21   -1    0    0  502  503 -0.00000000000E+00 -0.00000000000E+00 -0.51141867805E+02  0.51141867805E+02  0.00000000000E+00 0.  1.
         -6    2    1    2    0  503  0.40934379471E+02  0.25148663551E+02  0.13742232514E+03  0.22557473191E+03  0.17231072378E+03 0.  0.
        -24    2    3    3    0    0  0.26187291043E+02  0.68675010786E+02  0.14217207343E+03  0.17913477466E+03  0.80463269317E+02 0.  0.
          6    2    1    2  501    0 -0.40934379471E+02 -0.25148663551E+02  0.11240947005E+04  0.11382260293E+04  0.17222519989E+03 0.  0.
         24    2    5    5    0    0 -0.25593957044E+02  0.51736630669E+02  0.54022831405E+03  0.54910064009E+03  0.79581103671E+02 0.  0.
          5    1    5    5  501    0 -0.15340422427E+02 -0.76885294220E+02  0.58386638645E+03  0.58912538925E+03  0.47000000000E+01 0. -1.
        -11    1    6    6    0    0 -0.24947864208E+02 -0.14759032755E+02  0.10961148203E+03  0.11337946009E+03  0.00000000000E+00 0.  1.
         12    1    6    6    0    0 -0.64609283554E+00  0.66495663425E+02  0.43061683202E+03  0.43572118001E+03  0.00000000000E+00 0. -1.
         -5    1    3    3    0  503  0.14747088428E+02 -0.43526347235E+02 -0.47497482916E+01  0.46439957252E+02  0.47000000000E+01 0.  1.
         11    1    4    4    0    0  0.45900906611E+02  0.11103749715E+02  0.50866689067E+02  0.69408980270E+02  0.00000000000E+00 0. -1.
        -12    1    4    4    0    0 -0.19713615568E+02  0.57571261071E+02  0.91305384364E+02  0.10972579439E+03  0.00000000000E+00 0.  1.
</event>
<event>
12    1  0.8133506E-002  0.1848192E+03  0.7818608E-02  0.1163744E+00
         21   -1    0    0  501  502  0.00000000000E+00  0.00000000000E+00  0.71553997084E+02  0.71553997084E+02  0.00000000000E+00 0.  1.
         21   -1    0    0  502  503 -0.00000000000E+00 -0.00000000000E+00 -0.47456531990E+03  0.47456531990E+03  0.00000000000E+00 0.  1.
         -6    2    1    2    0  503  0.16550580634E+02 -0.70028378092E+02 -0.18124388070E+03  0.25885800526E+03  0.17023579864E+03 0.  0.
        -24    2    3    3    0    0 -0.56664401436E+01 -0.30165533985E+02 -0.16571908270E+02  0.87914766565E+02  0.80698885073E+02 0.  0.
          6    2    1    2  501    0 -0.16550580634E+02  0.70028378092E+02 -0.22176744212E+03  0.28726131173E+03  0.16781051031E+03 0.  0.
         24    2    5    5    0    0 -0.61288969830E+02  0.87075541077E+02 -0.14973564644E+03  0.20064261384E+03  0.80611456994E+02 0.  0.
          5    1    5    5  501    0  0.44738389196E+02 -0.17047162986E+02 -0.72031795685E+02  0.86618697884E+02  0.47000000000E+01 0. -1.
        -11    1    6    6    0    0 -0.32326384422E+02  0.63562436763E+02 -0.14682217612E+03  0.16322355804E+03  0.00000000000E+00 0.  1.
         12    1    6    6    0    0 -0.28962585408E+02  0.23513104314E+02 -0.29134703144E+01  0.37419055804E+02  0.00000000000E+00 0. -1.
         -5    1    3    3    0  503  0.22217020778E+02 -0.39862844106E+02 -0.16467197243E+03  0.17094323869E+03  0.47000000000E+01 0.  1.
         13    1    4    4    0    0 -0.32238252304E+02 -0.45296514866E+02 -0.80956659599E+01  0.56183796400E+02  0.00000000000E+00 0. -1.
        -14    1    4    4    0    0  0.26571812160E+02  0.15130980881E+02 -0.84762423100E+01  0.31730970165E+02  0.00000000000E+00 0.  1.
</event>
<event>
12    1  0.8133506E-002  0.1846531E+03  0.7818608E-02  0.1163382E+00
         21   -1    0    0  503  502  0.00000000000E+00  0.00000000000E+00  0.10104229224E+03  0.10104229224E+03  0.00000000000E+00 0.  1.
         21   -1    0    0  501  503 -0.00000000000E+00 -0.00000000000E+00 -0.61729730543E+03  0.61729730543E+03  0.00000000000E+00 0.  1.
          6    2    1    2  501    0 -0.39760960822E+02  0.54834520082E+02 -0.49997270343E+03  0.53297006540E+03  0.17174582334E+03 0.  0.
         24    2    3    3    0    0 -0.53852326621E+02  0.47757871001E+02 -0.50443111377E+03  0.51592269097E+03  0.80898622907E+02 0.  0.
         -6    2    1    2    0  502  0.39760960822E+02 -0.54834520082E+02 -0.16282309758E+02  0.18536953228E+03  0.17178181303E+03 0.  0.
        -24    2    5    5    0    0 -0.39381641869E+02 -0.44486987421E+02  0.12968784544E+02  0.10023235173E+03  0.79676403003E+02 0.  0.
          5    1    3    3  501    0  0.14091365799E+02  0.70766490806E+01  0.44584103381E+01  0.17047374433E+02  0.47000000000E+01 0. -1.
        -13    1    4    4    0    0 -0.62565139068E+02  0.46320562334E+02 -0.26174273583E+03  0.27307370961E+03  0.00000000000E+00 0.  1.
         14    1    4    4    0    0  0.87128124470E+01  0.14373086673E+01 -0.24268837794E+03  0.24284898136E+03  0.00000000000E+00 0. -1.
         -5    1    5    5    0  502  0.79142602690E+02 -0.10347532661E+02 -0.29251094302E+02  0.85137180542E+02  0.47000000000E+01 0.  1.
         13    1    6    6    0    0 -0.18155191283E+02  0.22145734401E+02  0.96610669620E+01  0.30222189489E+02  0.00000000000E+00 0. -1.
        -14    1    6    6    0    0 -0.21226450585E+02 -0.66632721822E+02  0.33077175823E+01  0.70010162244E+02  0.00000000000E+00 0.  1.
</event>
<event>
12    1  0.8133506E-002  0.1902509E+03  0.7818608E-02  0.1161366E+00
         21   -1    0    0  501  502  0.00000000000E+00  0.00000000000E+00  0.24807071473E+02  0.24807071473E+02  0.00000000000E+00 0. -1.
         21   -1    0    0  502  503 -0.00000000000E+00 -0.00000000000E+00 -0.15412454653E+04  0.15412454653E+04  0.00000000000E+00 0. -1.
         -6    2    1    2    0  503  0.26396810134E+02  0.43958231567E+02 -0.10521857689E+04  0.10692475445E+04  0.18321108398E+03 0.  0.
        -24    2    3    3    0    0 -0.35500063458E+00  0.63997574538E+02 -0.10102623521E+04  0.10154247099E+04  0.79759048119E+02 0.  0.
          6    2    1    2  501    0 -0.26396810134E+02 -0.43958231567E+02 -0.46425262491E+03  0.49680499233E+03  0.16927959994E+03 0.  0.
         24    2    5    5    0    0  0.89884380892E+01 -0.75849810431E+02 -0.20243371675E+03  0.23064635680E+03  0.79902105517E+02 0.  0.
          5    1    5    5  501    0 -0.35385248223E+02  0.31891578864E+02 -0.26181890816E+03  0.26615863553E+03  0.47000000000E+01 0. -1.
        -13    1    6    6    0    0  0.19677366908E+02  0.98986657977E+01 -0.25203819678E+02  0.33472598934E+02  0.00000000000E+00 0.  1.
         14    1    6    6    0    0 -0.10688928819E+02 -0.85748476228E+02 -0.17722989707E+03  0.19717375787E+03  0.00000000000E+00 0. -1.
         -5    1    3    3    0  503  0.26751810769E+02 -0.20039342971E+02 -0.41923416851E+02  0.53822834621E+02  0.47000000000E+01 0.  1.
         11    1    4    4    0    0  0.11478532877E+01  0.30327219333E+02 -0.99187315074E+02  0.10372647334E+03  0.00000000000E+00 0. -1.
        -12    1    4    4    0    0 -0.15028539223E+01  0.33670355205E+02 -0.91107503702E+03  0.91169823651E+03  0.00000000000E+00 0.  1.
</event>
<event>
12    1  0.8133506E-002  0.3352067E+03  0.7818608E-02  0.1069324E+00
         21   -1    0    0  503  502  0.00000000000E+00  0.00000000000E+00  0.11957822080E+03  0.11957822080E+03  0.00000000000E+00 0. -1.
         21   -1    0    0  501  503 -0.00000000000E+00 -0.00000000000E+00 -0.17014631226E+04  0.17014631226E+04  0.00000000000E+00 0. -1.
          6    2    1    2  501    0 -0.27618330820E+03 -0.56169313446E+02 -0.14077321876E+04  0.14470913701E+04  0.18146985948E+03 0.  0.
         24    2    3    3    0    0 -0.25574471765E+03  0.47664854311E+01 -0.10891356014E+04  0.11220424779E+04  0.85643937466E+02 0.  0.
         -6    2    1    2    0  502  0.27618330820E+03  0.56169313446E+02 -0.17415271417E+03  0.37394997328E+03  0.17342780388E+03 0.  0.
        -24    2    5    5    0    0  0.14848661026E+03  0.68130611145E+02 -0.35669391918E+02  0.18513991038E+03  0.79463370781E+02 0.  0.
          5    1    3    3  501    0 -0.20438590549E+02 -0.60935798877E+02 -0.31859658620E+03  0.32504889218E+03  0.47000000000E+01 0. -1.
        -13    1    4    4    0    0 -0.75971646317E+02 -0.13465388590E+01 -0.18165126076E+03  0.19690272915E+03  0.00000000000E+00 0.  1.
         14    1    4    4    0    0 -0.17977307133E+03  0.61130242901E+01 -0.90748434064E+03  0.92513974876E+03  0.00000000000E+00 0. -1.
         -5    1    5    5    0  502  0.12769669794E+03 -0.11961297700E+02 -0.13848332225E+03  0.18881006289E+03  0.47000000000E+01 0.  1.
         11    1    6    6    0    0  0.91546267505E+01 -0.81093510642E+01  0.14131324197E+02  0.18688581787E+02  0.00000000000E+00 0. -1.
        -12    1    6    6    0    0  0.13933198351E+03  0.76239962210E+02 -0.49800716116E+02  0.16645132860E+03  0.00000000000E+00 0.  1.
</event>
<event>
12    1  0.8133506E-002  0.1930258E+03  0.7818608E-02  0.1155947E+00
         21   -1    0    0  503  502  0.00000000000E+00  0.00000000000E+00  0.29989331744E+03  0.29989331744E+03  0.00000000000E+00 0.  1.
         21   -1    0    0  501  503 -0.00000000000E+00 -0.00000000000E+00 -0.18264385853E+03  0.18264385853E+03  0.00000000000E+00 0. -1.
          6    2    1    2  501    0  0.40185011049E+02  0.77384152500E+02 -0.78352059620E+02  0.20832186995E+03  0.17220863533E+03 0.  0.
         24    2    3    3    0    0  0.99758800455E+01  0.10217474093E+03 -0.98522744967E+02  0.16409392157E+03  0.81736698928E+02 0.  0.
         -6    2    1    2    0  502 -0.40185011049E+02 -0.77384152500E+02  0.19560151853E+03  0.27421530602E+03  0.17126277423E+03 0.  0.
        -24    2    5    5    0    0  0.31720785589E+02 -0.37463503909E+02  0.50722957467E+02  0.10755400509E+03  0.81150004516E+02 0.  0.
          5    1    3    3  501    0  0.30209131004E+02 -0.24790588432E+02  0.20170685347E+02  0.44227948383E+02  0.47000000000E+01 0. -1.
        -11    1    4    4    0    0 -0.25591432673E+02  0.86648458330E+02 -0.54961064075E+02  0.10575251922E+03  0.00000000000E+00 0.  1.
         12    1    4    4    0    0  0.35567312718E+02  0.15526282602E+02 -0.43561680892E+02  0.58341402345E+02  0.00000000000E+00 0. -1.
         -5    1    5    5    0  502 -0.71905796638E+02 -0.39920648591E+02  0.14487856106E+03  0.16666130093E+03  0.47000000000E+01 0.  1.
         11    1    6    6    0    0  0.23937306679E+02 -0.60837966425E+02  0.20404462807E+02  0.68487918002E+02  0.00000000000E+00 0. -1.
        -12    1    6    6    0    0  0.77834789096E+01  0.23374462516E+02  0.30318494660E+02  0.39066087087E+02  0.00000000000E+00 0.  1.
</event>
<event>
12    1  0.8133506E-002  0.2224721E+03  0.7818608E-02  0.1132276E+00
         21   -1    0    0  503  502  0.00000000000E+00  0.00000000000E+00  0.31092942774E+03  0.31092942774E+03  0.00000000000E+00 0. -1.
         21   -1    0    0  501  503 -0.00000000000E+00 -0.00000000000E+00 -0.16079091035E+03  0.16079091035E+03  0.00000000000E+00 0. -1.
          6    2    1    2  501    0  0.92373512619E+02  0.10361240558E+03  0.46008750272E+02  0.22717970972E+03  0.17385459149E+03 0.  0.
         24    2    3    3    0    0 -0.12317527341E+02  0.68068575333E+02  0.47971350616E+02  0.11650216224E+03  0.80538505685E+02 0.  0.
         -6    2    1    2    0  502 -0.92373512619E+02 -0.10361240558E+03  0.10412976711E+03  0.24454062837E+03  0.17230413257E+03 0.  0.
        -24    2    5    5    0    0 -0.93434425737E+02 -0.13520712672E+03  0.10125856167E+03  0.21245191133E+03  0.88721808423E+02 0.  0.
          5    1    3    3  501    0  0.10469103996E+03  0.35543830247E+02 -0.19626003440E+01  0.11067754748E+03  0.47000000000E+01 0. -1.
        -13    1    4    4    0    0 -0.28161484529E+02  0.51737107645E+01 -0.91663666134E+01  0.30064244059E+02  0.00000000000E+00 0.  1.
         14    1    4    4    0    0  0.15843957188E+02  0.62894864568E+02  0.57137717229E+02  0.86437918176E+02  0.00000000000E+00 0. -1.
         -5    1    5    5    0  502  0.10609131178E+01  0.31594721137E+02  0.28712054453E+01  0.32088717037E+02  0.47000000000E+01 0.  1.
         13    1    6    6    0    0 -0.18176758723E+02 -0.13097784528E+02 -0.15713894459E+02  0.27365543961E+02  0.00000000000E+00 0. -1.
        -14    1    6    6    0    0 -0.75257667014E+02 -0.12210934219E+03  0.11697245613E+03  0.18508636737E+03  0.00000000000E+00 0.  1.
</event>
<event>
12    1  0.8133506E-002  0.2085488E+03  0.7818608E-02  0.1142828E+00
         21   -1    0    0  501  502  0.00000000000E+00  0.00000000000E+00  0.15352148388E+03  0.15352148388E+03  0.00000000000E+00 0.  1.
         21   -1    0    0  502  503 -0.00000000000E+00 -0.00000000000E+00 -0.36525146853E+03  0.36525146853E+03  0.00000000000E+00 0.  1.
         -6    2    1    2    0  503 -0.11435634547E+03 -0.32199439824E+02 -0.22917192082E+03  0.30949606382E+03  0.17074503375E+03 0.  0.
        -24    2    3    3    0    0 -0.83658178824E+02  0.35924952069E+01 -0.51658121624E+02  0.12576615619E+03  0.78338800146E+02 0.  0.
          6    2    1    2  501    0  0.11435634547E+03  0.32199439824E+02  0.17441936172E+02  0.20927688860E+03  0.17140133398E+03 0.  0.
         24    2    5    5    0    0  0.12503768080E+03  0.34563988257E+02 -0.34261413154E+02  0.15622023638E+03  0.80011417422E+02 0.  0.
          5    1    5    5  501    0 -0.10681335329E+02 -0.23645484334E+01  0.51703349325E+02  0.53056652223E+02  0.47000000000E+01 0. -1.
        -13    1    6    6    0    0  0.11075077555E+03  0.53135581093E+02 -0.44499948450E+02  0.13064979783E+03  0.00000000000E+00 0.  1.
         14    1    6    6    0    0  0.14286905254E+02 -0.18571592835E+02  0.10238535296E+02  0.25570438541E+02  0.00000000000E+00 0. -1.
         -5    1    3    3    0  503 -0.30698166647E+02 -0.35791935031E+02 -0.17751379920E+03  0.18372990762E+03  0.47000000000E+01 0.  1.
         13    1    4    4    0    0 -0.32900184160E+02 -0.31220117169E+02  0.87162654954E-01  0.45355544657E+02  0.00000000000E+00 0. -1.
        -14    1    4    4    0    0 -0.50757994664E+02  0.34812612376E+02 -0.51745284279E+02  0.80410611538E+02  0.00000000000E+00 0.  1.
</event>
<event>
12    1  0.8133506E-002  0.2228740E+03  0.7818608E-02  0.1132444E+00
         21   -1    0    0  503  502  0.00000000000E+00  0.00000000000E+00  0.99623353569E+02  0.99623353569E+02  0.00000000000E+00 0.  1.
         21   -1    0    0  501  503 -0.00000000000E+00 -0.00000000000E+00 -0.50399506756E+03  0.50399506756E+03  0.00000000000E+00 0. -1.
          6    2    1    2  501    0 -0.58702119056E+02 -0.12878481812E+03 -0.25020271987E+03  0.33261858885E+03  0.16733874764E+03 0.  0.
         24    2    3    3    0    0 -0.49568628596E+02 -0.12439249484E+03 -0.10468715443E+03  0.18667482250E+03  0.77185149733E+02 0.  0.
         -6    2    1    2    0  502  0.58702119056E+02  0.12878481812E+03 -0.15416899412E+03  0.27099983227E+03  0.17216666978E+03 0.  0.
        -24    2    5    5    0    0 -0.24827409486E+02  0.10531770745E+03 -0.10969053294E+03  0.17338676485E+03  0.79515642782E+02 0.  0.
          5    1    3    3  501    0 -0.91334904604E+01 -0.43923232761E+01 -0.14551556544E+03  0.14594376636E+03  0.47000000000E+01 0. -1.
        -11    1    4    4    0    0 -0.41322129150E+02 -0.17159261123E+02 -0.45930433693E+02  0.64121473306E+02  0.00000000000E+00 0.  1.
         12    1    4    4    0    0 -0.82464994459E+01 -0.10723323372E+03 -0.58756720733E+02  0.12255334919E+03  0.00000000000E+00 0. -1.
         -5    1    5    5    0  502  0.83529528542E+02  0.23467110673E+02 -0.44478461185E+02  0.97613067420E+02  0.47000000000E+01 0.  1.
         11    1    6    6    0    0 -0.48297506804E+01  0.51069717488E+02 -0.10315006684E+03  0.11520147059E+03  0.00000000000E+00 0. -1.
        -12    1    6    6    0    0 -0.19997658805E+02  0.54247989958E+02 -0.65404660949E+01  0.58185294267E+02  0.00000000000E+00 0.  1.
</event>
<event>
12    1  0.8133506E-002  0.1914458E+03  0.7818608E-02  0.1157822E+00
         21   -1    0    0  501  502  0.00000000000E+00  0.00000000000E+00  0.16247716273E+04  0.16247716273E+04  0.00000000000E+00 0. -1.
         21   -1    0    0  502  503 -0.00000000000E+00 -0.00000000000E+00 -0.22776775131E+02  0.22776775131E+02  0.00000000000E+00 0. -1.
         -6    2    1    2    0  503 -0.69942482371E+02 -0.53217765056E+02  0.66559517733E+03  0.69177864464E+03  0.16678330771E+03 0.  0.
        -24    2    3    3    0    0 -0.48351412102E+01 -0.13074343274E+01  0.49787837735E+03  0.50446963976E+03  0.81127374162E+02 0.  0.
          6    2    1    2  501    0  0.69942482371E+02  0.53217765056E+02  0.93639967483E+03  0.95576975779E+03  0.17008056185E+03 0.  0.
         24    2    5    5    0    0  0.50068051078E+01  0.59951968016E+02  0.75871054974E+03  0.76640897292E+03  0.90120524382E+02 0.  0.
          5    1    5    5  501    0  0.64935677263E+02 -0.67342029606E+01  0.17768912509E+03  0.18936078487E+03  0.47000000000E+01 0. -1.
        -11    1    6    6    0    0 -0.13718796663E+02 -0.19253533515E+02  0.26310414247E+03  0.26416414163E+03  0.00000000000E+00 0.  1.
         12    1    6    6    0    0  0.18725601770E+02  0.79205501531E+02  0.49560640727E+03  0.50224483129E+03  0.00000000000E+00 0. -1.
         -5    1    3    3    0  503 -0.65107341161E+02 -0.51910330728E+02  0.16771679999E+03  0.18730900488E+03  0.47000000000E+01 0.  1.
         11    1    4    4    0    0 -0.12658583042E+02 -0.14675045078E+02  0.26467317385E+02  0.32804200375E+02  0.00000000000E+00 0. -1.
        -12    1    4    4    0    0  0.78234418318E+01  0.13367610750E+02  0.47141105996E+03  0.47166543939E+03  0.00000000000E+00 0.  1.
</event>
<event>
12    1  0.8133506E-002  0.2435857E+03  0.7818608E-02  0.1117703E+00
         21   -1    0    0  503  502  0.00000000000E+00  0.00000000000E+00  0.88384327344E+03  0.88384327344E+03  0.00000000000E+00 0.  1.
         21   -1    0    0  501  503 -0.00000000000E+00 -0.00000000000E+00 -0.15219328329E+03  0.15219328329E+03  0.00000000000E+00 0.  1.
          6    2    1    2  501    0 -0.14294446124E+03 -0.97263809442E+02 -0.23052335051E+02  0.24299835523E+03  0.16918458223E+03 0.  0.
         24    2    3    3    0    0 -0.16274443729E+03 -0.57623933539E+02  0.45771865534E+01  0.19056898104E+03  0.80556292815E+02 0.  0.
         -6    2    1    2    0  502  0.14294446124E+03  0.97263809442E+02  0.75470232520E+03  0.79303820150E+03  0.17158269657E+03 0.  0.
        -24    2    5    5    0    0  0.65349269685E+02  0.39719666827E+02  0.18679535754E+03  0.21695421803E+03  0.79551543930E+02 0.  0.
          5    1    3    3  501    0  0.19799976054E+02 -0.39639875903E+02 -0.27629521604E+02  0.52429374185E+02  0.47000000000E+01 0. -1.
        -11    1    4    4    0    0 -0.47622829317E+02 -0.56313765739E+02  0.13951998236E+02  0.75058859162E+02  0.00000000000E+00 0.  1.
         12    1    4    4    0    0 -0.11512160798E+03 -0.13101678000E+01 -0.93748116825E+01  0.11551012188E+03  0.00000000000E+00 0. -1.
         -5    1    5    5    0  502  0.77595191553E+02  0.57544142615E+02  0.56790696765E+03  0.57608398347E+03  0.47000000000E+01 0.  1.
         13    1    6    6    0    0  0.47802312274E+02 -0.41870500407E+01  0.14864827163E+03  0.15620147601E+03  0.00000000000E+00 0. -1.
        -14    1    6    6    0    0  0.17546957411E+02  0.43906716868E+02  0.38147085910E+02  0.60752742028E+02  0.00000000000E+00 0.  1.
</event>
<event>
12    1  0.8133506E-002  0.1994432E+03  0.7818608E-02  0.1154496E+00
         21   -1    0    0  503  502  0.00000000000E+00  0.00000000000E+00  0.86963250595E+02  0.86963250595E+02  0.00000000000E+00 0. -1.
         21   -1    0    0  501  503 -0.00000000000E+00 -0.00000000000E+00 -0.41937876594E+03  0.41937876594E+03  0.00000000000E+00 0. -1.
          6    2    1    2  501    0 -0.41923239434E+02  0.28243895246E+02 -0.18526459465E+03  0.25848926624E+03  0.17302732475E+03 0.  0.
         24    2    3    3    0    0 -0.23515425056E+02 -0.48218733457E+02 -0.13468051079E+03  0.16486116812E+03  0.78500594234E+02 0.  0.
         -6    2    1    2    0  502  0.41923239434E+02 -0.28243895246E+02 -0.14715092070E+03  0.24785275030E+03  0.19293086001E+03 0.  0.
        -24    2    5    5    0    0  0.58185451062E+02  0.46051065573E+02 -0.28034366791E+02  0.10644891673E+03  0.70987314338E+02 0.  0.
          5    1    3    3  501    0 -0.18407814379E+02  0.76462628703E+02 -0.50584083852E+02  0.93628098120E+02  0.47000000000E+01 0. -1.
        -13    1    4    4    0    0  0.16437933179E+02 -0.24038123903E+02 -0.85313084816E+01  0.30345020553E+02  0.00000000000E+00 0.  1.
         14    1    4    4    0    0 -0.39953358234E+02 -0.24180609554E+02 -0.12614920231E+03  0.13451614757E+03  0.00000000000E+00 0. -1.
         -5    1    5    5    0  502 -0.16262211628E+02 -0.74294960819E+02 -0.11911655391E+03  0.14140383356E+03  0.47000000000E+01 0.  1.
         13    1    6    6    0    0  0.56358577478E+02  0.12445050752E+02  0.66760046204E+01  0.58101097934E+02  0.00000000000E+00 0. -1.
        -14    1    6    6    0    0  0.18268735846E+01  0.33606014821E+02 -0.34710371411E+02  0.48347818800E+02  0.00000000000E+00 0.  1.
</event>
<event>
12    1  0.8133506E-002  0.2049378E+03  0.7818608E-02  0.1147833E+00
         21   -1    0    0  501  502  0.00000000000E+00  0.00000000000E+00  0.18927883826E+04  0.18927883826E+04  0.00000000000E+00 0. -1.
         21   -1    0    0  502  503 -0.00000000000E+00 -0.00000000000E+00 -0.27882200488E+02  0.27882200488E+02  0.00000000000E+00 0.  1.
         -6    2    1    2    0  503  0.58226421797E+02 -0.72373062705E+02  0.47641761520E+03  0.51862631881E+03  0.18267823649E+03 0.  0.
        -24    2    3    3    0    0  0.66215133351E+02  0.26039561764E+02  0.24463609480E+03  0.26664690027E+03  0.78684483117E+02 0.  0.
          6    2    1    2  501    0 -0.58226421797E+02  0.72373062705E+02  0.13884885669E+04  0.14020442642E+04  0.17087844263E+03 0.  0.
         24    2    5    5    0    0 -0.38828906519E+02  0.22855830402E+02  0.33808898239E+03  0.35028878079E+03  0.79799730372E+02 0.  0.
          5    1    5    5  501    0 -0.19397515278E+02  0.49517232302E+02  0.10503995845E+04  0.10517554834E+04  0.47000000000E+01 0. -1.
        -11    1    6    6    0    0 -0.45960500262E+02 -0.17673507210E+02  0.15507474469E+03  0.16270493810E+03  0.00000000000E+00 0.  1.
         12    1    6    6    0    0  0.71315937429E+01  0.40529337612E+02  0.18301423771E+03  0.18758384269E+03  0.00000000000E+00 0. -1.
         -5    1    3    3    0  503 -0.79887115539E+01 -0.98412624469E+02  0.23178152040E+03  0.25197941854E+03  0.47000000000E+01 0.  1.
         11    1    4    4    0    0  0.14526837186E+02 -0.25922236884E+02  0.44467546534E+02  0.53482277985E+02  0.00000000000E+00 0. -1.
        -12    1    4    4    0    0  0.51688296165E+02  0.51961798648E+02  0.20016854827E+03  0.21316462229E+03  0.00000000000E+00 0.  1.
</event>
<event>
12    1  0.8133506E-002  0.2132459E+03  0.7818608E-02  0.1141584E+00
         21   -1    0    0  503  502  0.00000000000E+00  0.00000000000E+00  0.55502569890E+02  0.55502569890E+02  0.00000000000E+00 0. -1.
         21   -1    0    0  501  503 -0.00000000000E+00 -0.00000000000E+00 -0.79638923493E+03  0.79638923493E+03  0.00000000000E+00 0. -1.
          6    2    1    2  501    0 -0.68850196662E+02  0.10536477243E+03 -0.45761272917E+03  0.50485959381E+03  0.17213864968E+03 0.  0.
         24    2    3    3    0    0 -0.64319185736E+02  0.13710325629E+03 -0.42787090058E+03  0.46087632669E+03  0.79995127398E+02 0.  0.
         -6    2    1    2    0  502  0.68850196662E+02 -0.10536477243E+03 -0.28327393587E+03  0.34703221101E+03  0.15602931739E+03 0.  0.
        -24    2    5    5    0    0  0.79797564319E+02 -0.23229828290E+02 -0.13965203995E+03  0.18115474752E+03  0.80044200863E+02 0.  0.
          5    1    3    3  501    0 -0.45310109253E+01 -0.31738483864E+02 -0.29741828593E+02  0.43983267115E+02  0.47000000000E+01 0. -1.
        -11    1    4    4    0    0  0.15971981206E+02  0.33572727174E+02 -0.13519522012E+03  0.14021404971E+03  0.00000000000E+00 0.  1.
         12    1    4    4    0    0 -0.80291166942E+02  0.10353052912E+03 -0.29267568046E+03  0.32066227699E+03  0.00000000000E+00 0. -1.
         -5    1    5    5    0  502 -0.10947367658E+02 -0.82134944140E+02 -0.14362189592E+03  0.16587746349E+03  0.47000000000E+01 0.  1.
         11    1    6    6    0    0  0.63731806850E+02 -0.51603039993E+02 -0.90026768748E+02  0.12177617186E+03  0.00000000000E+00 0. -1.
        -12    1    6    6    0    0  0.16065757470E+02  0.28373211704E+02 -0.49625271204E+02  0.59378575661E+02  0.00000000000E+00 0.  1.
</event>
<event>
12    1  0.8133506E-002  0.2001721E+03  0.7818608E-02  0.1153089E+00
         21   -1    0    0  503  502  0.00000000000E+00  0.00000000000E+00  0.24699335141E+02  0.24699335141E+02  0.00000000000E+00 0.  1.
         21   -1    0    0  501  503 -0.00000000000E+00 -0.00000000000E+00 -0.15569415491E+04  0.15569415491E+04  0.00000000000E+00 0.  1.
          6    2    1    2  501    0  0.47024814838E+02 -0.43054378868E+02 -0.95261311362E+03  0.97341698404E+03  0.18974685199E+03 0.  0.
         24    2    3    3    0    0  0.78384280669E+02 -0.53416568335E+02 -0.39661908835E+03  0.41642305481E+03  0.84285432359E+02 0.  0.
         -6    2    1    2    0  502 -0.47024814838E+02  0.43054378868E+02 -0.57962910039E+03  0.60822390024E+03  0.17292023034E+03 0.  0.
        -24    2    5    5    0    0 -0.66167710406E+02 -0.26090422869E+02 -0.26180431789E+03  0.28236789458E+03  0.78302304924E+02 0.  0.
          5    1    3    3  501    0 -0.31359465831E+02  0.10362189468E+02 -0.55599402527E+03  0.55699392923E+03  0.47000000000E+01 0. -1.
        -11    1    4    4    0    0  0.75683505230E+02 -0.38292345793E+02 -0.39095279344E+03  0.40004797639E+03  0.00000000000E+00 0.  1.
         12    1    4    4    0    0  0.27007754392E+01 -0.15124222542E+02 -0.56662949050E+01  0.16375078425E+02  0.00000000000E+00 0. -1.
         -5    1    5    5    0  502  0.19142895568E+02  0.69144801737E+02 -0.31782478250E+03  0.32585600567E+03  0.47000000000E+01 0.  1.
         13    1    6    6    0    0  0.20824277551E-02  0.13040581978E+02 -0.44526300090E+01  0.13779793055E+02  0.00000000000E+00 0. -1.
        -14    1    6    6    0    0 -0.66169792834E+02 -0.39131004847E+02 -0.25735168788E+03  0.26858810152E+03  0.00000000000E+00 0.  1.
</event>
<event>
12    1  0.8133506E-002  0.1744756E+03  0.7818608E-02  0.1174805E+00
         21   -1    0    0  501  502  0.00000000000E+00  0.00000000000E+00  0.88953634256E+02  0.88953634256E+02  0.00000000000E+00 0. -1.
         21   -1    0    0  502  503 -0.00000000000E+00 -0.00000000000E+00 -0.56802666749E+03  0.56802666749E+03  0.00000000000E+00 0. -1.
         -6    2    1    2    0  503  0.33955510082E+02  0.18322777799E+02 -0.44948278784E+03  0.48001334727E+03  0.16397968211E+03 0.  0.
        -24    2    3    3    0    0  0.45252852489E+01 -0.49815373816E+02 -0.24089291184E+03  0.25856183518E+03  0.79515897539E+02 0.  0.
          6    2    1    2  501    0 -0.33955510082E+02 -0.18322777799E+02 -0.29590245389E+02  0.17696695447E+03  0.17015586825E+03 0.  0.
         24    2    5    5    0    0  0.31076594261E+01 -0.42642928863E+02  0.31967308457E+02  0.10096319984E+03  0.85694702189E+02 0.  0.
          5    1    5    5  501    0 -0.37063169508E+02  0.24320151064E+02 -0.61557553846E+02  0.76003754626E+02  0.47000000000E+01 0. -1.
        -11    1    6    6    0    0  0.33208929552E+02 -0.58841579154E+01 -0.12423267831E+02  0.35941534469E+02  0.00000000000E+00 0.  1.
         12    1    6    6    0    0 -0.30101270126E+02 -0.36758770948E+02  0.44390576288E+02  0.65021665373E+02  0.00000000000E+00 0. -1.
         -5    1    3    3    0  503  0.29430224833E+02  0.68138151615E+02 -0.20858987600E+03  0.22145151209E+03  0.47000000000E+01 0.  1.
         13    1    4    4    0    0  0.37011237972E+02 -0.49047752245E+02 -0.15788793814E+03  0.16942288732E+03  0.00000000000E+00 0. -1.
        -14    1    4    4    0    0 -0.32485952723E+02 -0.76762157127E+00 -0.83004973702E+02  0.89138947865E+02  0.00000000000E+00 0.  1.
</event>
<event>
12    1  0.8133506E-002  0.1745215E+03  0.7818608E-02  0.1173408E+00
         21   -1    0    0  503  502  0.00000000000E+00  0.00000000000E+00  0.14000820647E+03  0.14000820647E+03  0.00000000000E+00 0.  1.
         21   -1    0    0  501  503 -0.00000000000E+00 -0.00000000000E+00 -0.67894808406E+03  0.67894808406E+03  0.00000000000E+00 0.  1.
          6    2    1    2  501    0 -0.13068002103E+02  0.20425569999E+02 -0.60719260678E+03  0.63156315610E+03  0.17204993994E+03 0.  0.
         24    2    3    3    0    0  0.27265350482E+02 -0.40992101919E+02 -0.42477292968E+03  0.43484524042E+03  0.78959417284E+02 0.  0.
         -6    2    1    2    0  502  0.13068002103E+02 -0.20425569999E+02  0.68252729188E+02  0.18739313444E+03  0.17282874530E+03 0.  0.
        -24    2    5    5    0    0 -0.24804882572E+02  0.44104103154E+02  0.16607271280E+02  0.96355903408E+02  0.80300713246E+02 0.  0.
          5    1    3    3  501    0 -0.40333352585E+02  0.61417671918E+02 -0.18241967710E+03  0.19671791568E+03  0.47000000000E+01 0. -1.
        -11    1    4    4    0    0 -0.14551844981E+02 -0.19786708552E+02 -0.38039283266E+02  0.45279764786E+02  0.00000000000E+00 0.  1.
         12    1    4    4    0    0  0.41817195463E+02 -0.21205393367E+02 -0.38673364641E+03  0.38956547564E+03  0.00000000000E+00 0. -1.
         -5    1    5    5    0  502  0.37872884675E+02 -0.64529673153E+02  0.51645457907E+02  0.91037231028E+02  0.47000000000E+01 0.  1.
         11    1    6    6    0    0  0.25767704256E+02  0.57278388347E+00  0.14548458954E+02  0.29596626868E+02  0.00000000000E+00 0. -1.
        -12    1    6    6    0    0 -0.50572586828E+02  0.43531319271E+02  0.20588123265E+01  0.66759276540E+02  0.00000000000E+00 0.  1.
</event>
<event>
12    1  0.8133506E-002  0.1746177E+03  0.7818608E-02  0.1173579E+00
         21   -1    0    0  501  502  0.00000000000E+00  0.00000000000E+00  0.27869498152E+03  0.27869498152E+03  0.00000000000E+00 0.  1.
         21   -1    0    0  502  503 -0.00000000000E+00 -0.00000000000E+00 -0.28561839715E+03  0.28561839715E+03  0.00000000000E+00 0.  1.
         -6    2    1    2    0  503  0.18528004926E+02  0.41264032523E+02 -0.22580760213E+03  0.28544775982E+03  0.16865747260E+03 0.  0.
        -24    2    3    3    0    0  0.26063134889E+02 -0.12505894598E+02 -0.43031547103E+02  0.94719787214E+02  0.79274457702E+02 0.  0.
          6    2    1    2  501    0 -0.18528004926E+02 -0.41264032523E+02  0.21888418650E+03  0.27886561884E+03  0.16676252255E+03 0.  0.
         24    2    5    5    0    0 -0.55733481176E+02  0.20459072338E+02  0.15512849318E+03  0.18252835935E+03  0.75676667500E+02 0.  0.
          5    1    5    5  501    0  0.37205476251E+02 -0.61723104861E+02  0.63755693318E+02  0.96337259496E+02  0.47000000000E+01 0. -1.
        -13    1    6    6    0    0 -0.21929135985E+02 -0.14895091415E+02  0.11847467404E+03  0.12140427976E+03  0.00000000000E+00 0.  1.
         14    1    6    6    0    0 -0.33804345191E+02  0.35354163752E+02  0.36653819139E+02  0.61124079592E+02  0.00000000000E+00 0. -1.
         -5    1    3    3    0  503 -0.75351299631E+01  0.53769927121E+02 -0.18277605502E+03  0.19072797261E+03  0.47000000000E+01 0.  1.
         11    1    4    4    0    0  0.29542894385E+02  0.89885360609E+01  0.13827149677E+02  0.33834397546E+02  0.00000000000E+00 0. -1.
        -12    1    4    4    0    0 -0.34797594958E+01 -0.21494430659E+02 -0.56858696780E+02  0.60885389668E+02  0.00000000000E+00 0.  1.
</event>
<event>
12    1  0.8133506E-002  0.2120961E+03  0.7818608E-02  0.1140025E+00
         21   -1    0    0  501  502  0.00000000000E+00  0.00000000000E+00  0.14967246101E+02  0.14967246101E+02  0.00000000000E+00 0.  1.
         21   -1    0    0  502  503 -0.00000000000E+00 -0.00000000000E+00 -0.35418242584E+04  0.35418242584E+04  0.00000000000E+00 0. -1.
         -6    2    1    2    0  503  0.11278071770E+03  0.48592123858E+02 -0.24624338359E+04  0.24715511594E+04  0.17292788226E+03 0.  0.
        -24    2    3    3    0    0  0.57639247564E+02 -0.29168339834E+02 -0.17276877951E+04  0.17306320640E+04  0.77518698816E+02 0.  0.
          6    2    1    2  501    0 -0.11278071770E+03 -0.48592123858E+02 -0.10644231764E+04  0.10852403451E+04  0.17224756439E+03 0.  0.
         24    2    5    5    0    0 -0.40194860569E+02 -0.43044359823E+02 -0.28348920541E+03  0.30090658874E+03  0.81915821665E+02 0.  0.
          5    1    5    5  501    0 -0.72585857127E+02 -0.55477640351E+01 -0.78093397100E+03  0.78433375638E+03  0.47000000000E+01 0. -1.
        -11    1    6    6    0    0 -0.12993544565E+02 -0.62635444934E+02 -0.21999527411E+03  0.22910685672E+03  0.00000000000E+00 0.  1.
         12    1    6    6    0    0 -0.27201316004E+02  0.19591085111E+02 -0.63493931292E+02  0.71799732026E+02  0.00000000000E+00 0. -1.
         -5    1    3    3    0  503  0.55141470132E+02  0.77760463693E+02 -0.73474604081E+03  0.74091909540E+03  0.47000000000E+01 0.  1.
         13    1    4    4    0    0  0.71842379917E+02 -0.21174322166E+02 -0.10156962167E+04  0.10184539676E+04  0.00000000000E+00 0. -1.
        -14    1    4    4    0    0 -0.14203132352E+02 -0.79940176687E+01 -0.71199157839E+03  0.71217809639E+03  0.00000000000E+00 0.  1.
</event>
<event>
12    1  0.8133506E-002  0.1733146E+03  0.7818608E-02  0.1174929E+00
         21   -1    0    0  501  502  0.00000000000E+00  0.00000000000E+00  0.69496775097E+03  0.69496775097E+03  0.00000000000E+00 0. -1.
         21   -1    0    0  502  503 -0.00000000000E+00 -0.00000000000E+00 -0.50125863400E+02  0.50125863400E+02  0.00000000000E+00 0. -1.
         -6    2    1    2    0  503  0.19106289032E+02 -0.76998168260E+01  0.46386713589E+03  0.49451467580E+03  0.17014025793E+03 0.  0.
        -24    2    3    3    0    0 -0.29274224161E+02  0.40073154362E+02  0.18886758746E+03  0.21119546984E+03  0.80434588253E+02 0.  0.
          6    2    1    2  501    0 -0.19106289032E+02  0.76998168260E+01  0.18097475169E+03  0.25057893857E+03  0.17208604315E+03 0.  0.
         24    2    5    5    0    0  0.89322354602E+01 -0.18928919793E+01  0.11622399457E+02  0.78589147815E+02  0.77186826044E+02 0.  0.
          5    1    5    5  501    0 -0.28038524492E+02  0.95927088053E+01  0.16935235223E+03  0.17198979075E+03  0.47000000000E+01 0. -1.
        -13    1    6    6    0    0 -0.15653237641E+02 -0.55973879877E+01  0.38523951051E+02  0.41957709726E+02  0.00000000000E+00 0.  1.
         14    1    6    6    0    0  0.24585473101E+02  0.37044960084E+01 -0.26901551594E+02  0.36631438088E+02  0.00000000000E+00 0. -1.
         -5    1    3    3    0  503  0.48380513193E+02 -0.47772971188E+02  0.27499954843E+03  0.28331920596E+03  0.47000000000E+01 0.  1.
         11    1    4    4    0    0 -0.13948782693E+02  0.13924102189E+01  0.15986498187E+03  0.16047840905E+03  0.00000000000E+00 0. -1.
        -12    1    4    4    0    0 -0.15325441468E+02  0.38680744143E+02  0.29002605591E+02  0.50717060786E+02  0.00000000000E+00 0.  1.
</event>
<event>
12    1  0.8133506E-002  0.4173684E+03  0.7818608E-02  0.1038145E+00
         21   -1    0    0  503  502  0.00000000000E+00  0.00000000000E+00  0.49213971539E+03  0.49213971539E+03  0.00000000000E+00 0. -1.
         21   -1    0    0  501  503 -0.00000000000E+00 -0.00000000000E+00 -0.41146882310E+03  0.41146882310E+03  0.00000000000E+00 0.  1.
          6    2    1    2  501    0 -0.14204828728E+03  0.35084871541E+03 -0.13195810099E+03  0.43519904301E+03  0.16944830952E+03 0.  0.
         24    2    3    3    0    0 -0.31660137083E+02  0.11615800889E+03 -0.96339549565E+02  0.17336695438E+03  0.79244840539E+02 0.  0.
         -6    2    1    2    0  502  0.14204828728E+03 -0.35084871541E+03  0.21262899328E+03  0.46840949548E+03  0.17585172632E+03 0.  0.
        -24    2    5    5    0    0  0.15193134140E+03 -0.35023325416E+03  0.17261349171E+03  0.42691993153E+03  0.81967954661E+02 0.  0.
          5    1    3    3  501    0 -0.11038815019E+03  0.23469070652E+03 -0.35618551424E+02  0.26183208863E+03  0.47000000000E+01 0. -1.
        -11    1    4    4    0    0 -0.27103508392E+02 -0.73734233805E+00 -0.16607925676E+02  0.31795707826E+02  0.00000000000E+00 0.  1.
         12    1    4    4    0    0 -0.45566286915E+01  0.11689535123E+03 -0.79731623889E+02  0.14157124656E+03  0.00000000000E+00 0. -1.
         -5    1    5    5    0  502 -0.98830541249E+01 -0.61546124216E+00  0.40015501564E+02  0.41489563951E+02  0.47000000000E+01 0.  1.
         11    1    6    6    0    0 -0.41732561504E+01 -0.49692390746E+01 -0.52409490313E+01  0.83412799153E+01  0.00000000000E+00 0. -1.
        -12    1    6    6    0    0  0.15610459755E+03 -0.34526401509E+03  0.17785444074E+03  0.41857865161E+03  0.00000000000E+00 0.  1.
</event>
<event>
12    1  0.8133506E-002  0.1933620E+03  0.7818608E-02  0.1155797E+00
         21   -1    0    0  501  502  0.00000000000E+00  0.00000000000E+00  0.11236896577E+04  0.11236896577E+04  0.00000000000E+00 0.  1.
         21   -1    0    0  502  503 -0.00000000000E+00 -0.00000000000E+00 -0.17944152063E+03  0.17944152063E+03  0.00000000000E+00 0.  1.
         -6    2    1    2    0  503 -0.20699150529E+02  0.81289511366E+02 -0.11679800777E+03  0.22461007047E+03  0.17254410927E+03 0.  0.
        -24    2    3    3    0    0  0.33015216592E+02  0.17490712031E+01 -0.39451603248E+02  0.10125500916E+03  0.87195665633E+02 0.  0.
          6    2    1    2  501    0  0.20699150529E+02 -0.81289511366E+02  0.10610461448E+04  0.10785211079E+04  0.17421945681E+03 0.  0.
         24    2    5    5    0    0 -0.11214182105E+02 -0.81100009588E+02  0.10190357751E+04  0.10255545347E+04  0.81395473963E+02 0.  0.
          5    1    5    5  501    0  0.31913332634E+02 -0.18950177887E+00  0.42010369702E+02  0.52966573168E+02  0.47000000000E+01 0. -1.
        -13    1    6    6    0    0 -0.43593189308E+02 -0.66194906665E+02  0.65511156479E+03  0.65988884984E+03  0.00000000000E+00 0.  1.
         14    1    6    6    0    0  0.32379007204E+02 -0.14905102922E+02  0.36392421035E+03  0.36566568485E+03  0.00000000000E+00 0. -1.
         -5    1    3    3    0  503 -0.53714367120E+02  0.79540440163E+02 -0.77346404527E+02  0.12335506131E+03  0.47000000000E+01 0.  1.
         13    1    4    4    0    0  0.55904221524E+02  0.83053268933E+00 -0.31975870212E+00  0.55911304889E+02  0.00000000000E+00 0. -1.
        -14    1    4    4    0    0 -0.22889004932E+02  0.91853851379E+00 -0.39131844546E+02  0.45343704275E+02  0.00000000000E+00 0.  1.
</event>
<event>
12    1  0.8133506E-002  0.1813037E+03  0.7818608E-02  0.1166719E+00
         21   -1    0    0  503  502  0.00000000000E+00  0.00000000000E+00  0.23546107494E+03  0.23546107494E+03  0.00000000000E+00 0.  1.
         21   -1    0    0  501  503 -0.00000000000E+00 -0.00000000000E+00 -0.22825950683E+03  0.22825950683E+03  0.00000000000E+00 0.  1.
          6    2    1    2  501    0 -0.56297525534E+02  0.16858363664E+02 -0.14134208642E+03  0.22988824662E+03  0.17151502771E+03 0.  0.
         24    2    3    3    0    0 -0.73452015771E+02 -0.35641524990E+02 -0.52460038796E+02  0.12513795671E+03  0.79005921395E+02 0.  0.
         -6    2    1    2    0  502  0.56297525534E+02 -0.16858363664E+02  0.14854365453E+03  0.23383233515E+03  0.17075926872E+03 0.  0.
        -24    2    5    5    0    0 -0.28581539909E+02  0.20425070789E+02  0.81147863214E+02  0.11912055318E+03  0.79816305015E+02 0.  0.
          5    1    3    3  501    0  0.17154490237E+02  0.52499888654E+02 -0.88882047628E+02  0.10475028990E+03  0.47000000000E+01 0. -1.
        -13    1    4    4    0    0  0.17021564084E+01 -0.41755890518E+01 -0.42862619905E+02  0.43099153883E+02  0.00000000000E+00 0.  1.
         14    1    4    4    0    0 -0.75154172179E+02 -0.31465935938E+02 -0.95974188912E+01  0.82038802830E+02  0.00000000000E+00 0. -1.
         -5    1    5    5    0  502  0.84879065443E+02 -0.37283434453E+02  0.67395791320E+02  0.11471178197E+03  0.47000000000E+01 0.  1.
         13    1    6    6    0    0  0.85688643200E+01  0.37564346274E+02  0.15007805434E+02  0.41348999633E+02  0.00000000000E+00 0. -1.
        -14    1    6    6    0    0 -0.37150404229E+02 -0.17139275484E+02  0.66140057780E+02  0.77771553550E+02  0.00000000000E+00 0.  1.
</event>
<event>
12    1  0.8133506E-002  0.1903788E+03  0.7818608E-02  0.1158439E+00
         21   -1    0    0  501  502  0.00000000000E+00  0.00000000000E+00  0.53755659212E+02  0.53755659212E+02  0.00000000000E+00 0. -1.
         21   -1    0    0  502  503 -0.00000000000E+00 -0.00000000000E+00 -0.87978431008E+03  0.87978431008E+03  0.00000000000E+00 0. -1.
         -6    2    1    2    0  503  0.69098652217E+02  0.37341829940E+02 -0.64251642642E+03  0.67012794490E+03  0.17342164892E+03 0.  0.
        -24    2    3    3    0    0  0.56970952947E+02  0.22909661215E+02 -0.64315489015E+03  0.65068916357E+03  0.77315152456E+02 0.  0.
          6    2    1    2  501    0 -0.69098652217E+02 -0.37341829940E+02 -0.18351222445E+03  0.26341202439E+03  0.17187240055E+03 0.  0.
         24    2    5    5    0    0 -0.34286419969E+02 -0.62042016849E+02 -0.40351058141E+02  0.11394898453E+03  0.79570049221E+02 0.  0.
          5    1    5    5  501    0 -0.34812232248E+02  0.24700186909E+02 -0.14316116631E+03  0.14946303987E+03  0.47000000000E+01 0. -1.
        -13    1    6    6    0    0  0.51853347009E+01 -0.32911377362E+02 -0.53620787327E+02  0.63128720004E+02  0.00000000000E+00 0.  1.
         14    1    6    6    0    0 -0.39471754670E+02 -0.29130639487E+02  0.13269729186E+02  0.50820264524E+02  0.00000000000E+00 0. -1.
         -5    1    3    3    0  503  0.12127699271E+02  0.14432168725E+02  0.63846373277E+00  0.19438781331E+02  0.47000000000E+01 0.  1.
         11    1    4    4    0    0  0.63944894789E+02 -0.54068018097E+01 -0.33017438058E+03  0.33635294657E+03  0.00000000000E+00 0. -1.
        -12    1    4    4    0    0 -0.69739418429E+01  0.28316463024E+02 -0.31298050957E+03  0.31433621699E+03  0.00000000000E+00 0.  1.
</event>
<event>
12    1  0.8133506E-002  0.2021611E+03  0.7818608E-02  0.1148130E+00
         21   -1    0    0  503  502  0.00000000000E+00  0.00000000000E+00  0.39870344019E+02  0.39870344019E+02  0.00000000000E+00 0. -1.
         21   -1    0    0  501  503 -0.00000000000E+00 -0.00000000000E+00 -0.14730914522E+04  0.14730914522E+04  0.00000000000E+00 0.  1.
          6    2    1    2  501    0  0.61330342611E+02  0.83917953069E+02 -0.29833193917E+03  0.36037624930E+03  0.17339394845E+03 0.  0.
         24    2    3    3    0    0  0.10550288820E+03  0.79431479040E+02 -0.20600864136E+03  0.25782370885E+03  0.81199047106E+02 0.  0.
         -6    2    1    2    0  502 -0.61330342611E+02 -0.83917953069E+02 -0.11348891690E+04  0.11525855469E+04  0.17226834664E+03 0.  0.
        -24    2    5    5    0    0 -0.90598614504E+02 -0.10811917606E+03 -0.95664348552E+03  0.97027826616E+03  0.79845414482E+02 0.  0.
          5    1    3    3  501    0 -0.44172545592E+02  0.44864740295E+01 -0.92323297813E+02  0.10255254045E+03  0.47000000000E+01 0. -1.
        -13    1    4    4    0    0  0.75941680187E+02  0.83766297723E+02 -0.19607369689E+03  0.22633785816E+03  0.00000000000E+00 0.  1.
         14    1    4    4    0    0  0.29561208017E+02 -0.43348186834E+01 -0.99349444694E+01  0.31485850696E+02  0.00000000000E+00 0. -1.
         -5    1    5    5    0  502  0.29268271893E+02  0.24201222993E+02 -0.17824568345E+03  0.18230728072E+03  0.47000000000E+01 0.  1.
         11    1    6    6    0    0 -0.64837128393E+02 -0.40856870475E+02 -0.29754428854E+03  0.30725517201E+03  0.00000000000E+00 0. -1.
        -12    1    6    6    0    0 -0.25761486112E+02 -0.67262305588E+02 -0.65909919698E+03  0.66302309415E+03  0.00000000000E+00 0.  1.
</event>
<event>
12    1  0.8133506E-002  0.2354385E+03  0.7818608E-02  0.1122973E+00
         21   -1    0    0  501  502  0.00000000000E+00  0.00000000000E+00  0.21802686727E+03  0.21802686727E+03  0.00000000000E+00 0.  1.
         21   -1    0    0  502  503 -0.00000000000E+00 -0.00000000000E+00 -0.25398030012E+03  0.25398030012E+03  0.00000000000E+00 0.  1.
         -6    2    1    2    0  503  0.43093010842E+02  0.15397935037E+03 -0.27261441195E+02  0.23640823067E+03  0.17198551517E+03 0.  0.
        -24    2    3    3    0    0  0.11199780523E+02  0.17291909231E+02  0.25457835312E+02  0.86401408091E+02  0.79954091406E+02 0.  0.
          6    2    1    2  501    0 -0.43093010842E+02 -0.15397935037E+03 -0.86919916545E+01  0.23559893671E+03  0.17281394716E+03 0.  0.
         24    2    5    5    0    0 -0.89790736072E+02 -0.11323727771E+03 -0.33432650177E+02  0.16870510881E+03  0.80365504371E+02 0.  0.
          5    1    5    5  501    0  0.46697725230E+02 -0.40742072664E+02  0.24740658523E+02  0.66893827897E+02  0.47000000000E+01 0. -1.
        -11    1    6    6    0    0 -0.90200297409E+02 -0.64807400646E+02 -0.43421733512E+02  0.11925409751E+03  0.00000000000E+00 0.  1.
         12    1    6    6    0    0  0.40956133649E+00 -0.48429877063E+02  0.99890833345E+01  0.49451011301E+02  0.00000000000E+00 0. -1.
         -5    1    3    3    0  503  0.31893230319E+02  0.13668744114E+03 -0.52719276507E+02  0.15000682258E+03  0.47000000000E+01 0.  1.
         13    1    4    4    0    0 -0.19197008532E+02  0.25330296735E+02 -0.15014711419E+02  0.35150969094E+02  0.00000000000E+00 0. -1.
        -14    1    4    4    0    0  0.30396789055E+02 -0.80383875032E+01  0.40472546731E+02  0.51250438997E+02  0.00000000000E+00 0.  1.
</event>
<event>
12    1  0.8133506E-002  0.3347683E+03  0.7818608E-02  0.1069270E+00
         21   -1    0    0  501  502  0.00000000000E+00  0.00000000000E+00  0.36722230846E+03  0.36722230846E+03  0.00000000000E+00 0.  1.
         21   -1    0    0  502  503 -0.00000000000E+00 -0.00000000000E+00 -0.54812674136E+03  0.54812674136E+03  0.00000000000E+00 0. -1.
         -6    2    1    2    0  503  0.96013320839E+02  0.27267583688E+03 -0.39647267813E+03  0.51890306298E+03  0.16881686664E+03 0.  0.
        -24    2    3    3    0    0  0.13339300883E+03  0.21853607888E+03 -0.31599890990E+03  0.41485272975E+03  0.81827646600E+02 0.  0.
          6    2    1    2  501    0 -0.96013320839E+02 -0.27267583688E+03  0.21556824523E+03  0.39644598685E+03  0.16470908395E+03 0.  0.
         24    2    5    5    0    0  0.37337899893E+01 -0.14543180936E+03  0.14535816192E+03  0.22011653821E+03  0.78472560772E+02 0.  0.
          5    1    5    5  501    0 -0.99747110828E+02 -0.12724402752E+03  0.70210083307E+02  0.17632944863E+03  0.47000000000E+01 0. -1.
        -13    1    6    6    0    0 -0.13427000295E+02 -0.53194109667E+02  0.10539627005E+02  0.55865744223E+02  0.00000000000E+00 0.  1.
         14    1    6    6    0    0  0.17160790284E+02 -0.92237699697E+02  0.13481853492E+03  0.16425079399E+03  0.00000000000E+00 0. -1.
         -5    1    3    3    0  503 -0.37379687988E+02  0.54139757999E+02 -0.80473768230E+02  0.10405033322E+03  0.47000000000E+01 0.  1.
         11    1    4    4    0    0  0.10633358964E+03  0.20187272382E+03 -0.30567298585E+03  0.38143859687E+03  0.00000000000E+00 0. -1.
        -12    1    4    4    0    0  0.27059419185E+02  0.16663355063E+02 -0.10325924056E+02  0.33414132881E+02  0.00000000000E+00 0.  1.
</event>
<event>
12    1  0.8133506E-002  0.1945722E+03  0.7818608E-02  0.1154925E+00
         21   -1    0    0  501  502  0.00000000000E+00  0.00000000000E+00  0.11571764820E+04  0.11571764820E+04  0.00000000000E+00 0. -1.
         21   -1    0    0  502  503 -0.00000000000E+00 -0.00000000000E+00 -0.43496154746E+02  0.43496154746E+02  0.00000000000E+00 0.  1.
         -6    2    1    2    0  503 -0.69821665981E+02  0.51355046919E+02  0.25504313706E+03  0.32078860032E+03  0.17420079923E+03 0.  0.
        -24    2    3    3    0    0 -0.81619865039E+02  0.94391990189E+02  0.21178118474E+03  0.25845833074E+03  0.79861056472E+02 0.  0.
          6    2    1    2  501    0  0.69821665981E+02 -0.51355046919E+02  0.85863719017E+03  0.87988403640E+03  0.17153917128E+03 0.  0.
         24    2    5    5    0    0 -0.27912386225E+02 -0.45020857475E+02  0.39337127018E+03  0.40439846015E+03  0.77402709617E+02 0.  0.
          5    1    5    5  501    0  0.97734052205E+02 -0.63341894438E+01  0.46526591999E+03  0.47548557625E+03  0.47000000000E+01 0. -1.
        -13    1    6    6    0    0 -0.11050696984E+02 -0.25155954891E+02  0.32373477342E+02  0.42461535600E+02  0.00000000000E+00 0.  1.
         14    1    6    6    0    0 -0.16861689241E+02 -0.19864902584E+02  0.36099779284E+03  0.36193692455E+03  0.00000000000E+00 0. -1.
         -5    1    3    3    0  503  0.11798199058E+02 -0.43036943270E+02  0.43261952320E+02  0.62330269577E+02  0.47000000000E+01 0.  1.
         13    1    4    4    0    0 -0.45190224051E+02  0.45512698510E+02  0.17702397765E+03  0.18828449415E+03  0.00000000000E+00 0. -1.
        -14    1    4    4    0    0 -0.36429640988E+02  0.48879291678E+02  0.34757207092E+02  0.70173836594E+02  0.00000000000E+00 0.  1.
</event>
<event>
12    1  0.8133506E-002  0.2017006E+03  0.7818608E-02  0.1148332E+00
         21   -1    0    0  501  502  0.00000000000E+00  0.00000000000E+00  0.64105272080E+02  0.64105272080E+02  0.00000000000E+00 0. -1.
         21   -1    0    0  502  503 -0.00000000000E+00 -0.00000000000E+00 -0.10466605884E+04  0.10466605884E+04  0.00000000000E+00 0. -1.
         -6    2    1    2    0  503  0.35920238389E+02  0.99477198997E+02 -0.83979445222E+03  0.86365498939E+03  0.17163694846E+03 0.  0.
        -24    2    3    3    0    0 -0.20030873461E+01  0.12581770282E+03 -0.71760865783E+03  0.73295128200E+03  0.80132947547E+02 0.  0.
          6    2    1    2  501    0 -0.35920238389E+02 -0.99477198997E+02 -0.14276086407E+03  0.24711087106E+03  0.17174731916E+03 0.  0.
         24    2    5    5    0    0 -0.78935412720E+02 -0.65338006874E+02 -0.13890158691E+03  0.19185895994E+03  0.83763686286E+02 0.  0.
          5    1    5    5  501    0  0.43015174332E+02 -0.34139192122E+02 -0.38592771578E+01  0.55251911114E+02  0.47000000000E+01 0. -1.
        -11    1    6    6    0    0 -0.33489593348E+02  0.17443034832E+02 -0.43919906556E+02  0.57920380858E+02  0.00000000000E+00 0.  1.
         12    1    6    6    0    0 -0.45445819372E+02 -0.82781041706E+02 -0.94981680357E+02  0.13393857909E+03  0.00000000000E+00 0. -1.
         -5    1    3    3    0  503  0.37923325735E+02 -0.26340503828E+02 -0.12218579439E+03  0.13070370740E+03  0.47000000000E+01 0.  1.
         13    1    4    4    0    0  0.79631393903E+01  0.79185832272E+01 -0.26165230315E+03  0.26189319062E+03  0.00000000000E+00 0. -1.
        -14    1    4    4    0    0 -0.99662267364E+01  0.11789911960E+03 -0.45595635468E+03  0.47105809138E+03  0.00000000000E+00 0.  1.
</event>
<event>
12    1  0.8133506E-002  0.1870877E+03  0.7818608E-02  0.1161281E+00
         21   -1    0    0  503  502  0.00000000000E+00  0.00000000000E+00  0.51426537072E+03  0.51426537072E+03  0.00000000000E+00 0. -1.
         21   -1    0    0  501  503 -0.00000000000E+00 -0.00000000000E+00 -0.73001013997E+02  0.73001013997E+02  0.00000000000E+00 0. -1.
          6    2    1    2  501    0  0.33476043197E+02  0.65263959972E+02  0.29861806622E+03  0.35200105638E+03  0.17132414972E+03 0.  0.
         24    2    3    3    0    0  0.38609864311E+01 -0.19778163508E+02  0.12608562620E+03  0.15732505063E+03  0.91910301129E+02 0.  0.
         -6    2    1    2    0  502 -0.33476043197E+02 -0.65263959972E+02  0.14264629050E+03  0.23526532834E+03  0.17210979224E+03 0.  0.
        -24    2    5    5    0    0 -0.76164602567E+02 -0.85683133118E+02  0.10543466661E+03  0.17488279208E+03  0.79529089372E+02 0.  0.
          5    1    3    3  501    0  0.29615056765E+02  0.85042123480E+02  0.17253244003E+03  0.19467600575E+03  0.47000000000E+01 0. -1.
        -11    1    4    4    0    0 -0.42218443999E+02 -0.14316194117E+02  0.41803440385E+02  0.61113648686E+02  0.00000000000E+00 0.  1.
         12    1    4    4    0    0  0.46079430430E+02 -0.54619693902E+01  0.84282185811E+02  0.96211401941E+02  0.00000000000E+00 0. -1.
         -5    1    5    5    0  502  0.42688559370E+02  0.20419173146E+02  0.37211623893E+02  0.60382536265E+02  0.47000000000E+01 0.  1.
         11    1    6    6    0    0 -0.25885446182E+02  0.68665171285E+01  0.13649503506E+01  0.26815452093E+02  0.00000000000E+00 0. -1.
        -12    1    6    6    0    0 -0.50279156385E+02 -0.92549650247E+02  0.10406971626E+03  0.14806733998E+03  0.00000000000E+00 0.  1.
</event>
<event>
12    1  0.8133506E-002  0.2240197E+03  0.7818608E-02  0.1131261E+00
         21   -1    0    0  503  502  0.00000000000E+00  0.00000000000E+00  0.33804823974E+03  0.33804823974E+03  0.00000000000E+00 0.  1.
         21   -1    0    0  501  503 -0.00000000000E+00 -0.00000000000E+00 -0.24169312778E+03  0.24169312778E+03  0.00000000000E+00 0.  1.
          6    2    1    2  501    0 -0.26164720629E+02 -0.14036063208E+03 -0.13292163673E+03  0.26048606833E+03  0.17262424696E+03 0.  0.
         24    2    3    3    0    0  0.26002908772E+02 -0.13571921783E+03 -0.13238586650E+03  0.20789917516E+03  0.81241565890E+02 0.  0.
         -6    2    1    2    0  502  0.26164720629E+02  0.14036063208E+03  0.22927674868E+03  0.31925529919E+03  0.17020698850E+03 0.  0.
        -24    2    5    5    0    0 -0.51311546854E+02  0.67740973744E+02  0.13225409215E+03  0.17533979384E+03  0.77660698235E+02 0.  0.
          5    1    3    3  501    0 -0.52167629400E+02 -0.46414142438E+01 -0.53577022674E+00  0.52586893169E+02  0.47000000000E+01 0. -1.
        -13    1    4    4    0    0 -0.34016396834E+01 -0.33976311250E+02 -0.85522366618E+02  0.92087111317E+02  0.00000000000E+00 0.  1.
         14    1    4    4    0    0  0.29404548455E+02 -0.10174290658E+03 -0.46863499883E+02  0.11581206384E+03  0.00000000000E+00 0. -1.
         -5    1    5    5    0  502  0.77476267482E+02  0.72619658332E+02  0.97022656531E+02  0.14391550535E+03  0.47000000000E+01 0.  1.
         11    1    6    6    0    0 -0.12594697748E+02 -0.15577312975E+02  0.99365468815E+01  0.22360994048E+02  0.00000000000E+00 0. -1.
        -12    1    6    6    0    0 -0.38716849106E+02  0.83318286719E+02  0.12231754527E+03  0.15297879980E+03  0.00000000000E+00 0.  1.
</event>
<event>
12    1  0.8133506E-002  0.2747034E+03  0.7818608E-02  0.1098648E+00
         21   -1    0    0  501  502  0.00000000000E+00  0.00000000000E+00  0.20851988164E+03  0.20851988164E+03  0.00000000000E+00 0. -1.
         21   -1    0    0  502  503 -0.00000000000E+00 -0.00000000000E+00 -0.36227897398E+03  0.36227897398E+03  0.00000000000E+00 0.  1.
         -6    2    1    2    0  503  0.11744335848E+03 -0.17966354396E+03 -0.89172222523E+02  0.28881424052E+03  0.17143526118E+03 0.  0.
        -24    2    3    3    0    0  0.87321379330E+02 -0.11768669941E+03  0.12804312460E+02  0.16564863422E+03  0.76159944158E+02 0.  0.
          6    2    1    2  501    0 -0.11744335848E+03  0.17966354396E+03 -0.64586869820E+02  0.28198461510E+03  0.17109040862E+03 0.  0.
         24    2    5    5    0    0 -0.48322698755E+02  0.14057083791E+03 -0.94516116908E+01  0.18519674419E+03  0.11006024444E+03 0.  0.
          5    1    5    5  501    0 -0.69120659727E+02  0.39092706044E+02 -0.55135258130E+02  0.96787870913E+02  0.47000000000E+01 0. -1.
        -11    1    6    6    0    0 -0.34181854289E+01  0.16699650133E+02 -0.45505866786E+02  0.48593684961E+02  0.00000000000E+00 0.  1.
         12    1    6    6    0    0 -0.44904513326E+02  0.12387118778E+03  0.36054255095E+02  0.13660305923E+03  0.00000000000E+00 0. -1.
         -5    1    3    3    0  503  0.30121979151E+02 -0.61976844548E+02 -0.10197653498E+03  0.12316560630E+03  0.47000000000E+01 0.  1.
         11    1    4    4    0    0  0.95521084135E+02 -0.10784097205E+03 -0.44812842903E+01  0.14413200434E+03  0.00000000000E+00 0. -1.
        -12    1    4    4    0    0 -0.81997048048E+01 -0.98457273611E+01  0.17285596750E+02  0.21516629875E+02  0.00000000000E+00 0.  1.
</event>
<event>
12    1  0.8133506E-002  0.1939482E+03  0.7818608E-02  0.1157039E+00
         21   -1    0    0  503  502  0.00000000000E+00  0.00000000000E+00  0.16798781499E+03  0.16798781499E+03  0.00000000000E+00 0. -1.
         21   -1    0    0  501  503 -0.00000000000E+00 -0.00000000000E+00 -0.28232689396E+03  0.28232689396E+03  0.00000000000E+00 0. -1.
          6    2    1    2  501    0 -0.26107529323E+02 -0.60817433920E+02 -0.16738846640E+03  0.24924223841E+03  0.17240194711E+03 0.  0.
         24    2    3    3    0    0 -0.20905914197E+02 -0.86911271952E+02 -0.18252660672E+03  0.21827130889E+03  0.79597585902E+02 0.  0.
         -6    2    1    2    0  502  0.26107529323E+02  0.60817433920E+02  0.53049387431E+02  0.20107247054E+03  0.18230616431E+03 0.  0.
        -24    2    5    5    0    0  0.41153586562E+02  0.50097281068E+02  0.10358651169E+03  0.14705954205E+03  0.81810685395E+02 0.  0.
          5    1    3    3  501    0 -0.52016151260E+01  0.26093838033E+02  0.15138140321E+02  0.30970929524E+02  0.47000000000E+01 0. -1.
        -11    1    4    4    0    0  0.16589547303E+01  0.10493886773E+02 -0.55295878606E+00  0.10638587962E+02  0.00000000000E+00 0.  1.
         12    1    4    4    0    0 -0.22564868927E+02 -0.97405158726E+02 -0.18197364793E+03  0.20763272092E+03  0.00000000000E+00 0. -1.
         -5    1    5    5    0  502 -0.15046057239E+02  0.10720152852E+02 -0.50537124262E+02  0.54012928492E+02  0.47000000000E+01 0.  1.
         13    1    6    6    0    0 -0.18861719674E+02  0.38109400416E+02  0.50724817056E+02  0.66189862777E+02  0.00000000000E+00 0. -1.
        -14    1    6    6    0    0  0.60015306236E+02  0.11987880652E+02  0.52861694637E+02  0.80869679269E+02  0.00000000000E+00 0.  1.
</event>
<event>
12    1  0.8133506E-002  0.1801243E+03  0.7818608E-02  0.1167791E+00
         21   -1    0    0  501  502  0.00000000000E+00  0.00000000000E+00  0.57304817588E+02  0.57304817588E+02  0.00000000000E+00 0. -1.
         21   -1    0    0  502  503 -0.00000000000E+00 -0.00000000000E+00 -0.11770312977E+04  0.11770312977E+04  0.00000000000E+00 0. -1.
         -6    2    1    2    0  503 -0.88697526511E+01  0.50176685787E+02 -0.10046491443E+04  0.10205896151E+04  0.17229883080E+03 0.  0.
        -24    2    3    3    0    0  0.17377234535E+02  0.45324283127E+02 -0.97840819245E+03  0.98286525031E+03  0.79907761109E+02 0.  0.
          6    2    1    2  501    0  0.88697526511E+01 -0.50176685787E+02 -0.11507733583E+03  0.21374650016E+03  0.17276689729E+03 0.  0.
         24    2    5    5    0    0  0.45706776537E+02 -0.65745064390E+02 -0.12851053763E+03  0.17129792360E+03  0.80103042601E+02 0.  0.
          5    1    5    5  501    0 -0.36837023886E+02  0.15568378602E+02  0.13433201804E+02  0.42448576558E+02  0.47000000000E+01 0. -1.
        -11    1    6    6    0    0  0.37021917607E+02  0.77220173191E+01 -0.57012154702E+02  0.68415186315E+02  0.00000000000E+00 0.  1.
         12    1    6    6    0    0  0.86848589302E+01 -0.73467081709E+02 -0.71498382928E+02  0.10288273728E+03  0.00000000000E+00 0. -1.
         -5    1    3    3    0  503 -0.26246987186E+02  0.48524026600E+01 -0.26240951818E+02  0.37724364809E+02  0.47000000000E+01 0.  1.
         11    1    4    4    0    0  0.61088191037E+01  0.61809263913E+01 -0.79247212849E+03  0.79251977638E+03  0.00000000000E+00 0. -1.
        -12    1    4    4    0    0  0.11268415431E+02  0.39143356736E+02 -0.18593606396E+03  0.19034547393E+03  0.00000000000E+00 0.  1.
</event>
<event>
12    1  0.8133506E-002  0.1934466E+03  0.7818608E-02  0.1155487E+00
         21   -1    0    0  503  502  0.00000000000E+00  0.00000000000E+00  0.15209353617E+02  0.15209353617E+02  0.00000000000E+00 0. -1.
         21   -1    0    0  501  503 -0.00000000000E+00 -0.00000000000E+00 -0.25415902633E+04  0.25415902633E+04  0.00000000000E+00 0. -1.
          6    2    1    2  501    0 -0.56510242692E+01 -0.87077982472E+02 -0.14980586333E+04  0.15104400797E+04  0.17214835535E+03 0.  0.
         24    2    3    3    0    0 -0.39355082732E+02 -0.37098495584E+02 -0.40402805996E+03  0.41473989342E+03  0.76455117855E+02 0.  0.
         -6    2    1    2    0  502  0.56510242692E+01  0.87077982472E+02 -0.10283222764E+04  0.10463595373E+04  0.17264723587E+03 0.  0.
        -24    2    5    5    0    0 -0.53891951578E+00 -0.22386035636E+02 -0.55531795926E+03  0.56079197177E+03  0.74887747302E+02 0.  0.
          5    1    3    3  501    0  0.33704058463E+02 -0.49979486888E+02 -0.10940305734E+04  0.10957001863E+04  0.47000000000E+01 0. -1.
        -11    1    4    4    0    0 -0.11679942319E+02  0.20623340448E+02 -0.18614894862E+03  0.18765173672E+03  0.00000000000E+00 0.  1.
         12    1    4    4    0    0 -0.27675140413E+02 -0.57721836033E+02 -0.21787911134E+03  0.22708815670E+03  0.00000000000E+00 0. -1.
         -5    1    5    5    0  502  0.61899437850E+01  0.10946401811E+03 -0.47300431709E+03  0.48556756549E+03  0.47000000000E+01 0.  1.
         11    1    6    6    0    0 -0.20959810299E+02  0.33084918344E+01 -0.44950757467E+03  0.45000813265E+03  0.00000000000E+00 0. -1.
        -12    1    6    6    0    0  0.20420890783E+02 -0.25694527471E+02 -0.10581038459E+03  0.11078383912E+03  0.00000000000E+00 0.  1.
</event>
<event>
12    1  0.8133506E-002  0.2166106E+03  0.7818608E-02  0.1137809E+00
         21   -1    0    0  501  502  0.00000000000E+00  0.00000000000E+00  0.52546811825E+02  0.52546811825E+02  0.00000000000E+00 0. -1.
         21   -1    0    0  502  503 -0.00000000000E+00 -0.00000000000E+00 -0.93936944871E+03  0.93936944871E+03  0.00000000000E+00 0.  1.
         -6    2    1    2    0  503  0.10895302281E+03  0.68151255418E+02 -0.59074986410E+03  0.62921026357E+03  0.17436971944E+03 0.  0.
        -24    2    3    3    0    0  0.11703652126E+03 -0.49662342815E+01 -0.37412627631E+03  0.40038854468E+03  0.81352967367E+02 0.  0.
          6    2    1    2  501    0 -0.10895302281E+03 -0.68151255418E+02 -0.29607277279E+03  0.36270599696E+03  0.16547265228E+03 0.  0.
         24    2    5    5    0    0 -0.10153247789E+03 -0.88235626381E+02 -0.15690071833E+03  0.22181810825E+03  0.80567163951E+02 0.  0.
          5    1    5    5  501    0 -0.74205449285E+01  0.20084370963E+02 -0.13917205446E+03  0.14088788871E+03  0.47000000000E+01 0. -1.
        -13    1    6    6    0    0  0.86438527827E+01 -0.34975767112E+00 -0.33158491510E+02  0.34268412285E+02  0.00000000000E+00 0.  1.
         14    1    6    6    0    0 -0.11017633067E+03 -0.87885868709E+02 -0.12374222682E+03  0.18754969596E+03  0.00000000000E+00 0. -1.
         -5    1    3    3    0  503 -0.80834984475E+01  0.73117489699E+02 -0.21662358779E+03  0.22882171889E+03  0.47000000000E+01 0.  1.
         13    1    4    4    0    0  0.48085489979E+02  0.38041641051E+02 -0.16570614803E+03  0.17668590294E+03  0.00000000000E+00 0. -1.
        -14    1    4    4    0    0  0.68951031282E+02 -0.43007875333E+02 -0.20842012827E+03  0.22370264175E+03  0.00000000000E+00 0.  1.
</event>
<event>
12    1  0.8133506E-002  0.3259114E+03  0.7818608E-02  0.1073008E+00
         21   -1    0    0  501  502  0.00000000000E+00  0.00000000000E+00  0.19718271654E+04  0.19718271654E+04  0.00000000000E+00 0.  1.
         21   -1    0    0  502  503 -0.00000000000E+00 -0.00000000000E+00 -0.29387977509E+03  0.29387977509E+03  0.00000000000E+00 0. -1.
         -6    2    1    2    0  503  0.16222451501E+03 -0.22507367262E+03 -0.18485255401E+03  0.37468479786E+03  0.17100666549E+03 0.  0.
        -24    2    3    3    0    0  0.13092079216E+03 -0.21033436789E+03 -0.10201085946E+03  0.28478481719E+03  0.96516198209E+02 0.  0.
          6    2    1    2  501    0 -0.16222451501E+03  0.22507367262E+03  0.18627999443E+04  0.18910221426E+04  0.17019447692E+03 0.  0.
         24    2    5    5    0    0 -0.12716484522E+03  0.70465747960E+02  0.87023179492E+03  0.88586224887E+03  0.79449528583E+02 0.  0.
          5    1    5    5  501    0 -0.35059669798E+02  0.15460792466E+03  0.99256814937E+03  0.10051598937E+04  0.47000000000E+01 0. -1.
        -13    1    6    6    0    0 -0.59057515620E+02  0.72886138307E+02  0.40882804111E+03  0.41945267493E+03  0.00000000000E+00 0.  1.
         14    1    6    6    0    0 -0.68107329597E+02 -0.24203903470E+01  0.46140375381E+03  0.46640957394E+03  0.00000000000E+00 0. -1.
         -5    1    3    3    0  503  0.31303722855E+02 -0.14739304732E+02 -0.82841694551E+02  0.89899980671E+02  0.47000000000E+01 0.  1.
         11    1    4    4    0    0  0.13117231155E+03 -0.15302473601E+03 -0.10526184465E+03  0.22738249952E+03  0.00000000000E+00 0. -1.
        -12    1    4    4    0    0 -0.25151939334E+00 -0.57309631885E+02  0.32509851949E+01  0.57402317667E+02  0.00000000000E+00 0.  1.
</event>
<event>
12    1  0.8133506E-002  0.2850892E+03  0.7818608E-02  0.1094597E+00
         21   -1    0    0  503  502  0.00000000000E+00  0.00000000000E+00  0.21180584041E+03  0.21180584041E+03  0.00000000000E+00 0.  1.
         21   -1    0    0  501  503 -0.00000000000E+00 -0.00000000000E+00 -0.36816765924E+03  0.36816765924E+03  0.00000000000E+00 0. -1.
          6    2    1    2  501    0 -0.21249791013E+03  0.57894785139E+01 -0.68319648382E+02  0.29316110883E+03  0.18996573771E+03 0.  0.
         24    2    3    3    0    0 -0.20102043269E+03  0.62941569068E+02 -0.44633959842E+02  0.23006439113E+03  0.81034426125E+02 0.  0.
         -6    2    1    2    0  502  0.21249791013E+03 -0.57894785139E+01 -0.88042170447E+02  0.28681239082E+03  0.17123388649E+03 0.  0.
        -24    2    5    5    0    0  0.97605346525E+02  0.21949072710E+02  0.15723636978E+02  0.12946195013E+03  0.80651089947E+02 0.  0.
          5    1    3    3  501    0 -0.11477477435E+02 -0.57152090554E+02 -0.23685688540E+02  0.63096717701E+02  0.47000000000E+01 0. -1.
        -13    1    4    4    0    0 -0.18364414834E+03  0.44272682512E+02 -0.12890760946E+02  0.18934469983E+03  0.00000000000E+00 0.  1.
         14    1    4    4    0    0 -0.17376284351E+02  0.18668886556E+02 -0.31743198896E+02  0.40719691296E+02  0.00000000000E+00 0. -1.
         -5    1    5    5    0  502  0.11489256360E+03 -0.27738551224E+02 -0.10376580742E+03  0.15735044069E+03  0.47000000000E+01 0.  1.
         11    1    6    6    0    0  0.10900875296E+03  0.30635706043E+02  0.88870831005E+01  0.11358008167E+03  0.00000000000E+00 0. -1.
        -12    1    6    6    0    0 -0.11403406434E+02 -0.86866333324E+01  0.68365538774E+01  0.15881868463E+02  0.00000000000E+00 0.  1.
</event>
<event>
12    1  0.8133506E-002  0.1830928E+03  0.7818608E-02  0.1164953E+00
         21   -1    0    0  503  502  0.00000000000E+00  0.00000000000E+00  0.24279806034E+03  0.24279806034E+03  0.00000000000E+00 0. -1.
         21   -1    0    0  501  503 -0.00000000000E+00 -0.00000000000E+00 -0.16392200331E+03  0.16392200331E+03  0.00000000000E+00 0. -1.
          6    2    1    2  501    0  0.23244181849E+02 -0.55301712287E+02 -0.41825947001E+02  0.18780944455E+03  0.17298672275E+03 0.  0.
         24    2    3    3    0    0 -0.46301727535E+02 -0.15202911955E+02 -0.57463392673E+02  0.10588773188E+03  0.74398869349E+02 0.  0.
         -6    2    1    2    0  502 -0.23244181849E+02  0.55301712287E+02  0.12070200402E+03  0.21891061910E+03  0.17249438833E+03 0.  0.
        -24    2    5    5    0    0  0.59558727449E+01  0.99725557909E+02  0.72757935785E+02  0.14716910443E+03  0.79902245008E+02 0.  0.
          5    1    3    3  501    0  0.69545909385E+02 -0.40098800333E+02  0.15637445671E+02  0.81921712674E+02  0.47000000000E+01 0. -1.
        -11    1    4    4    0    0  0.10332118716E+02 -0.87500507175E+00 -0.44968190495E+02  0.46148201129E+02  0.00000000000E+00 0.  1.
         12    1    4    4    0    0 -0.56633846251E+02 -0.14327906883E+02 -0.12495202178E+02  0.59739530750E+02  0.00000000000E+00 0. -1.
         -5    1    5    5    0  502 -0.29200054594E+02 -0.44423845622E+02  0.47944068240E+02  0.71741514673E+02  0.47000000000E+01 0.  1.
         11    1    6    6    0    0  0.71977398740E+01 -0.12171460195E+02  0.87664631287E+00  0.14167583116E+02  0.00000000000E+00 0. -1.
        -12    1    6    6    0    0 -0.12418671292E+01  0.11189701810E+03  0.71881289472E+02  0.13300152131E+03  0.00000000000E+00 0.  1.
</event>
<event>
12    1  0.8133506E-002  0.2158008E+03  0.7818608E-02  0.1137281E+00
         21   -1    0    0  501  502  0.00000000000E+00  0.00000000000E+00  0.31350613770E+02  0.31350613770E+02  0.00000000000E+00 0. -1.
         21   -1    0    0  502  503 -0.00000000000E+00 -0.00000000000E+00 -0.15650428985E+04  0.15650428985E+04  0.00000000000E+00 0.  1.
         -6    2    1    2    0  503  0.10890151412E+03  0.71806080185E+02 -0.57981668263E+03  0.61867388860E+03  0.17191376339E+03 0.  0.
        -24    2    3    3    0    0  0.12672640725E+03  0.87520452706E+02 -0.56154319848E+03  0.58833120345E+03  0.84163111032E+02 0.  0.
          6    2    1    2  501    0 -0.10890151412E+03 -0.71806080185E+02 -0.95387560210E+03  0.97771962368E+03  0.17041521443E+03 0.  0.
         24    2    5    5    0    0 -0.14264761528E+03 -0.73330305129E+02 -0.75777719813E+03  0.77867742552E+03  0.79916051081E+02 0.  0.
          5    1    5    5  501    0  0.33746101161E+02  0.15242249435E+01 -0.19609840397E+03  0.19904219815E+03  0.47000000000E+01 0. -1.
        -13    1    6    6    0    0 -0.14324170676E+03 -0.56749849943E+02 -0.73187728937E+03  0.74791917927E+03  0.00000000000E+00 0.  1.
         14    1    6    6    0    0  0.59409148077E+00 -0.16580455186E+02 -0.25899908756E+02  0.30758246251E+02  0.00000000000E+00 0. -1.
         -5    1    3    3    0  503 -0.17824893129E+02 -0.15714372521E+02 -0.18273484154E+02  0.30342685147E+02  0.47000000000E+01 0.  1.
         13    1    4    4    0    0  0.56362487670E+02  0.18306321720E+02 -0.99055598692E+02  0.11542903908E+03  0.00000000000E+00 0. -1.
        -14    1    4    4    0    0  0.70363919580E+02  0.69214130986E+02 -0.46248759979E+03  0.47290216437E+03  0.00000000000E+00 0.  1.
</event>
<event>
12    1  0.8133506E-002  0.2192658E+03  0.7818608E-02  0.1134970E+00
         21   -1    0    0  503  502  0.00000000000E+00  0.00000000000E+00  0.17583661724E+03  0.17583661724E+03  0.00000000000E+00 0.  1.
         21   -1    0    0  501  503 -0.00000000000E+00 -0.00000000000E+00 -0.27018135515E+03  0.27018135515E+03  0.00000000000E+00 0.  1.
          6    2    1    2  501    0 -0.10492951571E+03 -0.76885436184E+02 -0.54423114889E+02  0.22314754921E+03  0.17294906684E+03 0.  0.
         24    2    3    3    0    0 -0.12831642722E+03 -0.90165559506E+02 -0.16711671958E+02  0.17659057085E+03  0.79435609888E+02 0.  0.
         -6    2    1    2    0  502  0.10492951571E+03  0.76885436184E+02 -0.39921623016E+02  0.22287042317E+03  0.17651038490E+03 0.  0.
        -24    2    5    5    0    0  0.11533378277E+03  0.10377793389E+02 -0.52263668164E+02  0.15427063162E+03  0.87512037615E+02 0.  0.
          5    1    3    3  501    0  0.23386911514E+02  0.13280123323E+02 -0.37711442931E+02  0.46556978355E+02  0.47000000000E+01 0. -1.
        -13    1    4    4    0    0 -0.99859433021E+02 -0.51501055553E+02  0.22519087369E+02  0.11459220908E+03  0.00000000000E+00 0.  1.
         14    1    4    4    0    0 -0.28456994204E+02 -0.38664503953E+02 -0.39230759328E+02  0.61998361772E+02  0.00000000000E+00 0. -1.
         -5    1    5    5    0  502 -0.10404267055E+02  0.66507642794E+02  0.12342045148E+02  0.68599791555E+02  0.47000000000E+01 0.  1.
         13    1    6    6    0    0  0.53468324328E+01  0.32239518448E+02 -0.16205907879E+02  0.36477480957E+02  0.00000000000E+00 0. -1.
        -14    1    6    6    0    0  0.10998695033E+03 -0.21861725058E+02 -0.36057760285E+02  0.11779315066E+03  0.00000000000E+00 0.  1.
</event>
<event>
12    1  0.8133506E-002  0.1915499E+03  0.7818608E-02  0.1157343E+00
         21   -1    0    0  503  502  0.00000000000E+00  0.00000000000E+00  0.28646620320E+02  0.28646620320E+02  0.00000000000E+00 0. -1.
         21   -1    0    0  501  503 -0.00000000000E+00 -0.00000000000E+00 -0.27165862393E+04  0.27165862393E+04  0.00000000000E+00 0. -1.
          6    2    1    2  501    0 -0.50077279900E+02 -0.67443241025E+02 -0.23466643853E+04  0.23544691757E+04  0.17214830106E+03 0.  0.
         24    2    3    3    0    0  0.34635056577E+02 -0.39451717825E+02 -0.15117755062E+04  0.15148137489E+04  0.80246418174E+02 0.  0.
         -6    2    1    2    0  502  0.50077279900E+02  0.67443241025E+02 -0.34127523369E+03  0.39076368389E+03  0.17079562873E+03 0.  0.
        -24    2    5    5    0    0 -0.34795040985E+02  0.28099870419E+02 -0.12205100810E+03  0.15236787279E+03  0.79493537384E+02 0.  0.
          5    1    3    3  501    0 -0.84712336477E+02 -0.27991523201E+02 -0.83488887910E+03  0.83965542681E+03  0.47000000000E+01 0. -1.
        -11    1    4    4    0    0  0.93224812139E+01  0.21019750466E+02 -0.18560281204E+03  0.18702176986E+03  0.00000000000E+00 0.  1.
         12    1    4    4    0    0  0.25312575363E+02 -0.60471468291E+02 -0.13261726941E+04  0.13277919790E+04  0.00000000000E+00 0. -1.
         -5    1    5    5    0  502  0.84872320884E+02  0.39343370606E+02 -0.21922422559E+03  0.23839581110E+03  0.47000000000E+01 0.  1.
         13    1    6    6    0    0  0.44162488612E+01 -0.13287506149E+02  0.35393769235E+01  0.14442585041E+02  0.00000000000E+00 0. -1.
        -14    1    6    6    0    0 -0.39211289846E+02  0.41387376568E+02 -0.12559038502E+03  0.13792528775E+03  0.00000000000E+00 0.  1.
</event>
<event>
12    1  0.8133506E-002  0.2364102E+03  0.7818608E-02  0.1124108E+00
         21   -1    0    0  501  502  0.00000000000E+00  0.00000000000E+00  0.14336570138E+03  0.14336570138E+03  0.00000000000E+00 0. -1.
         21   -1    0    0  502  503 -0.00000000000E+00 -0.00000000000E+00 -0.14726131377E+04  0.14726131377E+04  0.00000000000E+00 0. -1.
         -6    2    1    2    0  503 -0.14371951729E+03  0.21899689283E+02 -0.13591103643E+04  0.13776899466E+04  0.17237665361E+03 0.  0.
        -24    2    3    3    0    0 -0.78211773493E+02 -0.22587619035E+01 -0.11821372653E+04  0.11873837118E+04  0.79431615041E+02 0.  0.
          6    2    1    2  501    0  0.14371951729E+03 -0.21899689283E+02  0.29862927949E+02  0.23828889247E+03  0.18642667665E+03 0.  0.
         24    2    5    5    0    0  0.13664945226E+02 -0.24407683963E+02 -0.35662057812E+02  0.92562794906E+02  0.80707018710E+02 0.  0.
          5    1    5    5  501    0  0.13005457206E+03  0.25079946805E+01  0.65524985760E+02  0.14572609756E+03  0.47000000000E+01 0. -1.
        -11    1    6    6    0    0  0.39653712338E+01 -0.59039017812E+01  0.26262777330E+02  0.27208706297E+02  0.00000000000E+00 0.  1.
         12    1    6    6    0    0  0.96995739924E+01 -0.18503782182E+02 -0.61924835142E+02  0.65354088610E+02  0.00000000000E+00 0. -1.
         -5    1    3    3    0  503 -0.65507743796E+02  0.24158451186E+02 -0.17697309899E+03  0.19030623487E+03  0.47000000000E+01 0.  1.
         11    1    4    4    0    0 -0.94397107196E+02 -0.49640635677E+01 -0.96072297042E+03  0.96536215052E+03  0.00000000000E+00 0. -1.
        -12    1    4    4    0    0  0.16185333704E+02  0.27053016641E+01 -0.22141429486E+03  0.22202156124E+03  0.00000000000E+00 0.  1.
</event>
<event>
12    1  0.8133506E-002  0.2287070E+03  0.7818608E-02  0.1128018E+00
         21   -1    0    0  503  502  0.00000000000E+00  0.00000000000E+00  0.88611792827E+02  0.88611792827E+02  0.00000000000E+00 0.  1.
         21   -1    0    0  501  503 -0.00000000000E+00 -0.00000000000E+00 -0.12604048630E+04  0.12604048630E+04  0.00000000000E+00 0. -1.
          6    2    1    2  501    0  0.12626094773E+03  0.70344162413E+02 -0.10817262908E+04  0.11056394748E+04  0.17724771306E+03 0.  0.
         24    2    3    3    0    0  0.72180490613E+02  0.62715336553E+02 -0.34646620165E+03  0.36833873316E+03  0.80568956800E+02 0.  0.
         -6    2    1    2    0  502 -0.12626094773E+03 -0.70344162413E+02 -0.90066779306E+02  0.24337718102E+03  0.17386862685E+03 0.  0.
        -24    2    5    5    0    0 -0.15510857417E+03 -0.84323435804E+02 -0.77562658444E+02  0.20864896952E+03  0.79682588380E+02 0.  0.
          5    1    3    3  501    0  0.54080457113E+02  0.76288258592E+01 -0.73526008919E+03  0.73730074161E+03  0.47000000000E+01 0. -1.
        -11    1    4    4    0    0 -0.12509398866E+02 -0.25499329194E+01 -0.13297272617E+02  0.18433791713E+02  0.00000000000E+00 0.  1.
         12    1    4    4    0    0  0.84689889479E+02  0.65265269473E+02 -0.33316892903E+03  0.34990494145E+03  0.00000000000E+00 0. -1.
         -5    1    5    5    0  502  0.28847626440E+02  0.13979273392E+02 -0.12504120863E+02  0.34728211505E+02  0.47000000000E+01 0.  1.
         11    1    6    6    0    0 -0.25469237129E+02  0.10687020351E+02 -0.30554378478E+02  0.41188159562E+02  0.00000000000E+00 0. -1.
        -12    1    6    6    0    0 -0.12963933704E+03 -0.95010456155E+02 -0.47008279966E+02  0.16746080996E+03  0.00000000000E+00 0.  1.
</event>
<event>
12    1  0.8133506E-002  0.3035558E+03  0.7818608E-02  0.1083582E+00
         21   -1    0    0  503  502  0.00000000000E+00  0.00000000000E+00  0.62948883859E+03  0.62948883859E+03  0.00000000000E+00 0.  1.
         21   -1    0    0  501  503 -0.00000000000E+00 -0.00000000000E+00 -0.60089208373E+03  0.60089208373E+03  0.00000000000E+00 0.  1.
          6    2    1    2  501    0 -0.22011235769E+03  0.11678603835E+03 -0.52097445680E+03  0.60295979934E+03  0.17337158423E+03 0.  0.
         24    2    3    3    0    0 -0.78776756962E+02  0.33166953782E+02 -0.33457774123E+03  0.35449706790E+03  0.80125413973E+02 0.  0.
         -6    2    1    2    0  502  0.22011235769E+03 -0.11678603835E+03  0.54957121166E+03  0.62742112298E+03  0.17187297669E+03 0.  0.
        -24    2    5    5    0    0  0.11428352229E+03 -0.84513533546E+02  0.45318258762E+03  0.48060792939E+03  0.73527295952E+02 0.  0.
          5    1    3    3  501    0 -0.14133560072E+03  0.83619084569E+02 -0.18639671557E+03  0.24846273143E+03  0.47000000000E+01 0. -1.
        -13    1    4    4    0    0 -0.22826421806E+02 -0.96988757559E+01 -0.20920454233E+03  0.21066953804E+03  0.00000000000E+00 0.  1.
         14    1    4    4    0    0 -0.55950335156E+02  0.42865829538E+02 -0.12537319890E+03  0.14382752987E+03  0.00000000000E+00 0. -1.
         -5    1    5    5    0  502  0.10582883540E+03 -0.32272504805E+02  0.96388624044E+02  0.14681319360E+03  0.47000000000E+01 0.  1.
         13    1    6    6    0    0  0.77752624426E+01  0.81687218822E+01  0.87089326007E+01  0.14248797503E+02  0.00000000000E+00 0. -1.
        -14    1    6    6    0    0  0.10650825984E+03 -0.92682255428E+02  0.44447365502E+03  0.46635913188E+03  0.00000000000E+00 0.  1.
</event>
<event>
12    1  0.8133506E-002  0.2348432E+03  0.7818608E-02  0.1123544E+00
         21   -1    0    0  503  502  0.00000000000E+00  0.00000000000E+00  0.84866468044E+02  0.84866468044E+02  0.00000000000E+00 0.  1.
         21   -1    0    0  501  503 -0.00000000000E+00 -0.00000000000E+00 -0.66744516678E+03  0.66744516678E+03  0.00000000000E+00 0.  1.
          6    2    1    2  501    0 -0.14782625232E+03  0.55862791593E+02 -0.22411865021E+03  0.32462365656E+03  0.17371844079E+03 0.  0.
         24    2    3    3    0    0 -0.90965420761E+02 -0.73148398846E+01 -0.20321670215E+03  0.23696780269E+03  0.80799114020E+02 0.  0.
         -6    2    1    2    0  502  0.14782625232E+03 -0.55862791593E+02 -0.35846004853E+03  0.42768797826E+03  0.17161045421E+03 0.  0.
        -24    2    5    5    0    0  0.73090529769E+02 -0.78910897100E+02 -0.13218488871E+03  0.18823196696E+03  0.79932930389E+02 0.  0.
          5    1    3    3  501    0 -0.56860831562E+02  0.63177631477E+02 -0.20901948060E+02  0.87655853870E+02  0.47000000000E+01 0. -1.
        -11    1    4    4    0    0 -0.75303612338E+02 -0.19671637733E+02 -0.78061099266E+02  0.11023222116E+03  0.00000000000E+00 0.  1.
         12    1    4    4    0    0 -0.15661808424E+02  0.12356797849E+02 -0.12515560288E+03  0.12673558154E+03  0.00000000000E+00 0. -1.
         -5    1    5    5    0  502  0.74735722554E+02  0.23048105507E+02 -0.22627515982E+03  0.23945601129E+03  0.47000000000E+01 0.  1.
         11    1    6    6    0    0 -0.12441850791E+01  0.85695619267E+01 -0.40215617232E+02  0.41137346262E+02  0.00000000000E+00 0. -1.
        -12    1    6    6    0    0  0.74334714848E+02 -0.87480459027E+02 -0.91969271475E+02  0.14709462070E+03  0.00000000000E+00 0.  1.
</event>
<event>
12    1  0.8133506E-002  0.1973935E+03  0.7818608E-02  0.1152253E+00
         21   -1    0    0  501  502  0.00000000000E+00  0.00000000000E+00  0.12167193771E+03  0.12167193771E+03  0.00000000000E+00 0. -1.
         21   -1    0    0  502  503 -0.00000000000E+00 -0.00000000000E+00 -0.39325145011E+03  0.39325145011E+03  0.00000000000E+00 0. -1.
         -6    2    1    2    0  503  0.87900658884E+02 -0.36146905302E+02 -0.24802123659E+03  0.31612902441E+03  0.17143483216E+03 0.  0.
        -24    2    3    3    0    0  0.36581648745E+02 -0.86246841342E+02 -0.14512024992E+03  0.19061270096E+03  0.80601365781E+02 0.  0.
          6    2    1    2  501    0 -0.87900658884E+02  0.36146905302E+02 -0.23558275807E+02  0.19879436342E+03  0.17300601715E+03 0.  0.
         24    2    5    5    0    0  0.25414057694E+01  0.32672514738E+02  0.31971373250E+02  0.92504804319E+02  0.80380458770E+02 0.  0.
          5    1    5    5  501    0 -0.90442064654E+02  0.34743905643E+01 -0.55529649056E+02  0.10628955910E+03  0.47000000000E+01 0. -1.
        -11    1    6    6    0    0  0.25796539622E+02 -0.13486677134E+02 -0.42112817384E+01  0.29412358125E+02  0.00000000000E+00 0.  1.
         12    1    6    6    0    0 -0.23255133853E+02  0.46159191872E+02  0.36182654988E+02  0.63092446194E+02  0.00000000000E+00 0. -1.
         -5    1    3    3    0  503  0.51319010139E+02  0.50099936040E+02 -0.10290098667E+03  0.12551632344E+03  0.47000000000E+01 0.  1.
         13    1    4    4    0    0  0.52242741206E+02 -0.25168182191E+02 -0.88860325046E+02  0.10610795809E+03  0.00000000000E+00 0. -1.
        -14    1    4    4    0    0 -0.15661092461E+02 -0.61078659151E+02 -0.56259924871E+02  0.84504742869E+02  0.00000000000E+00 0.  1.
</event>
<event>
12    1  0.8133506E-002  0.1919050E+03  0.7818608E-02  0.1156954E+00
         21   -1    0    0  501  502  0.00000000000E+00  0.00000000000E+00  0.20216259969E+03  0.20216259969E+03  0.00000000000E+00 0.  1.
         21   -1    0    0  502  503 -0.00000000000E+00 -0.00000000000E+00 -0.56808026684E+03  0.56808026684E+03  0.00000000000E+00 0.  1.
         -6    2    1    2    0  503 -0.75772315592E+02 -0.43288979847E+02 -0.50059309669E+03  0.53579672888E+03  0.16990970140E+03 0.  0.
        -24    2    3    3    0    0 -0.28802465086E+01 -0.34784201398E+02 -0.12537657063E+03  0.15344202912E+03  0.81283056977E+02 0.  0.
          6    2    1    2  501    0  0.75772315592E+02  0.43288979847E+02  0.13467542955E+03  0.23444613765E+03  0.17091559481E+03 0.  0.
         24    2    5    5    0    0  0.87378360396E+02 -0.20384752386E+02  0.56994695442E+02  0.13322642167E+03  0.80314183847E+02 0.  0.
          5    1    5    5  501    0 -0.11606044804E+02  0.63673732233E+02  0.77680734105E+02  0.10121971598E+03  0.47000000000E+01 0. -1.
        -11    1    6    6    0    0  0.52929867231E+02 -0.34569661842E+02  0.69478669089E+02  0.93935711119E+02  0.00000000000E+00 0.  1.
         12    1    6    6    0    0  0.34448493165E+02  0.14184909456E+02 -0.12483973647E+02  0.39290710551E+02  0.00000000000E+00 0. -1.
         -5    1    3    3    0  503 -0.72892069084E+02 -0.85047784491E+01 -0.37521652606E+03  0.38235469975E+03  0.47000000000E+01 0.  1.
         13    1    4    4    0    0 -0.23680221022E+02 -0.45789952657E+02 -0.41063718253E+02  0.65906764363E+02  0.00000000000E+00 0. -1.
        -14    1    4    4    0    0  0.20799974514E+02  0.11005751260E+02 -0.84312852379E+02  0.87535264761E+02  0.00000000000E+00 0.  1.
</event>
<event>
12    1  0.8133506E-002  0.2269196E+03  0.7818608E-02  0.1130894E+00
         21   -1    0    0  501  502  0.00000000000E+00  0.00000000000E+00  0.70400130285E+02  0.70400130285E+02  0.00000000000E+00 0. -1.
         21   -1    0    0  502  503 -0.00000000000E+00 -0.00000000000E+00 -0.83506313808E+03  0.83506313808E+03  0.00000000000E+00 0. -1.
         -6    2    1    2    0  503  0.90023816604E+02 -0.93660816991E+02 -0.57534321869E+03  0.61847579191E+03  0.18605335174E+03 0.  0.
        -24    2    3    3    0    0  0.10932067531E+02 -0.11596673070E+03 -0.31012587798E+03  0.34077921943E+03  0.79903838892E+02 0.  0.
          6    2    1    2  501    0 -0.90023816604E+02  0.93660816991E+02 -0.18931978910E+03  0.28698747645E+03  0.17217198639E+03 0.  0.
         24    2    5    5    0    0 -0.10850377602E+03  0.71216337568E+02 -0.20362474147E+03  0.25424629109E+03  0.79582064872E+02 0.  0.
          5    1    5    5  501    0  0.18479959412E+02  0.22444479424E+02  0.14304952367E+02  0.32741185359E+02  0.47000000000E+01 0. -1.
        -11    1    6    6    0    0 -0.69188542409E+01  0.10763151099E+02 -0.87873386804E+02  0.88800045462E+02  0.00000000000E+00 0.  1.
         12    1    6    6    0    0 -0.10158492178E+03  0.60453186469E+02 -0.11575135466E+03  0.16544624563E+03  0.00000000000E+00 0. -1.
         -5    1    3    3    0  503  0.79091749073E+02  0.22305913705E+02 -0.26521734071E+03  0.27769657248E+03  0.47000000000E+01 0.  1.
         13    1    4    4    0    0 -0.33641092870E+02 -0.34051236495E+02 -0.11217939212E+03  0.12196485499E+03  0.00000000000E+00 0. -1.
        -14    1    4    4    0    0  0.44573160401E+02 -0.81915494201E+02 -0.19794648586E+03  0.21881436443E+03  0.00000000000E+00 0.  1.
</event>
<event>
12    1  0.8133506E-002  0.1869122E+03  0.7818608E-02  0.1161507E+00
         21   -1    0    0  503  502  0.00000000000E+00  0.00000000000E+00  0.60795392062E+03  0.60795392062E+03  0.00000000000E+00 0. -1.
         21   -1    0    0  501  503 -0.00000000000E+00 -0.00000000000E+00 -0.60099243861E+02  0.60099243861E+02  0.00000000000E+00 0. -1.
          6    2    1    2  501    0  0.70145093174E+02  0.31350025804E+02  0.34850879994E+03  0.39546749955E+03  0.17039073142E+03 0.  0.
         24    2    3    3    0    0  0.85671949994E+01 -0.40821622853E+02  0.21791890965E+03  0.23398563104E+03  0.74302238374E+02 0.  0.
         -6    2    1    2    0  502 -0.70145093174E+02 -0.31350025804E+02  0.19934587682E+03  0.27258566493E+03  0.16929562281E+03 0.  0.
        -24    2    5    5    0    0  0.10808255931E+01 -0.64931647962E+02  0.80689217325E+02  0.13009935087E+03  0.78726134245E+02 0.  0.
          5    1    3    3  501    0  0.61577898175E+02  0.72171648657E+02  0.13058989029E+03  0.16148186851E+03  0.47000000000E+01 0. -1.
        -13    1    4    4    0    0  0.78784079798E+01 -0.29676298414E+02  0.22056846556E+02  0.37805508592E+02  0.00000000000E+00 0.  1.
         14    1    4    4    0    0  0.68878701963E+00 -0.11145324439E+02  0.19586206309E+03  0.19618012245E+03  0.00000000000E+00 0. -1.
         -5    1    5    5    0  502 -0.71225918767E+02  0.33581622158E+02  0.11865665950E+03  0.14248631406E+03  0.47000000000E+01 0.  1.
         11    1    6    6    0    0 -0.19446882453E+02 -0.82111014630E+01  0.64176627825E+02  0.67559181340E+02  0.00000000000E+00 0. -1.
        -12    1    6    6    0    0  0.20527708046E+02 -0.56720546499E+02  0.16512589501E+02  0.62540169530E+02  0.00000000000E+00 0.  1.
</event>
<event>
12    1  0.8133506E-002  0.1933586E+03  0.7818608E-02  0.1155570E+00
         21   -1    0    0  503  502  0.00000000000E+00  0.00000000000E+00  0.87141245984E+02  0.87141245984E+02  0.00000000000E+00 0. -1.
         21   -1    0    0  501  503 -0.00000000000E+00 -0.00000000000E+00 -0.57767717531E+03  0.57767717531E+03  0.00000000000E+00 0. -1.
          6    2    1    2  501    0  0.82079469791E+02  0.37156129865E+02 -0.41469060149E+03  0.45755420310E+03  0.17108458862E+03 0.  0.
         24    2    3    3    0    0 -0.10909826668E+02  0.56674437263E+01 -0.10536966370E+03  0.13299283885E+03  0.80207137589E+02 0.  0.
         -6    2    1    2    0  502 -0.82079469791E+02 -0.37156129865E+02 -0.75845327837E+02  0.20726421819E+03  0.17055299775E+03 0.  0.
        -24    2    5    5    0    0 -0.46423805238E+02 -0.88953604344E+02 -0.51819117617E+02  0.13978345386E+03  0.82378878390E+02 0.  0.
          5    1    3    3  501    0  0.92989296459E+02  0.31488686138E+02 -0.30932093779E+03  0.32456136425E+03  0.47000000000E+01 0. -1.
        -13    1    4    4    0    0  0.10512072950E+02  0.85658525601E+01  0.92098047564E+01  0.16392010598E+02  0.00000000000E+00 0.  1.
         14    1    4    4    0    0 -0.21421899618E+02 -0.28984088338E+01 -0.11457946845E+03  0.11660082825E+03  0.00000000000E+00 0. -1.
         -5    1    5    5    0  502 -0.35655664553E+02  0.51797474479E+02 -0.24026210220E+02  0.67480764331E+02  0.47000000000E+01 0.  1.
         11    1    6    6    0    0 -0.49837126857E+02 -0.40978194444E+02 -0.63244528881E+02  0.90348337376E+02  0.00000000000E+00 0. -1.
        -12    1    6    6    0    0  0.34133216189E+01 -0.47975409901E+02  0.11425411264E+02  0.49435116488E+02  0.00000000000E+00 0.  1.
</event>
<event>
12    1  0.8133506E-002  0.1855872E+03  0.7818608E-02  0.1167441E+00
         21   -1    0    0  503  502  0.00000000000E+00  0.00000000000E+00  0.46966443850E+03  0.46966443850E+03  0.00000000000E+00 0. -1.
         21   -1    0    0  501  503 -0.00000000000E+00 -0.00000000000E+00 -0.65653991852E+02  0.65653991852E+02  0.00000000000E+00 0. -1.
          6    2    1    2  501    0 -0.67054724945E+02 -0.19493255679E+02  0.18815994857E+03  0.25065360365E+03  0.15015571791E+03 0.  0.
         24    2    3    3    0    0 -0.69195280746E+02  0.26509067796E+02  0.16226488927E+03  0.19761173490E+03  0.85028147848E+02 0.  0.
         -6    2    1    2    0  502  0.67054724945E+02  0.19493255679E+02  0.21585049807E+03  0.28466482670E+03  0.17194854721E+03 0.  0.
        -24    2    5    5    0    0  0.84326165767E+02  0.41968604380E+02  0.22313855430E+03  0.25502280027E+03  0.79834505401E+02 0.  0.
          5    1    3    3  501    0  0.21405558013E+01 -0.46002323474E+02  0.25895059298E+02  0.53041868747E+02  0.47000000000E+01 0. -1.
        -11    1    4    4    0    0 -0.16488022267E+02  0.24803908415E+02  0.31079937133E+01  0.29945757226E+02  0.00000000000E+00 0.  1.
         12    1    4    4    0    0 -0.52707258479E+02  0.17051593804E+01  0.15915689556E+03  0.16766597768E+03  0.00000000000E+00 0. -1.
         -5    1    5    5    0  502 -0.17271440823E+02 -0.22475348702E+02 -0.72880562320E+01  0.29642026432E+02  0.47000000000E+01 0.  1.
         11    1    6    6    0    0  0.60773474498E+02  0.66072141641E+02  0.16288540906E+03  0.18598548220E+03  0.00000000000E+00 0. -1.
        -12    1    6    6    0    0  0.23552691269E+02 -0.24103537260E+02  0.60253145240E+02  0.69037318067E+02  0.00000000000E+00 0.  1.
</event>
<event>
12    1  0.8133506E-002  0.2177775E+03  0.7818608E-02  0.1135657E+00
         21   -1    0    0  503  502  0.00000000000E+00  0.00000000000E+00  0.51207713840E+03  0.51207713840E+03  0.00000000000E+00 0. -1.
         21   -1    0    0  501  503 -0.00000000000E+00 -0.00000000000E+00 -0.95524406690E+02  0.95524406690E+02  0.00000000000E+00 0. -1.
          6    2    1    2  501    0 -0.32742629677E+01  0.13332061538E+03  0.15287598012E+03  0.26561837496E+03  0.17145538352E+03 0.  0.
         24    2    3    3    0    0 -0.18950677800E+02  0.15620482523E+03  0.10112991420E+03  0.20671860943E+03  0.88012773641E+02 0.  0.
         -6    2    1    2    0  502  0.32742629677E+01 -0.13332061538E+03  0.26367675160E+03  0.34198317013E+03  0.17216838281E+03 0.  0.
        -24    2    5    5    0    0  0.53816317044E+02 -0.32413171688E+02  0.14606195273E+03  0.17891219683E+03  0.82028473465E+02 0.  0.
          5    1    3    3  501    0  0.15676414832E+02 -0.22884209849E+02  0.51746065915E+02  0.58899765535E+02  0.47000000000E+01 0. -1.
        -13    1    4    4    0    0 -0.34438443642E+01  0.15505873421E+03  0.10872850162E+03  0.18941213842E+03  0.00000000000E+00 0.  1.
         14    1    4    4    0    0 -0.15506833436E+02  0.11460910186E+01 -0.75985874176E+01  0.17306471003E+02  0.00000000000E+00 0. -1.
         -5    1    5    5    0  502 -0.50542054076E+02 -0.10090744369E+03  0.11761479887E+03  0.16307097331E+03  0.47000000000E+01 0.  1.
         13    1    6    6    0    0  0.39917591199E+02 -0.58449558758E+02  0.12105500261E+03  0.14022866563E+03  0.00000000000E+00 0. -1.
        -14    1    6    6    0    0  0.13898725845E+02  0.26036387070E+02  0.25006950115E+02  0.38683531197E+02  0.00000000000E+00 0.  1.
</event>
<event>
12    1  0.8133506E-002  0.2410946E+03  0.7818608E-02  0.1119127E+00
         21   -1    0    0  501  502  0.00000000000E+00  0.00000000000E+00  0.91795217598E+03  0.91795217598E+03  0.00000000000E+00 0.  1.
         21   -1    0    0  502  503 -0.00000000000E+00 -0.00000000000E+00 -0.86305528443E+02  0.86305528443E+02  0.00000000000E+00 0. -1.
         -6    2    1    2    0  503 -0.82443545816E+02 -0.14662136418E+03  0.15639037837E+03  0.28737528948E+03  0.17271897369E+03 0.  0.
        -24    2    3    3    0    0  0.20512332594E+02 -0.82950376603E+02  0.46501845761E+02  0.12381647083E+03  0.76593576897E+02 0.  0.
          6    2    1    2  501    0  0.82443545816E+02  0.14662136418E+03  0.67525626916E+03  0.71688241495E+03  0.17220512516E+03 0.  0.
         24    2    5    5    0    0  0.98255478731E+02  0.42117119426E+02  0.35747159955E+03  0.38194907734E+03  0.81677183775E+02 0.  0.
          5    1    5    5  501    0 -0.15811932915E+02  0.10450424476E+03  0.31778466962E+03  0.33493333760E+03  0.47000000000E+01 0. -1.
        -11    1    6    6    0    0  0.70620062929E+02  0.60889026738E+02  0.31125538525E+03  0.32492242415E+03  0.00000000000E+00 0.  1.
         12    1    6    6    0    0  0.27635415802E+02 -0.18771907313E+02  0.46216214295E+02  0.57026653193E+02  0.00000000000E+00 0. -1.
         -5    1    3    3    0  503 -0.10295587841E+03 -0.63670987581E+02  0.10988853261E+03  0.16355881865E+03  0.47000000000E+01 0.  1.
         11    1    4    4    0    0  0.11955897541E+02 -0.96457603204E+02  0.32275525756E+02  0.10241446316E+03  0.00000000000E+00 0. -1.
        -12    1    4    4    0    0  0.85564350529E+01  0.13507226600E+02  0.14226320005E+02  0.21402007666E+02  0.00000000000E+00 0.  1.
</event>
<event>
12    1  0.8133506E-002  0.2144287E+03  0.7818608E-02  0.1138273E+00
         21   -1    0    0  503  502  0.00000000000E+00  0.00000000000E+00  0.60983282887E+02  0.60983282887E+02  0.00000000000E+00 0.  1.
         21   -1    0    0  501  503 -0.00000000000E+00 -0.00000000000E+00 -0.83354860312E+03  0.83354860312E+03  0.00000000000E+00 0.  1.
          6    2    1    2  501    0  0.14223285841E+02  0.12722769014E+03 -0.52638656853E+03  0.56806039462E+03  0.17094035629E+03 0.  0.
         24    2    3    3    0    0 -0.45882698334E+02  0.31277635081E+02 -0.28613838748E+03  0.30242827890E+03  0.80648463289E+02 0.  0.
         -6    2    1    2    0  502 -0.14223285841E+02 -0.12722769014E+03 -0.24617875169E+03  0.32647149138E+03  0.17201880682E+03 0.  0.
        -24    2    5    5    0    0 -0.69753939426E+02 -0.48801365314E+02 -0.15432336220E+03  0.19345328025E+03  0.79757671707E+02 0.  0.
          5    1    3    3  501    0  0.60105984175E+02  0.95950055058E+02 -0.24024818106E+03  0.26563211572E+03  0.47000000000E+01 0. -1.
        -11    1    4    4    0    0 -0.18191419496E+02  0.11555751337E+02 -0.25627049455E+03  0.25717509504E+03  0.00000000000E+00 0.  1.
         12    1    4    4    0    0 -0.27691278838E+02  0.19721883745E+02 -0.29867892931E+02  0.45253183869E+02  0.00000000000E+00 0. -1.
         -5    1    5    5    0  502  0.55530653585E+02 -0.78426324825E+02 -0.91855389492E+02  0.13301821113E+03  0.47000000000E+01 0.  1.
         13    1    6    6    0    0  0.16666106897E+02 -0.45110140189E+01 -0.11504782160E+02  0.20747731904E+02  0.00000000000E+00 0. -1.
        -14    1    6    6    0    0 -0.86420046323E+02 -0.44290351295E+02 -0.14281858004E+03  0.17270554835E+03  0.00000000000E+00 0.  1.
</event>
<event>
12    1  0.8133506E-002  0.1766589E+03  0.7818608E-02  0.1171972E+00
         21   -1    0    0  503  502  0.00000000000E+00  0.00000000000E+00  0.13510553303E+04  0.13510553303E+04  0.00000000000E+00 0. -1.
         21   -1    0    0  501  503 -0.00000000000E+00 -0.00000000000E+00 -0.24212965495E+02  0.24212965495E+02  0.00000000000E+00 0. -1.
          6    2    1    2  501    0  0.33356383523E+01 -0.21546050915E+02  0.49419318565E+03  0.52481926298E+03  0.17530828635E+03 0.  0.
         24    2    3    3    0    0 -0.23990685141E+01  0.57599757468E+02  0.26758341469E+03  0.28467134161E+03  0.78188242875E+02 0.  0.
         -6    2    1    2    0  502 -0.33356383523E+01  0.21546050915E+02  0.83264917915E+03  0.85044903281E+03  0.17170772572E+03 0.  0.
        -24    2    5    5    0    0 -0.58761821006E+02  0.47135673868E+02  0.43252384562E+03  0.44566605014E+03  0.76593915276E+02 0.  0.
          5    1    3    3  501    0  0.57347068663E+01 -0.79145808383E+02  0.22660977096E+03  0.24014792137E+03  0.47000000000E+01 0. -1.
        -11    1    4    4    0    0 -0.30783694564E+02  0.54151037571E+02  0.13005800051E+03  0.14420490359E+03  0.00000000000E+00 0.  1.
         12    1    4    4    0    0  0.28384626049E+02  0.34487198964E+01  0.13752541418E+03  0.14046643802E+03  0.00000000000E+00 0. -1.
         -5    1    5    5    0  502  0.55426182653E+02 -0.25589622953E+02  0.40012533353E+03  0.40478298267E+03  0.47000000000E+01 0.  1.
         13    1    6    6    0    0 -0.18165865718E+02  0.61486928122E+02  0.24340023793E+03  0.25170283438E+03  0.00000000000E+00 0. -1.
        -14    1    6    6    0    0 -0.40595955288E+02 -0.14351254254E+02  0.18912360768E+03  0.19396321576E+03  0.00000000000E+00 0.  1.
</event>
<event>
12    1  0.8133506E-002  0.2275838E+03  0.7818608E-02  0.1128407E+00
         21   -1    0    0  503  502  0.00000000000E+00  0.00000000000E+00  0.66977915290E+02  0.66977915290E+02  0.00000000000E+00 0. -1.
         21   -1    0    0  501  503 -0.00000000000E+00 -0.00000000000E+00 -0.82657254062E+03  0.82657254062E+03  0.00000000000E+00 0. -1.
          6    2    1    2  501    0 -0.12774994708E+03 -0.76331201591E+02 -0.26502384748E+03  0.34912909131E+03  0.17177596267E+03 0.  0.
         24    2    3    3    0    0 -0.11145455965E+02 -0.74473327227E+02 -0.14514783905E+03  0.18181977763E+03  0.79498671066E+02 0.  0.
         -6    2    1    2    0  502  0.12774994708E+03  0.76331201591E+02 -0.49457077785E+03  0.54442136459E+03  0.17218555866E+03 0.  0.
        -24    2    5    5    0    0  0.12646573949E+03  0.90019505457E+02 -0.28471372636E+03  0.33406193193E+03  0.80239477574E+02 0.  0.
          5    1    3    3  501    0 -0.11660449112E+03 -0.18578743641E+01 -0.11987600844E+03  0.16730931368E+03  0.47000000000E+01 0. -1.
        -13    1    4    4    0    0 -0.35840417246E+02 -0.35464540699E+02 -0.32265393188E+02  0.59860878317E+02  0.00000000000E+00 0.  1.
         14    1    4    4    0    0  0.24694961280E+02 -0.39008786528E+02 -0.11288244586E+03  0.12195889932E+03  0.00000000000E+00 0. -1.
         -5    1    5    5    0  502  0.12842075955E+01 -0.13688303867E+02 -0.20985705149E+03  0.21035943266E+03  0.47000000000E+01 0.  1.
         13    1    6    6    0    0 -0.37937492396E+00  0.18814761824E+02 -0.61382432662E+01  0.19794373398E+02  0.00000000000E+00 0. -1.
        -14    1    6    6    0    0  0.12684511441E+03  0.71204743634E+02 -0.27857548309E+03  0.31426755853E+03  0.00000000000E+00 0.  1.
</event>
<event>
12    1  0.8133506E-002  0.1763079E+03  0.7818608E-02  0.1172199E+00
         21   -1    0    0  503  502  0.00000000000E+00  0.00000000000E+00  0.71312432780E+02  0.71312432780E+02  0.00000000000E+00 0.  1.
         21   -1    0    0  501  503 -0.00000000000E+00 -0.00000000000E+00 -0.92665523653E+03  0.92665523653E+03  0.00000000000E+00 0.  1.
          6    2    1    2  501    0  0.92958211743E+01  0.20202209342E+02 -0.79185058972E+03  0.81057570385E+03  0.17178787408E+03 0.  0.
         24    2    3    3    0    0  0.77679778369E+01 -0.13859958496E+02 -0.17523358189E+03  0.19299883420E+03  0.79305118697E+02 0.  0.
         -6    2    1    2    0  502 -0.92958211743E+01 -0.20202209342E+02 -0.63492214035E+02  0.18739196546E+03  0.17489981682E+03 0.  0.
        -24    2    5    5    0    0 -0.17141738645E+02 -0.26879861723E+00 -0.10696874789E+03  0.13869701418E+03  0.86606219519E+02 0.  0.
          5    1    3    3  501    0  0.15278433374E+01  0.34062167838E+02 -0.61661700783E+03  0.61757686965E+03  0.47000000000E+01 0. -1.
        -13    1    4    4    0    0  0.22746692591E+02 -0.35880194934E+02 -0.15144103638E+03  0.15728696040E+03  0.00000000000E+00 0.  1.
         14    1    4    4    0    0 -0.14978714754E+02  0.22020236438E+02 -0.23792545513E+02  0.35711873802E+02  0.00000000000E+00 0. -1.
         -5    1    5    5    0  502  0.78459174706E+01 -0.19933410725E+02  0.43476533860E+02  0.48694951284E+02  0.47000000000E+01 0.  1.
         11    1    6    6    0    0  0.17945016913E+02 -0.33339990211E+02 -0.32062696636E+02  0.49614464573E+02  0.00000000000E+00 0. -1.
        -12    1    6    6    0    0 -0.35086755558E+02  0.33071191594E+02 -0.74906051259E+02  0.89082549606E+02  0.00000000000E+00 0.  1.
</event>
<event>
12    1  0.8133506E-002  0.2088726E+03  0.7818608E-02  0.1142987E+00
         21   -1    0    0  503  502  0.00000000000E+00  0.00000000000E+00  0.33069342003E+03  0.33069342003E+03  0.00000000000E+00 0.  1.
         21   -1    0    0  501  503 -0.00000000000E+00 -0.00000000000E+00 -0.13030650910E+03  0.13030650910E+03  0.00000000000E+00 0.  1.
          6    2    1    2  501    0 -0.37441375481E+02 -0.11147192021E+03  0.10403204500E+03  0.23334617657E+03  0.17262655108E+03 0.  0.
         24    2    3    3    0    0 -0.28691635398E+02 -0.62255402514E+02  0.13708670645E+03  0.17323358047E+03  0.80735142502E+02 0.  0.
         -6    2    1    2    0  502  0.37441375481E+02  0.11147192021E+03  0.96354865931E+02  0.22765375256E+03  0.16945242775E+03 0.  0.
        -24    2    5    5    0    0 -0.74090444983E+01  0.30739847434E+02 -0.87325538677E+01  0.87672741177E+02  0.81304488731E+02 0.  0.
          5    1    3    3  501    0 -0.87497400827E+01 -0.49216517700E+02 -0.33054661447E+02  0.60112596096E+02  0.47000000000E+01 0. -1.
        -13    1    4    4    0    0 -0.15128041798E+02 -0.17871049124E+02  0.12230469259E+03  0.12452577996E+03  0.00000000000E+00 0.  1.
         14    1    4    4    0    0 -0.13563593600E+02 -0.44384353389E+02  0.14782013860E+02  0.48707800514E+02  0.00000000000E+00 0. -1.
         -5    1    5    5    0  502  0.44850419979E+02  0.80732072780E+02  0.10508741980E+03  0.13998101138E+03  0.47000000000E+01 0.  1.
         11    1    6    6    0    0 -0.18156983824E+01  0.17980155278E+02  0.36291751122E+02  0.40542248877E+02  0.00000000000E+00 0. -1.
        -12    1    6    6    0    0 -0.55933461158E+01  0.12759692155E+02 -0.45024304990E+02  0.47130492301E+02  0.00000000000E+00 0.  1.
</event>
<event>
12    1  0.8133506E-002  0.2285118E+03  0.7818608E-02  0.1127697E+00
         21   -1    0    0  501  502  0.00000000000E+00  0.00000000000E+00  0.12363282600E+03  0.12363282600E+03  0.00000000000E+00 0.  1.
         21   -1    0    0  502  503 -0.00000000000E+00 -0.00000000000E+00 -0.42721577504E+03  0.42721577504E+03  0.00000000000E+00 0.  1.
         -6    2    1    2    0  503 -0.12980922676E+03  0.74271927490E+02 -0.18131498421E+03  0.29168242327E+03  0.17273319884E+03 0.  0.
        -24    2    3    3    0    0 -0.12358743733E+03  0.20224633401E+02 -0.66460662062E+02  0.16450763812E+03  0.83443711193E+02 0.  0.
          6    2    1    2  501    0  0.12980922676E+03 -0.74271927490E+02 -0.12226796483E+03  0.25916617776E+03  0.17277412394E+03 0.  0.
         24    2    5    5    0    0  0.41730611663E+02 -0.10570063808E+03 -0.50178015646E+02  0.14099402765E+03  0.66688932654E+02 0.  0.
          5    1    5    5  501    0  0.88078615101E+02  0.31428710591E+02 -0.72089949188E+02  0.11817215011E+03  0.47000000000E+01 0. -1.
        -11    1    6    6    0    0  0.40328395506E+02 -0.71142507470E+02 -0.21470396635E+01  0.81806146667E+02  0.00000000000E+00 0.  1.
         12    1    6    6    0    0  0.14022161566E+01 -0.34558130611E+02 -0.48030975983E+02  0.59187880983E+02  0.00000000000E+00 0. -1.
         -5    1    3    3    0  503 -0.62217894334E+01  0.54047294089E+02 -0.11485432214E+03  0.12717478515E+03  0.47000000000E+01 0.  1.
         11    1    4    4    0    0 -0.52253637701E+02 -0.19255186660E+02  0.52399116018E+01  0.55934439658E+02  0.00000000000E+00 0. -1.
        -12    1    4    4    0    0 -0.71333799630E+02  0.39479820061E+02 -0.71700573663E+02  0.10857319847E+03  0.00000000000E+00 0.  1.
</event>
<event>
12    1  0.8133506E-002  0.1798939E+03  0.7818608E-02  0.1168489E+00
         21   -1    0    0  501  502  0.00000000000E+00  0.00000000000E+00  0.83364519590E+03  0.83364519590E+03  0.00000000000E+00 0. -1.
         21   -1    0    0  502  503 -0.00000000000E+00 -0.00000000000E+00 -0.17024118945E+03  0.17024118945E+03  0.00000000000E+00 0. -1.
         -6    2    1    2    0  503 -0.74918336632E+01 -0.47499571994E+02 -0.10967570718E+03  0.21069068733E+03  0.17334782395E+03 0.  0.
        -24    2    3    3    0    0 -0.66487775042E+02 -0.16730097020E+02 -0.35056734348E+02  0.11060391100E+03  0.79396033458E+02 0.  0.
          6    2    1    2  501    0  0.74918336632E+01  0.47499571994E+02  0.77307971363E+03  0.79319569802E+03  0.17086496078E+03 0.  0.
         24    2    5    5    0    0  0.69458116548E+02  0.30427475235E+02  0.43402301045E+03  0.44806845384E+03  0.81480700325E+02 0.  0.
          5    1    5    5  501    0 -0.61966282885E+02  0.17072096759E+02  0.33905670319E+03  0.34512724418E+03  0.47000000000E+01 0. -1.
        -11    1    6    6    0    0 -0.81692055698E+01 -0.30368408008E+01  0.36110953703E+01  0.94338926994E+01  0.00000000000E+00 0.  1.
         12    1    6    6    0    0  0.77627322118E+02  0.33464316035E+02  0.43041191508E+03  0.43863456114E+03  0.00000000000E+00 0. -1.
         -5    1    3    3    0  503  0.58995941378E+02 -0.30769474973E+02 -0.74618972830E+02  0.10008677633E+03  0.47000000000E+01 0.  1.
         11    1    4    4    0    0 -0.59165510380E+02 -0.21084228381E+02 -0.58393560788E+02  0.85760773355E+02  0.00000000000E+00 0. -1.
        -12    1    4    4    0    0 -0.73222646613E+01  0.43541313601E+01  0.23336826440E+02  0.24843137644E+02  0.00000000000E+00 0.  1.
</event>
<event>
12    1  0.8133506E-002  0.2145890E+03  0.7818608E-02  0.1138196E+00
         21   -1    0    0  501  502  0.00000000000E+00  0.00000000000E+00  0.32786482175E+03  0.32786482175E+03  0.00000000000E+00 0.  1.
         21   -1    0    0  502  503 -0.00000000000E+00 -0.00000000000E+00 -0.16052298898E+03  0.16052298898E+03  0.00000000000E+00 0.  1.
         -6    2    1    2    0  503 -0.10010402603E+03  0.79773988730E+02 -0.44122178149E+01  0.21352804597E+03  0.17085096852E+03 0.  0.
        -24    2    3    3    0    0 -0.11327628820E+03  0.55919731396E+02 -0.51906636051E+02  0.15857039093E+03  0.80571311190E+02 0.  0.
          6    2    1    2  501    0  0.10010402603E+03 -0.79773988730E+02  0.17175405059E+03  0.27485976476E+03  0.17223162045E+03 0.  0.
         24    2    5    5    0    0  0.50913877941E+02 -0.15723523202E+02  0.16885736584E+03  0.19391154930E+03  0.79053316223E+02 0.  0.
          5    1    5    5  501    0  0.49190148093E+02 -0.64050465528E+02  0.28966847553E+01  0.80948215461E+02  0.47000000000E+01 0. -1.
        -13    1    6    6    0    0  0.53276377068E+02 -0.21862932459E+02  0.17541317875E+03  0.18462433060E+03  0.00000000000E+00 0.  1.
         14    1    6    6    0    0 -0.23624991272E+01  0.61394092566E+01 -0.65558129180E+01  0.92872186989E+01  0.00000000000E+00 0. -1.
         -5    1    3    3    0  503  0.13172262163E+02  0.23854257334E+02  0.47494418236E+02  0.54957655036E+02  0.47000000000E+01 0.  1.
         11    1    4    4    0    0 -0.43663198946E+02 -0.14113885930E+02  0.22612855668E+01  0.45943336085E+02  0.00000000000E+00 0. -1.
        -12    1    4    4    0    0 -0.69613089251E+02  0.70033617326E+02 -0.54167921618E+02  0.11262705485E+03  0.00000000000E+00 0.  1.
</event>
<event>
12    1  0.8133506E-002  0.1895803E+03  0.7818608E-02  0.1159309E+00
         21   -1    0    0  501  502  0.00000000000E+00  0.00000000000E+00  0.55996657210E+02  0.55996657210E+02  0.00000000000E+00 0. -1.
         21   -1    0    0  502  503 -0.00000000000E+00 -0.00000000000E+00 -0.10852948160E+04  0.10852948160E+04  0.00000000000E+00 0. -1.
         -6    2    1    2    0  503 -0.49675942651E+02 -0.58356814542E+02 -0.88062182386E+03  0.90036546748E+03  0.17114310175E+03 0.  0.
        -24    2    3    3    0    0 -0.63037421882E+02  0.10595789316E+02 -0.65329188111E+03  0.66238651131E+03  0.88767230050E+02 0.  0.
          6    2    1    2  501    0  0.49675942651E+02  0.58356814542E+02 -0.14867633490E+03  0.24092600570E+03  0.17339974217E+03 0.  0.
         24    2    5    5    0    0 -0.17211053158E+02  0.86903163357E+02 -0.95289641173E+02  0.15058778951E+03  0.75816795512E+02 0.  0.
          5    1    5    5  501    0  0.66886995809E+02 -0.28546348814E+02 -0.53386693723E+02  0.90338216197E+02  0.47000000000E+01 0. -1.
        -11    1    6    6    0    0  0.25305408804E+02  0.55085464741E+02 -0.34042036717E+02  0.69524329586E+02  0.00000000000E+00 0.  1.
         12    1    6    6    0    0 -0.42516461962E+02  0.31817698616E+02 -0.61247604456E+02  0.81063459922E+02  0.00000000000E+00 0. -1.
         -5    1    3    3    0  503  0.13361479231E+02 -0.68952603859E+02 -0.22732994276E+03  0.23797895617E+03  0.47000000000E+01 0.  1.
         11    1    4    4    0    0 -0.75184405327E+02 -0.16592050891E+02 -0.39932050887E+03  0.40667537393E+03  0.00000000000E+00 0. -1.
        -12    1    4    4    0    0  0.12146983445E+02  0.27187840207E+02 -0.25397137224E+03  0.25571113738E+03  0.00000000000E+00 0.  1.
</event>
<event>
12    1  0.8133506E-002  0.2630693E+03  0.7818608E-02  0.1105364E+00
         21   -1    0    0  501  502  0.00000000000E+00  0.00000000000E+00  0.20539781114E+04  0.20539781114E+04  0.00000000000E+00 0.  1.
         21   -1    0    0  502  503 -0.00000000000E+00 -0.00000000000E+00 -0.96042442704E+02  0.96042442704E+02  0.00000000000E+00 0. -1.
         -6    2    1    2    0  503  0.47864859458E+02  0.19302141772E+03  0.11227715078E+03  0.28570812833E+03  0.17168186724E+03 0.  0.
        -24    2    3    3    0    0  0.26443652963E+02  0.53122124433E+02  0.10563892942E+03  0.14394481738E+03  0.77712934295E+02 0.  0.
          6    2    1    2  501    0 -0.47864859458E+02 -0.19302141772E+03  0.18456585180E+04  0.18643124258E+04  0.17221249571E+03 0.  0.
         24    2    5    5    0    0 -0.86535112939E+02 -0.18513149246E+03  0.16565773562E+04  0.16710990330E+04  0.81002751883E+02 0.  0.
          5    1    5    5  501    0  0.38670253481E+02 -0.78899252585E+01  0.18908116179E+03  0.19321339283E+03  0.47000000000E+01 0. -1.
        -11    1    6    6    0    0 -0.57470296575E+02 -0.10391680087E+03  0.12407171731E+04  0.12463870346E+04  0.00000000000E+00 0.  1.
         12    1    6    6    0    0 -0.29064816365E+02 -0.81214691583E+02  0.41586018306E+03  0.42471199834E+03  0.00000000000E+00 0. -1.
         -5    1    3    3    0  503  0.21421206495E+02  0.13989929328E+03  0.66382213659E+01  0.14176331095E+03  0.47000000000E+01 0.  1.
         11    1    4    4    0    0  0.47913168128E+02  0.34372032879E+02  0.36978343556E+02  0.69602487143E+02  0.00000000000E+00 0. -1.
        -12    1    4    4    0    0 -0.21469515165E+02  0.18750091554E+02  0.68660585863E+02  0.74342330241E+02  0.00000000000E+00 0.  1.
</event>
<event>
12    1  0.8133506E-002  0.2011406E+03  0.7818608E-02  0.1149026E+00
         21   -1    0    0  503  502  0.00000000000E+00  0.00000000000E+00  0.12241208960E+04  0.12241208960E+04  0.00000000000E+00 0. -1.
         21   -1    0    0  501  503 -0.00000000000E+00 -0.00000000000E+00 -0.36675891378E+02  0.36675891378E+02  0.00000000000E+00 0. -1.
          6    2    1    2  501    0 -0.81232746461E+02  0.64486505153E+02  0.39188427804E+03  0.44048929354E+03  0.17233763925E+03 0.  0.
         24    2    3    3    0    0 -0.11746482637E+03  0.27921075721E+02  0.32337987763E+03  0.35467124696E+03  0.81483595003E+02 0.  0.
         -6    2    1    2    0  502  0.81232746461E+02 -0.64486505153E+02  0.79556072654E+03  0.82030749380E+03  0.17096855361E+03 0.  0.
        -24    2    5    5    0    0  0.10575359063E+03 -0.36397954126E+01  0.58406857453E+03  0.59882473094E+03  0.79106817527E+02 0.  0.
          5    1    3    3  501    0  0.36232079912E+02  0.36565429432E+02  0.68504400410E+02  0.85818046586E+02  0.47000000000E+01 0. -1.
        -11    1    4    4    0    0 -0.60558711428E+02  0.45998084142E+02  0.24246629904E+03  0.25411235201E+03  0.00000000000E+00 0.  1.
         12    1    4    4    0    0 -0.56906114946E+02 -0.18077008421E+02  0.80913578592E+02  0.10055889494E+03  0.00000000000E+00 0. -1.
         -5    1    5    5    0  502 -0.24520844169E+02 -0.60846709741E+02  0.21149215201E+03  0.22148276286E+03  0.47000000000E+01 0.  1.
         13    1    6    6    0    0  0.89666836121E+02 -0.15248649510E+02  0.56131994442E+03  0.56864113711E+03  0.00000000000E+00 0. -1.
        -14    1    6    6    0    0  0.16086754509E+02  0.11608854097E+02  0.22748630119E+02  0.30183593828E+02  0.00000000000E+00 0.  1.
</event>
<event>
12    1  0.8133506E-002  0.2115999E+03  0.7818608E-02  0.1140351E+00
         21   -1    0    0  503  502  0.00000000000E+00  0.00000000000E+00  0.19007206495E+03  0.19007206495E+03  0.00000000000E+00 0.  1.
         21   -1    0    0  501  503 -0.00000000000E+00 -0.00000000000E+00 -0.29244971085E+03  0.29244971085E+03  0.00000000000E+00 0. -1.
          6    2    1    2  501    0  0.11144843447E+03  0.51191042600E+02 -0.15785505998E+03  0.26399379705E+03  0.17243325819E+03 0.  0.
         24    2    3    3    0    0  0.22491285822E+02  0.81571701761E+02 -0.94937045213E+02  0.15078105338E+03  0.81006685144E+02 0.  0.
         -6    2    1    2    0  502 -0.11144843447E+03 -0.51191042600E+02  0.55477414087E+02  0.21852797875E+03  0.17214952115E+03 0.  0.
        -24    2    5    5    0    0 -0.91317284118E+01 -0.67025459348E+02  0.40833236801E+02  0.11385716610E+03  0.81977438231E+02 0.  0.
          5    1    3    3  501    0  0.88957148651E+02 -0.30380659161E+02 -0.62918014769E+02  0.11321274367E+03  0.47000000000E+01 0. -1.
        -11    1    4    4    0    0 -0.24997965837E+02  0.81331254735E+01 -0.38772804314E+02  0.46844171253E+02  0.00000000000E+00 0.  1.
         12    1    4    4    0    0  0.47489251659E+02  0.73438576288E+02 -0.56164240899E+02  0.10393688213E+03  0.00000000000E+00 0. -1.
         -5    1    5    5    0  502 -0.10231670606E+03  0.15834416748E+02  0.14644177286E+02  0.10467081265E+03  0.47000000000E+01 0.  1.
         13    1    6    6    0    0 -0.10114696437E+02 -0.70776802183E+01 -0.23110811431E+02  0.26201340544E+02  0.00000000000E+00 0. -1.
        -14    1    6    6    0    0  0.98296802492E+00 -0.59947779130E+02  0.63944048232E+02  0.87655825551E+02  0.00000000000E+00 0.  1.
</event>
<event>
12    1  0.8133506E-002  0.1923781E+03  0.7818608E-02  0.1158311E+00
         21   -1    0    0  501  502  0.00000000000E+00  0.00000000000E+00  0.42492241491E+03  0.42492241491E+03  0.00000000000E+00 0.  1.
         21   -1    0    0  502  503 -0.00000000000E+00 -0.00000000000E+00 -0.14982583132E+03  0.14982583132E+03  0.00000000000E+00 0.  1.
         -6    2    1    2    0  503  0.19456205329E+02  0.65452392545E+02 -0.55816734823E+02  0.19197811100E+03  0.17052134061E+03 0.  0.
        -24    2    3    3    0    0  0.70359851529E+02  0.16949296184E+02 -0.10296290779E+02  0.10808572530E+03  0.79616098006E+02 0.  0.
          6    2    1    2  501    0 -0.19456205329E+02 -0.65452392545E+02  0.33091331841E+03  0.38277013523E+03  0.17985214067E+03 0.  0.
         24    2    5    5    0    0  0.61660703089E+02 -0.40092888168E+02  0.17490653095E+03  0.20505332390E+03  0.77750170979E+02 0.  0.
          5    1    5    5  501    0 -0.81116908418E+02 -0.25359504376E+02  0.15600678747E+03  0.17771681133E+03  0.47000000000E+01 0. -1.
        -13    1    6    6    0    0  0.17271209343E+02 -0.44245193687E+02  0.14174011555E+03  0.14948642812E+03  0.00000000000E+00 0.  1.
         14    1    6    6    0    0  0.44389493745E+02  0.41523055182E+01  0.33166415397E+02  0.55566895778E+02  0.00000000000E+00 0. -1.
         -5    1    3    3    0  503 -0.50903646200E+02  0.48503096361E+02 -0.45520444044E+02  0.83892385704E+02  0.47000000000E+01 0.  1.
         11    1    4    4    0    0 -0.10390348513E+02 -0.20913589854E+01  0.17609965452E+02  0.20553442725E+02  0.00000000000E+00 0. -1.
        -12    1    4    4    0    0  0.80750200042E+02  0.19040655169E+02 -0.27906256231E+02  0.87532282576E+02  0.00000000000E+00 0.  1.
</event>
<event>
12    1  0.8133506E-002  0.2043052E+03  0.7818608E-02  0.1146349E+00
         21   -1    0    0  503  502  0.00000000000E+00  0.00000000000E+00  0.59157224645E+03  0.59157224645E+03  0.00000000000E+00 0.  1.
         21   -1    0    0  501  503 -0.00000000000E+00 -0.00000000000E+00 -0.24688011054E+03  0.24688011054E+03  0.00000000000E+00 0.  1.
          6    2    1    2  501    0 -0.60081498571E+02 -0.92469914514E+02 -0.18215383545E+03  0.27371633787E+03  0.17198878535E+03 0.  0.
         24    2    3    3    0    0 -0.72525127115E+02 -0.58056490242E+02 -0.42811846660E+02  0.12957263353E+03  0.79534665541E+02 0.  0.
         -6    2    1    2    0  502  0.60081498571E+02  0.92469914514E+02  0.52684597136E+03  0.56473601912E+03  0.17087896942E+03 0.  0.
        -24    2    5    5    0    0  0.10433608174E+03  0.46390523507E+02  0.33325544603E+03  0.36082142939E+03  0.78069283160E+02 0.  0.
          5    1    3    3  501    0  0.12443628544E+02 -0.34413424272E+02 -0.13934198879E+03  0.14414370434E+03  0.47000000000E+01 0. -1.
        -11    1    4    4    0    0 -0.77113876998E+02 -0.21667258732E+02 -0.46650971903E+02  0.92694839695E+02  0.00000000000E+00 0.  1.
         12    1    4    4    0    0  0.45887498823E+01 -0.36389231510E+02  0.38391252435E+01  0.36877793833E+02  0.00000000000E+00 0. -1.
         -5    1    5    5    0  502 -0.44254583171E+02  0.46079391007E+02  0.19359052533E+03  0.20391458973E+03  0.47000000000E+01 0.  1.
         11    1    6    6    0    0  0.91201686623E+01 -0.16680079381E+02  0.91391786976E+02  0.93348065065E+02  0.00000000000E+00 0. -1.
        -12    1    6    6    0    0  0.95215913080E+02  0.63070602887E+02  0.24186365905E+03  0.26747336432E+03  0.00000000000E+00 0.  1.
</event>
<event>
12    1  0.8133506E-002  0.3506293E+03  0.7818608E-02  0.1062394E+00
         21   -1    0    0  503  502  0.00000000000E+00  0.00000000000E+00  0.14697311387E+03  0.14697311387E+03  0.00000000000E+00 0. -1.
         21   -1    0    0  501  503 -0.00000000000E+00 -0.00000000000E+00 -0.98019645359E+03  0.98019645359E+03  0.00000000000E+00 0.  1.
          6    2    1    2  501    0 -0.26262082157E+03  0.15588882597E+03 -0.63324640457E+03  0.72383831693E+03  0.17224946496E+03 0.  0.
         24    2    3    3    0    0 -0.18042188712E+03  0.15293936221E+03 -0.56189654070E+03  0.61485089915E+03  0.79821049027E+02 0.  0.
         -6    2    1    2    0  502  0.26262082157E+03 -0.15588882597E+03 -0.19997693516E+03  0.40333125053E+03  0.17150597970E+03 0.  0.
        -24    2    5    5    0    0  0.17133915816E+03 -0.39533805459E+02 -0.15657008853E+03  0.24913307541E+03  0.81443647698E+02 0.  0.
          5    1    3    3  501    0 -0.82198934451E+02  0.29494637597E+01 -0.71349863865E+02  0.10898741778E+03  0.47000000000E+01 0. -1.
        -11    1    4    4    0    0 -0.96972750950E+02  0.11732808628E+03 -0.41677321202E+03  0.44369979098E+03  0.00000000000E+00 0.  1.
         12    1    4    4    0    0 -0.83449136167E+02  0.35611275928E+02 -0.14512332868E+03  0.17115110817E+03  0.00000000000E+00 0. -1.
         -5    1    5    5    0  502  0.91281663412E+02 -0.11635502051E+03 -0.43406846629E+02  0.15419817511E+03  0.47000000000E+01 0.  1.
         11    1    6    6    0    0  0.14484869720E+03 -0.53646368616E+02 -0.15538105674E+03  0.21909438774E+03  0.00000000000E+00 0. -1.
        -12    1    6    6    0    0  0.26490460952E+02  0.14112563158E+02 -0.11890317935E+01  0.30038687670E+02  0.00000000000E+00 0.  1.
</event>
<event>
12    1  0.8133506E-002  0.1892947E+03  0.7818608E-02  0.1160088E+00
         21   -1    0    0  503  502  0.00000000000E+00  0.00000000000E+00  0.19579553286E+03  0.19579553286E+03  0.00000000000E+00 0.  1.
         21   -1    0    0  501  503 -0.00000000000E+00 -0.00000000000E+00 -0.29121934859E+03  0.29121934859E+03  0.00000000000E+00 0.  1.
          6    2    1    2  501    0 -0.27731332495E+02 -0.70039659645E+02 -0.19861875784E+03  0.27141876021E+03  0.16895014561E+03 0.  0.
         24    2    3    3    0    0 -0.42552177673E+02 -0.68482678013E+02 -0.21849668583E+03  0.24613430520E+03  0.79628697476E+02 0.  0.
         -6    2    1    2    0  502  0.27731332495E+02  0.70039659645E+02  0.10319494211E+03  0.21559612125E+03  0.17366033138E+03 0.  0.
        -24    2    5    5    0    0 -0.44907411347E+02  0.30415264843E+02  0.22347308333E+02  0.99816547675E+02  0.80759996722E+02 0.  0.
          5    1    3    3  501    0  0.14820845179E+02 -0.15569816322E+01  0.19877927997E+02  0.25284455008E+02  0.47000000000E+01 0. -1.
        -13    1    4    4    0    0  0.20356999202E+02 -0.31964340520E+02 -0.10178231747E+03  0.10860831750E+03  0.00000000000E+00 0.  1.
         14    1    4    4    0    0 -0.62909176876E+02 -0.36518337492E+02 -0.11671436836E+03  0.13752598769E+03  0.00000000000E+00 0. -1.
         -5    1    5    5    0  502  0.72638743842E+02  0.39624394802E+02  0.80847633775E+02  0.11577957358E+03  0.47000000000E+01 0.  1.
         11    1    6    6    0    0  0.16841428064E+02 -0.96018947586E+01  0.17431229965E+02  0.26070632142E+02  0.00000000000E+00 0. -1.
        -12    1    6    6    0    0 -0.61748839411E+02  0.40017159601E+02  0.49160783683E+01  0.73745915532E+02  0.00000000000E+00 0.  1.
</event>
<event>
12    1  0.8133506E-002  0.2743095E+03  0.7818608E-02  0.1099123E+00
         21   -1    0    0  503  502  0.00000000000E+00  0.00000000000E+00  0.51487413203E+03  0.51487413203E+03  0.00000000000E+00 0. -1.
         21   -1    0    0  501  503 -0.00000000000E+00 -0.00000000000E+00 -0.18430853429E+03  0.18430853429E+03  0.00000000000E+00 0. -1.
          6    2    1    2  501    0  0.20639015216E+03  0.59131591448E+02  0.34976895164E+01  0.27231136994E+03  0.16747479916E+03 0.  0.
         24    2    3    3    0    0  0.40133860489E+02 -0.36599909347E+00 -0.24706617184E+02  0.93429591340E+02  0.80671004036E+02 0.  0.
         -6    2    1    2    0  502 -0.20639015216E+03 -0.59131591448E+02  0.32706790822E+03  0.42687129638E+03  0.17074029129E+03 0.  0.
        -24    2    5    5    0    0 -0.13328092856E+03 -0.10230432518E+03  0.20032528450E+03  0.27424552470E+03  0.82767187590E+02 0.  0.
          5    1    3    3  501    0  0.16625629167E+03  0.59497590542E+02  0.28204306700E+02  0.17888177860E+03  0.47000000000E+01 0. -1.
        -11    1    4    4    0    0 -0.20231219724E+02 -0.16508022848E+02  0.33169042921E+00  0.26113733713E+02  0.00000000000E+00 0.  1.
         12    1    4    4    0    0  0.60365080213E+02  0.16142023755E+02 -0.25038307613E+02  0.67315857628E+02  0.00000000000E+00 0. -1.
         -5    1    5    5    0  502 -0.73109223601E+02  0.43172733730E+02  0.12674262372E+03  0.15262577168E+03  0.47000000000E+01 0.  1.
         11    1    6    6    0    0 -0.10924618458E+02 -0.51198358604E+02  0.77333919193E+02  0.93387120471E+02  0.00000000000E+00 0. -1.
        -12    1    6    6    0    0 -0.12235631010E+03 -0.51105966574E+02  0.12299136531E+03  0.18085840423E+03  0.00000000000E+00 0.  1.
</event>
<event>
12    1  0.8133506E-002  0.1972039E+03  0.7818608E-02  0.1152163E+00
         21   -1    0    0  503  502  0.00000000000E+00  0.00000000000E+00  0.17075806841E+03  0.17075806841E+03  0.00000000000E+00 0.  1.
         21   -1    0    0  501  503 -0.00000000000E+00 -0.00000000000E+00 -0.26807199494E+03  0.26807199494E+03  0.00000000000E+00 0.  1.
          6    2    1    2  501    0 -0.64780356728E+02 -0.70073401127E+02 -0.13398126906E+03  0.23824622310E+03  0.17234705162E+03 0.  0.
         24    2    3    3    0    0 -0.80478508122E+02 -0.69087618553E+02 -0.16033097356E+03  0.20720108417E+03  0.77307042959E+02 0.  0.
         -6    2    1    2    0  502  0.64780356728E+02  0.70073401127E+02  0.36667342528E+02  0.20058384025E+03  0.17257637960E+03 0.  0.
        -24    2    5    5    0    0  0.63182732858E+02  0.11418266281E+03  0.25113746196E+02  0.15471713166E+03  0.79227219844E+02 0.  0.
          5    1    3    3  501    0  0.15698151394E+02 -0.98578257365E+00  0.26349704498E+02  0.31045138937E+02  0.47000000000E+01 0. -1.
        -13    1    4    4    0    0 -0.61107141721E+01 -0.40862561940E+02 -0.97308708653E+02  0.10571695501E+03  0.00000000000E+00 0.  1.
         14    1    4    4    0    0 -0.74367793950E+02 -0.28225056613E+02 -0.63022264903E+02  0.10148412916E+03  0.00000000000E+00 0. -1.
         -5    1    5    5    0  502  0.15976238704E+01 -0.44109261683E+02  0.11553596332E+02  0.45866708585E+02  0.47000000000E+01 0.  1.
         13    1    6    6    0    0  0.87690564403E+01  0.74093531389E+02 -0.15026949061E+02  0.76108849306E+02  0.00000000000E+00 0. -1.
        -14    1    6    6    0    0  0.54413676418E+02  0.40089131421E+02  0.40140695257E+02  0.78608282357E+02  0.00000000000E+00 0.  1.
</event>
<event>
12    1  0.8133506E-002  0.3022674E+03  0.7818608E-02  0.1084230E+00
         21   -1    0    0  501  502  0.00000000000E+00  0.00000000000E+00  0.41562552134E+03  0.41562552134E+03  0.00000000000E+00 0. -1.
         21   -1    0    0  502  503 -0.00000000000E+00 -0.00000000000E+00 -0.30725146838E+03  0.30725146838E+03  0.00000000000E+00 0. -1.
         -6    2    1    2    0  503 -0.23389586098E+03  0.83013950692E+02 -0.13930547078E+03  0.33282362615E+03  0.17253104690E+03 0.  0.
        -24    2    3    3    0    0 -0.21751075983E+03  0.25398363675E+02 -0.14043203274E+03  0.27272881316E+03  0.81876994266E+02 0.  0.
          6    2    1    2  501    0  0.23389586098E+03 -0.83013950692E+02  0.24767952374E+03  0.39005336356E+03  0.17087390132E+03 0.  0.
         24    2    5    5    0    0  0.23257144018E+02 -0.64441539174E+02  0.39961653088E+02  0.93603692721E+02  0.49710269106E+02 0.  0.
          5    1    5    5  501    0  0.21063871696E+03 -0.18572411519E+02  0.20771787065E+03  0.29644967084E+03  0.47000000000E+01 0. -1.
        -13    1    6    6    0    0  0.33011813026E+02 -0.60332564403E+02  0.44682201904E+02  0.82014006692E+02  0.00000000000E+00 0.  1.
         14    1    6    6    0    0 -0.97546690084E+01 -0.41089747706E+01 -0.47205488158E+01  0.11589686029E+02  0.00000000000E+00 0. -1.
         -5    1    3    3    0  503 -0.16385101152E+02  0.57615587017E+02  0.11265619568E+01  0.60094812996E+02  0.47000000000E+01 0.  1.
         13    1    4    4    0    0 -0.13521039160E+03  0.39674716354E+02 -0.12377844010E+03  0.18755541940E+03  0.00000000000E+00 0. -1.
        -14    1    4    4    0    0 -0.82300368227E+02 -0.14276352679E+02 -0.16653592643E+02  0.85173393757E+02  0.00000000000E+00 0.  1.
</event>
<event>
12    1  0.8133506E-002  0.1963948E+03  0.7818608E-02  0.1153372E+00
         21   -1    0    0  503  502  0.00000000000E+00  0.00000000000E+00  0.37512702331E+03  0.37512702331E+03  0.00000000000E+00 0. -1.
         21   -1    0    0  501  503 -0.00000000000E+00 -0.00000000000E+00 -0.22325758320E+03  0.22325758320E+03  0.00000000000E+00 0. -1.
          6    2    1    2  501    0  0.50177504439E+02  0.77430538005E+02 -0.14479726639E+03  0.24400238676E+03  0.17337141121E+03 0.  0.
         24    2    3    3    0    0  0.98244437490E+02  0.26594355454E+02 -0.10428187954E+03  0.16301884473E+03  0.73083541896E+02 0.  0.
         -6    2    1    2    0  502 -0.50177504439E+02 -0.77430538005E+02  0.29666670649E+03  0.35438221974E+03  0.17047683936E+03 0.  0.
        -24    2    5    5    0    0  0.53151319176E+01 -0.91482348178E+02  0.25859329179E+03  0.28547241662E+03  0.78909691651E+02 0.  0.
          5    1    3    3  501    0 -0.48066933051E+02  0.50836182551E+02 -0.40515386844E+02  0.80983542034E+02  0.47000000000E+01 0. -1.
        -11    1    4    4    0    0  0.40648172097E+02  0.21859796220E+02 -0.28030834201E+01  0.46238315954E+02  0.00000000000E+00 0.  1.
         12    1    4    4    0    0  0.57596265393E+02  0.47345592335E+01 -0.10147879612E+03  0.11678052878E+03  0.00000000000E+00 0. -1.
         -5    1    5    5    0  502 -0.55492636357E+02  0.14051810173E+02  0.38073414708E+02  0.68909803123E+02  0.47000000000E+01 0.  1.
         13    1    6    6    0    0 -0.20769094247E+02 -0.60249066150E+02  0.22123777495E+03  0.23023348651E+03  0.00000000000E+00 0. -1.
        -14    1    6    6    0    0  0.26084226164E+02 -0.31233282028E+02  0.37355516840E+02  0.55238930106E+02  0.00000000000E+00 0.  1.
</event>
<event>
12    1  0.8133506E-002  0.1973705E+03  0.7818608E-02  0.1152188E+00
         21   -1    0    0  503  502  0.00000000000E+00  0.00000000000E+00  0.97324168618E+02  0.97324168618E+02  0.00000000000E+00 0.  1.
         21   -1    0    0  501  503 -0.00000000000E+00 -0.00000000000E+00 -0.61920786971E+03  0.61920786971E+03  0.00000000000E+00 0.  1.
          6    2    1    2  501    0 -0.40858437177E+02  0.84792385356E+02 -0.47536347553E+03  0.51470918555E+03  0.17348184721E+03 0.  0.
         24    2    3    3    0    0  0.18393574131E+02  0.98395356974E+02 -0.24701050211E+03  0.27835561111E+03  0.80297498324E+02 0.  0.
         -6    2    1    2    0  502  0.40858437177E+02 -0.84792385356E+02 -0.46520225556E+02  0.20182285278E+03  0.17236348806E+03 0.  0.
        -24    2    5    5    0    0  0.49449842612E+02 -0.37613394466E+02  0.35174369204E+02  0.10697683946E+03  0.79666514640E+02 0.  0.
          5    1    3    3  501    0 -0.59252011308E+02 -0.13602971617E+02 -0.22835297342E+03  0.23635357444E+03  0.47000000000E+01 0. -1.
        -13    1    4    4    0    0 -0.20492902318E+02 -0.74415078169E-01 -0.24486837999E+02  0.31930703378E+02  0.00000000000E+00 0.  1.
         14    1    4    4    0    0  0.38886476449E+02  0.98469772052E+02 -0.22252366411E+03  0.24642490773E+03  0.00000000000E+00 0. -1.
         -5    1    5    5    0  502 -0.85914054357E+01 -0.47178990891E+02 -0.81694594760E+02  0.94846013316E+02  0.47000000000E+01 0.  1.
         11    1    6    6    0    0 -0.21519637120E+02 -0.95551407681E+01  0.15424366125E+02  0.28147940728E+02  0.00000000000E+00 0. -1.
        -12    1    6    6    0    0  0.70969479733E+02 -0.28058253698E+02  0.19750003079E+02  0.78828898735E+02  0.00000000000E+00 0.  1.
</event>
<event>
12    1  0.8133506E-002  0.1894913E+03  0.7818608E-02  0.1159708E+00
         21   -1    0    0  501  502  0.00000000000E+00  0.00000000000E+00  0.27349046852E+03  0.27349046852E+03  0.00000000000E+00 0. -1.
         21   -1    0    0  502  503 -0.00000000000E+00 -0.00000000000E+00 -0.14991519188E+03  0.14991519188E+03  0.00000000000E+00 0. -1.
         -6    2    1    2    0  503  0.24686313557E+02 -0.77198628628E+02 -0.16956289957E+02  0.19024841279E+03  0.17128310034E+03 0.  0.
        -24    2    3    3    0    0 -0.13184532013E+01 -0.51538238638E+02 -0.75943362847E+02  0.12070512931E+03  0.78386258501E+02 0.  0.
          6    2    1    2  501    0 -0.24686313557E+02  0.77198628628E+02  0.14053156660E+03  0.23315724761E+03  0.16746384256E+03 0.  0.
         24    2    5    5    0    0 -0.21652762713E+02 -0.21915830484E+02  0.70552987737E+02  0.11169955977E+03  0.80931587255E+02 0.  0.
          5    1    5    5  501    0 -0.30335508436E+01  0.99114459113E+02  0.69978578865E+02  0.12145768784E+03  0.47000000000E+01 0. -1.
        -11    1    6    6    0    0 -0.74264402503E+01  0.18110193197E+02 -0.89783644752E+01  0.21534672996E+02  0.00000000000E+00 0.  1.
         12    1    6    6    0    0 -0.14226322463E+02 -0.40026023681E+02  0.79531352212E+02  0.90164886775E+02  0.00000000000E+00 0. -1.
         -5    1    3    3    0  503  0.26004766758E+02 -0.25660389991E+02  0.58987072890E+02  0.69543283477E+02  0.47000000000E+01 0.  1.
         13    1    4    4    0    0  0.49190690618E+01 -0.53244959343E+02 -0.99424841557E+01  0.54388196578E+02  0.00000000000E+00 0. -1.
        -14    1    4    4    0    0 -0.62375222631E+01  0.17067207054E+01 -0.66000878691E+02  0.66316932737E+02  0.00000000000E+00 0.  1.
</event>
<event>
12    1  0.8133506E-002  0.1865800E+03  0.7818608E-02  0.1161666E+00
         21   -1    0    0  503  502  0.00000000000E+00  0.00000000000E+00  0.24962824932E+04  0.24962824932E+04  0.00000000000E+00 0.  1.
         21   -1    0    0  501  503 -0.00000000000E+00 -0.00000000000E+00 -0.21728248111E+02  0.21728248111E+02  0.00000000000E+00 0.  1.
          6    2    1    2  501    0  0.69322026814E+02  0.12903968459E+02  0.48170836279E+03  0.51644965180E+03  0.17235208226E+03 0.  0.
         24    2    3    3    0    0  0.44566634248E+02  0.75605524835E+02  0.31275131279E+03  0.33448017805E+03  0.79757291717E+02 0.  0.
         -6    2    1    2    0  502 -0.69322026814E+02 -0.12903968459E+02  0.19928458823E+04  0.20015610895E+04  0.17274266594E+03 0.  0.
        -24    2    5    5    0    0 -0.54581793438E+02 -0.68680023080E+02  0.99985601858E+03  0.10068856640E+04  0.80066001811E+02 0.  0.
          5    1    3    3  501    0  0.24755392566E+02 -0.62701556376E+02  0.16895705000E+03  0.18196947375E+03  0.47000000000E+01 0. -1.
        -11    1    4    4    0    0 -0.12900636926E+02  0.29449726898E+02  0.36856796472E+02  0.48909470388E+02  0.00000000000E+00 0.  1.
         12    1    4    4    0    0  0.57467271175E+02  0.46155797937E+02  0.27589451632E+03  0.28557070766E+03  0.00000000000E+00 0. -1.
         -5    1    5    5    0  502 -0.14740233376E+02  0.55776054621E+02  0.99298986368E+03  0.99467542551E+03  0.47000000000E+01 0.  1.
         13    1    6    6    0    0 -0.16131463898E+02 -0.65577711041E+02  0.38944489269E+03  0.39525685921E+03  0.00000000000E+00 0. -1.
        -14    1    6    6    0    0 -0.38450329539E+02 -0.31023120393E+01  0.61041112589E+03  0.61162880474E+03  0.00000000000E+00 0.  1.
</event>
<event>
12    1  0.8133506E-002  0.1734541E+03  0.7818608E-02  0.1174529E+00
         21   -1    0    0  501  502  0.00000000000E+00  0.00000000000E+00  0.26777143492E+03  0.26777143492E+03  0.00000000000E+00 0. -1.
         21   -1    0    0  502  503 -0.00000000000E+00 -0.00000000000E+00 -0.12893037551E+03  0.12893037551E+03  0.00000000000E+00 0. -1.
         -6    2    1    2    0  503  0.15030749618E+01 -0.18776595374E+02 -0.28051614280E+01  0.17347677722E+03  0.17242825620E+03 0.  0.
        -24    2    3    3    0    0  0.59573883457E+01 -0.17069885993E+02  0.65714313307E+02  0.10463084646E+03  0.79387477436E+02 0.  0.
          6    2    1    2  501    0 -0.15030749618E+01  0.18776595374E+02  0.14164622084E+03  0.22322503321E+03  0.17149619181E+03 0.  0.
         24    2    5    5    0    0  0.86371737008E+01 -0.43901810108E+02  0.12658622201E+03  0.15780102599E+03  0.82916358453E+02 0.  0.
          5    1    5    5  501    0 -0.10140248663E+02  0.62678405481E+02  0.15059998828E+02  0.65424007225E+02  0.47000000000E+01 0. -1.
        -13    1    6    6    0    0 -0.16053436454E+02  0.21510986636E+01 -0.43938561146E+01  0.16782312683E+02  0.00000000000E+00 0.  1.
         14    1    6    6    0    0  0.24690610155E+02 -0.46052908771E+02  0.13098007812E+03  0.14101871330E+03  0.00000000000E+00 0. -1.
         -5    1    3    3    0  503 -0.44543133839E+01 -0.17067093812E+01 -0.68519474735E+02  0.68845930763E+02  0.47000000000E+01 0.  1.
         13    1    4    4    0    0  0.10010020687E+02  0.31139052857E+02  0.21922507121E+02  0.39375594541E+02  0.00000000000E+00 0. -1.
        -14    1    4    4    0    0 -0.40526323410E+01 -0.48208938849E+02  0.43791806186E+02  0.65255251918E+02  0.00000000000E+00 0.  1.
</event>
<event>
12    1  0.8133506E-002  0.3581666E+03  0.7818608E-02  0.1059330E+00
         21   -1    0    0  503  502  0.00000000000E+00  0.00000000000E+00  0.14973285656E+04  0.14973285656E+04  0.00000000000E+00 0. -1.
         21   -1    0    0  501  503 -0.00000000000E+00 -0.00000000000E+00 -0.11986907839E+03  0.11986907839E+03  0.00000000000E+00 0.  1.
          6    2    1    2  501    0  0.29567661006E+03 -0.10555819723E+03  0.25670801305E+03  0.44066122115E+03  0.17238363357E+03 0.  0.
         24    2    3    3    0    0  0.17592582435E+03 -0.94441007300E+02  0.85584154449E+02  0.23145006568E+03  0.79846639739E+02 0.  0.
         -6    2    1    2    0  502 -0.29567661006E+03  0.10555819723E+03  0.11207514742E+04  0.11765364229E+04  0.17200842046E+03 0.  0.
        -24    2    5    5    0    0 -0.29652260301E+03  0.64094256472E+02  0.94280662771E+03  0.99376215642E+03  0.81517841473E+02 0.  0.
          5    1    3    3  501    0  0.11975078571E+03 -0.11117189929E+02  0.17112385860E+03  0.20921115547E+03  0.47000000000E+01 0. -1.
        -13    1    4    4    0    0  0.11636632884E+03 -0.83957282579E+02  0.92282916996E+02  0.17060505431E+03  0.00000000000E+00 0.  1.
         14    1    4    4    0    0  0.59559495510E+02 -0.10483724721E+02 -0.66987625466E+01  0.60845011374E+02  0.00000000000E+00 0. -1.
         -5    1    5    5    0  502  0.84599295009E+00  0.41463940758E+02  0.17794484647E+03  0.18277426644E+03  0.47000000000E+01 0.  1.
         11    1    6    6    0    0 -0.76900671389E+02  0.29680984086E+02  0.37581099460E+03  0.38474482158E+03  0.00000000000E+00 0. -1.
        -12    1    6    6    0    0 -0.21962193163E+03  0.34413272387E+02  0.56699563311E+03  0.60901733484E+03  0.00000000000E+00 0.  1.
</event>
<event>
12    1  0.8133506E-002  0.1863121E+03  0.7818608E-02  0.1162154E+00
         21   -1    0    0  501  502  0.00000000000E+00  0.00000000000E+00  0.28706535692E+03  0.28706535692E+03  0.00000000000E+00 0.  1.
         21   -1    0    0  502  503 -0.00000000000E+00 -0.00000000000E+00 -0.18549125564E+03  0.18549125564E+03  0.00000000000E+00 0.  1.
         -6    2    1    2    0  503  0.58106723790E+02 -0.32085759542E+02  0.19103971733E+03  0.26587736482E+03  0.17259406772E+03 0.  0.
        -24    2    3    3    0    0  0.24902396982E+02  0.39027992976E+02  0.51587831330E+02  0.10578797846E+03  0.79915445531E+02 0.  0.
          6    2    1    2  501    0 -0.58106723790E+02  0.32085759542E+02 -0.89465616051E+02  0.20667924774E+03  0.17408712668E+03 0.  0.
         24    2    5    5    0    0 -0.38817317242E+01 -0.24480353955E+02  0.38922376786E+01  0.84704439627E+02  0.80903257088E+02 0.  0.
          5    1    5    5  501    0 -0.54224992066E+02  0.56566113497E+02 -0.93357853730E+02  0.12197480811E+03  0.47000000000E+01 0. -1.
        -13    1    6    6    0    0 -0.34837730576E+02  0.92671187050E+01 -0.89487962943E+01  0.37143342821E+02  0.00000000000E+00 0.  1.
         14    1    6    6    0    0  0.30955998852E+02 -0.33747472660E+02  0.12841033973E+02  0.47561096806E+02  0.00000000000E+00 0. -1.
         -5    1    3    3    0  503  0.33204326808E+02 -0.71113752519E+02  0.13945188600E+03  0.16008938636E+03  0.47000000000E+01 0.  1.
         13    1    4    4    0    0 -0.16784242037E+02  0.34435708514E+02  0.51076289798E+02  0.63846034968E+02  0.00000000000E+00 0. -1.
        -14    1    4    4    0    0  0.41686639019E+02  0.45922844625E+01  0.51154153195E+00  0.41941943493E+02  0.00000000000E+00 0.  1.
</event>
<event>
12    1  0.8133506E-002  0.1873165E+03  0.7818608E-02  0.1161027E+00
         21   -1    0    0  501  502  0.00000000000E+00  0.00000000000E+00  0.14998387196E+03  0.14998387196E+03  0.00000000000E+00 0. -1.
         21   -1    0    0  502  503 -0.00000000000E+00 -0.00000000000E+00 -0.25023289909E+03  0.25023289909E+03  0.00000000000E+00 0. -1.
         -6    2    1    2    0  503  0.15549732507E+02 -0.73229808528E+02  0.20337339062E+01  0.18679407477E+03  0.17112419834E+03 0.  0.
        -24    2    3    3    0    0  0.61125000331E+02 -0.91711653242E+02 -0.72822362282E+01  0.13651922101E+03  0.80231999439E+02 0.  0.
          6    2    1    2  501    0 -0.15549732507E+02  0.73229808528E+02 -0.10228276104E+03  0.21342269629E+03  0.17170639198E+03 0.  0.
         24    2    5    5    0    0  0.34173319765E+02  0.42477141650E+02 -0.11874153214E+03  0.15250398329E+03  0.78649794123E+02 0.  0.
          5    1    5    5  501    0 -0.49723052272E+02  0.30752666878E+02  0.16458771104E+02  0.60918713000E+02  0.47000000000E+01 0. -1.
        -13    1    6    6    0    0  0.45859489413E+00 -0.20981378493E+02 -0.44399827412E+02  0.49109807849E+02  0.00000000000E+00 0.  1.
         14    1    6    6    0    0  0.33714724871E+02  0.63458520143E+02 -0.74341704732E+02  0.10339417544E+03  0.00000000000E+00 0. -1.
         -5    1    3    3    0  503 -0.45575267823E+02  0.18481844714E+02  0.93159701344E+01  0.50274853762E+02  0.47000000000E+01 0.  1.
         13    1    4    4    0    0  0.49341825944E+02 -0.73701968681E+02  0.29865709750E+02  0.93587160411E+02  0.00000000000E+00 0. -1.
        -14    1    4    4    0    0  0.11783174387E+02 -0.18009684562E+02 -0.37147945978E+02  0.42932060596E+02  0.00000000000E+00 0.  1.
</event>
<event>
12    1  0.8133506E-002  0.1842531E+03  0.7818608E-02  0.1163806E+00
         21   -1    0    0  503  502  0.00000000000E+00  0.00000000000E+00  0.16271408666E+02  0.16271408666E+02  0.00000000000E+00 0. -1.
         21   -1    0    0  501  503 -0.00000000000E+00 -0.00000000000E+00 -0.20836970870E+04  0.20836970870E+04  0.00000000000E+00 0. -1.
          6    2    1    2  501    0 -0.65556421673E+02  0.12330244440E+02 -0.10376200520E+04  0.10538522514E+04  0.17175423166E+03 0.  0.
         24    2    3    3    0    0 -0.10124139714E+03  0.41879153315E+02 -0.68447219225E+03  0.69764717515E+03  0.78776361043E+02 0.  0.
         -6    2    1    2    0  502  0.65556421673E+02 -0.12330244440E+02 -0.10298056264E+04  0.10461162443E+04  0.17149311695E+03 0.  0.
        -24    2    5    5    0    0 -0.88811594841E+01  0.33482806669E+02 -0.31929098709E+03  0.33023012783E+03  0.76845491438E+02 0.  0.
          5    1    3    3  501    0  0.35684975464E+02 -0.29548908875E+02 -0.35314785973E+03  0.35620507621E+03  0.47000000000E+01 0. -1.
        -11    1    4    4    0    0 -0.12765638634E+02 -0.10595706251E+02 -0.27328671605E+03  0.27378980933E+03  0.00000000000E+00 0.  1.
         12    1    4    4    0    0 -0.88475758504E+02  0.52474859566E+02 -0.41118547620E+03  0.42385736582E+03  0.00000000000E+00 0. -1.
         -5    1    5    5    0  502  0.74437581157E+02 -0.45813051109E+02 -0.71051463926E+03  0.71588611647E+03  0.47000000000E+01 0.  1.
         11    1    6    6    0    0  0.22290679601E+02  0.34780814970E+01 -0.29047112219E+02  0.36779154099E+02  0.00000000000E+00 0. -1.
        -12    1    6    6    0    0 -0.31171839085E+02  0.30004725172E+02 -0.29024387487E+03  0.29345097373E+03  0.00000000000E+00 0.  1.
</event>
<event>
12    1  0.8133506E-002  0.1746173E+03  0.7818608E-02  0.1174449E+00
         21   -1    0    0  501  502  0.00000000000E+00  0.00000000000E+00  0.21414848556E+03  0.21414848556E+03  0.00000000000E+00 0.  1.
         21   -1    0    0  502  503 -0.00000000000E+00 -0.00000000000E+00 -0.14631391296E+03  0.14631391296E+03  0.00000000000E+00 0.  1.
         -6    2    1    2    0  503 -0.75319816779E+01 -0.26012175824E+02 -0.90898948426E+01  0.16965207076E+03  0.16722988634E+03 0.  0.
        -24    2    3    3    0    0  0.17720521696E+01 -0.30741533756E+02  0.57171409266E+02  0.10240935892E+03  0.79189170291E+02 0.  0.
          6    2    1    2  501    0  0.75319816779E+01  0.26012175824E+02  0.76924467443E+02  0.19081032777E+03  0.17250461865E+03 0.  0.
         24    2    5    5    0    0 -0.27212402525E+02 -0.36747998512E+02  0.75304071998E+02  0.11890255769E+03  0.79851015778E+02 0.  0.
          5    1    5    5  501    0  0.34744384203E+02  0.62760174336E+02  0.16203954443E+01  0.71907770079E+02  0.47000000000E+01 0. -1.
        -11    1    6    6    0    0 -0.19381778801E+02 -0.13138601227E+02 -0.13261736339E+02  0.26910032375E+02  0.00000000000E+00 0.  1.
         12    1    6    6    0    0 -0.78306237240E+01 -0.23609397285E+02  0.88565808337E+02  0.91992525319E+02  0.00000000000E+00 0. -1.
         -5    1    3    3    0  503 -0.93040338474E+01  0.47293579324E+01 -0.66261304108E+02  0.67242711831E+02  0.47000000000E+01 0.  1.
         13    1    4    4    0    0  0.30728820589E+02 -0.83210244785E+01 -0.29925724156E+01  0.31975855779E+02  0.00000000000E+00 0. -1.
        -14    1    4    4    0    0 -0.28956768419E+02 -0.22420509278E+02  0.60163981681E+02  0.70433503145E+02  0.00000000000E+00 0.  1.
</event>
<event>
12    1  0.8133506E-002  0.1970639E+03  0.7818608E-02  0.1152405E+00
         21   -1    0    0  503  502  0.00000000000E+00  0.00000000000E+00  0.98782981915E+02  0.98782981915E+02  0.00000000000E+00 0. -1.
         21   -1    0    0  501  503 -0.00000000000E+00 -0.00000000000E+00 -0.49600826907E+03  0.49600826907E+03  0.00000000000E+00 0. -1.
          6    2    1    2  501    0  0.29128761952E+02 -0.90005010364E+02 -0.33536529768E+03  0.38897822855E+03  0.17287218612E+03 0.  0.
         24    2    3    3    0    0  0.16413292525E+02 -0.18816085093E+02 -0.58155968662E+02  0.10245310166E+03  0.80567239738E+02 0.  0.
         -6    2    1    2    0  502 -0.29128761952E+02  0.90005010364E+02 -0.61859989474E+02  0.20581302244E+03  0.17199696289E+03 0.  0.
        -24    2    5    5    0    0  0.18252922644E+02 -0.88154972323E+01 -0.45061746657E+02  0.94841009214E+02  0.80952911254E+02 0.  0.
          5    1    3    3  501    0  0.12715469427E+02 -0.71188925271E+02 -0.27720932902E+03  0.28652512689E+03  0.47000000000E+01 0. -1.
        -11    1    4    4    0    0  0.34490501941E+02 -0.41319368656E+02 -0.47172737463E+02  0.71569212026E+02  0.00000000000E+00 0.  1.
         12    1    4    4    0    0 -0.18077209415E+02  0.22503283563E+02 -0.10983231199E+02  0.30883889634E+02  0.00000000000E+00 0. -1.
         -5    1    5    5    0  502 -0.47381684596E+02  0.98820507596E+02 -0.16798242818E+02  0.11097201322E+03  0.47000000000E+01 0.  1.
         11    1    6    6    0    0  0.39007007573E+02  0.22544893689E+02 -0.31016924558E+02  0.54697975102E+02  0.00000000000E+00 0. -1.
        -12    1    6    6    0    0 -0.20754084929E+02 -0.31360390921E+02 -0.14044822099E+02  0.40143034112E+02  0.00000000000E+00 0.  1.
</event>
<event>
12    1  0.8133506E-002  0.1838470E+03  0.7818608E-02  0.1165432E+00
         21   -1    0    0  501  502  0.00000000000E+00  0.00000000000E+00  0.15443163632E+03  0.15443163632E+03  0.00000000000E+00 0. -1.
         21   -1    0    0  502  503 -0.00000000000E+00 -0.00000000000E+00 -0.54919227009E+03  0.54919227009E+03  0.00000000000E+00 0.  1.
         -6    2    1    2    0  503  0.39621292817E+02  0.45026349014E+02 -0.47171192814E+03  0.50432207927E+03  0.16802201504E+03 0.  0.
        -24    2    3    3    0    0  0.56687207965E+01  0.46520699217E+02 -0.12176412672E+03  0.15269647731E+03  0.79330963548E+02 0.  0.
          6    2    1    2  501    0 -0.39621292817E+02 -0.45026349014E+02  0.76951294368E+02  0.19930182714E+03  0.17378865799E+03 0.  0.
         24    2    5    5    0    0 -0.72421829155E+02 -0.28977354200E+02  0.10762062346E+03  0.15138373905E+03  0.72458467143E+02 0.  0.
          5    1    5    5  501    0  0.32800536338E+02 -0.16048994814E+02 -0.30669329097E+02  0.47918088086E+02  0.47000000000E+01 0. -1.
        -13    1    6    6    0    0  0.76352840043E+01 -0.24420043548E+02  0.18993194667E+02  0.31864989132E+02  0.00000000000E+00 0.  1.
         14    1    6    6    0    0 -0.80057113160E+02 -0.45573106521E+01  0.88627428798E+02  0.11951874992E+03  0.00000000000E+00 0. -1.
         -5    1    3    3    0  503  0.33952572021E+02 -0.14943502026E+01 -0.34994780142E+03  0.35162560195E+03  0.47000000000E+01 0.  1.
         11    1    4    4    0    0  0.36744464026E+02  0.15680186012E+02 -0.90416915116E+02  0.98849594886E+02  0.00000000000E+00 0. -1.
        -12    1    4    4    0    0 -0.31075743229E+02  0.30840513205E+02 -0.31347211602E+02  0.53846882428E+02  0.00000000000E+00 0.  1.
</event>
<event>
12    1  0.8133506E-002  0.2232909E+03  0.7818608E-02  0.1131503E+00
         21   -1    0    0  503  502  0.00000000000E+00  0.00000000000E+00  0.14951975039E+03  0.14951975039E+03  0.00000000000E+00 0. -1.
         21   -1    0    0  501  503 -0.00000000000E+00 -0.00000000000E+00 -0.58286723337E+03  0.58286723337E+03  0.00000000000E+00 0.  1.
          6    2    1    2  501    0 -0.13913544953E+03  0.27962924401E+02 -0.45633585576E+03  0.50791589249E+03  0.17203354946E+03 0.  0.
         24    2    3    3    0    0 -0.15344506204E+03  0.63786825389E+02 -0.38239945269E+03  0.42438865986E+03  0.79134360702E+02 0.  0.
         -6    2    1    2    0  502  0.13913544953E+03 -0.27962924401E+02  0.22988372779E+02  0.22447109127E+03  0.17238969539E+03 0.  0.
        -24    2    5    5    0    0  0.10769506136E+03 -0.83126439335E+02  0.29354180834E+02  0.16048574216E+03  0.79911040209E+02 0.  0.
          5    1    3    3  501    0  0.14309612510E+02 -0.35823900988E+02 -0.73936403064E+02  0.83527232627E+02  0.47000000000E+01 0. -1.
        -11    1    4    4    0    0 -0.39688784937E+02  0.12768850816E+02 -0.19430572111E+03  0.19872834840E+03  0.00000000000E+00 0.  1.
         12    1    4    4    0    0 -0.11375627710E+03  0.51017974573E+02 -0.18809373158E+03  0.22566031146E+03  0.00000000000E+00 0. -1.
         -5    1    5    5    0  502  0.31440388173E+02  0.55163514934E+02 -0.63658080552E+01  0.63985349109E+02  0.47000000000E+01 0.  1.
         11    1    6    6    0    0  0.66460595794E+02 -0.12388817319E+02  0.38988626109E+02  0.78042338213E+02  0.00000000000E+00 0. -1.
        -12    1    6    6    0    0  0.41234465564E+02 -0.70737622017E+02 -0.96344452750E+01  0.82443403949E+02  0.00000000000E+00 0.  1.
</event>
<event>
12    1  0.8133506E-002  0.1985295E+03  0.7818608E-02  0.1151104E+00
         21   -1    0    0  503  502  0.00000000000E+00  0.00000000000E+00  0.99345692612E+03  0.99345692612E+03  0.00000000000E+00 0. -1.
         21   -1    0    0  501  503 -0.00000000000E+00 -0.00000000000E+00 -0.15810046968E+04  0.15810046968E+04  0.00000000000E+00 0. -1.
          6    2    1    2  501    0 -0.46158681377E+02  0.83704877375E+02 -0.15648071198E+04  0.15773507160E+04  0.17400238102E+03 0.  0.
         24    2    3    3    0    0  0.13788097990E+00  0.26464950370E+02 -0.35578217058E+03  0.36607733692E+03  0.82044202087E+02 0.  0.
         -6    2    1    2    0  502  0.46158681377E+02 -0.83704877375E+02  0.97725934916E+03  0.99711090692E+03  0.17337010933E+03 0.  0.
        -24    2    5    5    0    0 -0.32165893132E+01  0.17728967521E+02  0.43231405133E+03  0.44059117692E+03  0.83069148718E+02 0.  0.
          5    1    3    3  501    0 -0.46296562357E+02  0.57239927005E+02 -0.12090249492E+04  0.12112733791E+04  0.47000000000E+01 0. -1.
        -13    1    4    4    0    0 -0.79479004290E+01  0.55202948917E+02 -0.25124861394E+03  0.25736433455E+03  0.00000000000E+00 0.  1.
         14    1    4    4    0    0  0.80857814089E+01 -0.28737998546E+02 -0.10453355664E+03  0.10871300237E+03  0.00000000000E+00 0. -1.
         -5    1    5    5    0  502  0.49375270690E+02 -0.10143384490E+03  0.54494529783E+03  0.55651972999E+03  0.47000000000E+01 0.  1.
         13    1    6    6    0    0 -0.27045136679E+02  0.36095366743E+02  0.14880565454E+03  0.15549095711E+03  0.00000000000E+00 0. -1.
        -14    1    6    6    0    0  0.23828547365E+02 -0.18366399222E+02  0.28350839679E+03  0.28510021982E+03  0.00000000000E+00 0.  1.
</event>
<event>
12    1  0.8133506E-002  0.1801640E+03  0.7818608E-02  0.1168454E+00
         21   -1    0    0  503  502  0.00000000000E+00  0.00000000000E+00  0.31444672014E+03  0.31444672014E+03  0.00000000000E+00 0. -1.
         21   -1    0    0  501  503 -0.00000000000E+00 -0.00000000000E+00 -0.17897645992E+03  0.17897645992E+03  0.00000000000E+00 0. -1.
          6    2    1    2  501    0 -0.51864826675E+02 -0.43327492413E+01 -0.94399995849E+02  0.20339720144E+03  0.17248283792E+03 0.  0.
         24    2    3    3    0    0 -0.41163225466E+02 -0.11792824410E+02 -0.13378597604E+03  0.16164169371E+03  0.79974170349E+02 0.  0.
         -6    2    1    2    0  502  0.51864826675E+02  0.43327492413E+01  0.22987025608E+03  0.29002597862E+03  0.16901479428E+03 0.  0.
        -24    2    5    5    0    0 -0.27072590017E+02 -0.25458211325E+02  0.13919644039E+03  0.16608063608E+03  0.82620112627E+02 0.  0.
          5    1    3    3  501    0 -0.10701601208E+02  0.74600751685E+01  0.39385980191E+02  0.41755507727E+02  0.47000000000E+01 0. -1.
        -13    1    4    4    0    0  0.84126125576E+01  0.89008091489E+01  0.46866422199E+01  0.13113392728E+02  0.00000000000E+00 0.  1.
         14    1    4    4    0    0 -0.49575838024E+02 -0.20693633559E+02 -0.13847261826E+03  0.14852830099E+03  0.00000000000E+00 0. -1.
         -5    1    5    5    0  502  0.78937416692E+02  0.29790960566E+02  0.90673815690E+02  0.12394534254E+03  0.47000000000E+01 0.  1.
         13    1    6    6    0    0  0.10866942505E+02 -0.30607063840E+02  0.11785223990E+03  0.12224579030E+03  0.00000000000E+00 0. -1.
        -14    1    6    6    0    0 -0.37939532522E+02  0.51488525149E+01  0.21344200485E+02  0.43834845780E+02  0.00000000000E+00 0.  1.
</event>
<event>
12    1  0.8133506E-002  0.1929768E+03  0.7818608E-02  0.1155973E+00
         21   -1    0    0  503  502  0.00000000000E+00  0.00000000000E+00  0.64627193669E+03  0.64627193669E+03  0.00000000000E+00 0. -1.
         21   -1    0    0  501  503 -0.00000000000E+00 -0.00000000000E+00 -0.82560385535E+02  0.82560385535E+02  0.00000000000E+00 0. -1.
          6    2    1    2  501    0  0.79772573744E+02 -0.35127362322E+02  0.81050291817E+02  0.20930643753E+03  0.17216979956E+03 0.  0.
         24    2    3    3    0    0 -0.19093852564E+01 -0.68362277685E+02  0.48529619988E+02  0.11519912579E+03  0.78985237892E+02 0.  0.
         -6    2    1    2    0  502 -0.79772573744E+02  0.35127362322E+02  0.48266125934E+03  0.51952588470E+03  0.17131158310E+03 0.  0.
        -24    2    5    5    0    0 -0.32763142446E+02 -0.68664907126E+01  0.42575940760E+03  0.43447718656E+03  0.79867266673E+02 0.  0.
          5    1    3    3  501    0  0.81681959001E+02  0.33234915363E+02  0.32520671829E+02  0.94107311733E+02  0.47000000000E+01 0. -1.
        -11    1    4    4    0    0  0.78055740448E+01 -0.19424442914E+02 -0.20979497356E+02  0.29637396613E+02  0.00000000000E+00 0.  1.
         12    1    4    4    0    0 -0.97149593011E+01 -0.48937834771E+02  0.69509117344E+02  0.85561729180E+02  0.00000000000E+00 0. -1.
         -5    1    5    5    0  502 -0.47009431299E+02  0.41993853035E+02  0.56901851738E+02  0.85048698138E+02  0.47000000000E+01 0.  1.
         13    1    6    6    0    0 -0.41951636069E+02 -0.23211417353E+02  0.13769874172E+03  0.14580690359E+03  0.00000000000E+00 0. -1.
        -14    1    6    6    0    0  0.91884936236E+01  0.16344926640E+02  0.28806066588E+03  0.28867028297E+03  0.00000000000E+00 0.  1.
</event>
<event>
12    1  0.8133506E-002  0.3482479E+03  0.7818608E-02  0.1063420E+00
         21   -1    0    0  503  502  0.00000000000E+00  0.00000000000E+00  0.24430454094E+03  0.24430454094E+03  0.00000000000E+00 0. -1.
         21   -1    0    0  501  503 -0.00000000000E+00 -0.00000000000E+00 -0.17490194787E+04  0.17490194787E+04  0.00000000000E+00 0.  1.
          6    2    1    2  501    0  0.28822612794E+03  0.90469641343E+02 -0.15959433934E+04  0.16333251195E+04  0.17162917631E+03 0.  0.
         24    2    3    3    0    0  0.47544594450E+02  0.16539327187E+02 -0.47911940853E+03  0.48846216039E+03  0.80658767034E+02 0.  0.
         -6    2    1    2    0  502 -0.28822612794E+03 -0.90469641343E+02  0.91228455609E+02  0.35999890020E+03  0.17325564983E+03 0.  0.
        -24    2    5    5    0    0 -0.20289726811E+03 -0.12233811519E+03  0.98841391949E+02  0.26847480093E+03  0.78582327148E+02 0.  0.
          5    1    3    3  501    0  0.24068153349E+03  0.73930314156E+02 -0.11168239849E+04  0.11448629591E+04  0.47000000000E+01 0. -1.
        -11    1    4    4    0    0  0.68191529287E+02  0.28487798074E+01 -0.39163980201E+03  0.39754236847E+03  0.00000000000E+00 0.  1.
         12    1    4    4    0    0 -0.20646934836E+02  0.13690547380E+02 -0.87479606527E+02  0.90919791926E+02  0.00000000000E+00 0. -1.
         -5    1    5    5    0  502 -0.85328859832E+02  0.31868473852E+02 -0.76129363398E+01  0.91524099261E+02  0.47000000000E+01 0.  1.
         11    1    6    6    0    0 -0.66930807190E+02 -0.18535277080E+02  0.62854036917E+02  0.93669202005E+02  0.00000000000E+00 0. -1.
        -12    1    6    6    0    0 -0.13596646092E+03 -0.10380283812E+03  0.35987355032E+02  0.17480559893E+03  0.00000000000E+00 0.  1.
</event>
<event>
12    1  0.8133506E-002  0.1814987E+03  0.7818608E-02  0.1167865E+00
         21   -1    0    0  503  502  0.00000000000E+00  0.00000000000E+00  0.75612893225E+02  0.75612893225E+02  0.00000000000E+00 0. -1.
         21   -1    0    0  501  503 -0.00000000000E+00 -0.00000000000E+00 -0.81977389943E+03  0.81977389943E+03  0.00000000000E+00 0. -1.
          6    2    1    2  501    0  0.25289713793E+02  0.38550176114E+02 -0.68100712658E+03  0.70321453714E+03  0.16915759838E+03 0.  0.
         24    2    3    3    0    0  0.50083248028E+02 -0.19671823929E+02 -0.25064651416E+03  0.26820089672E+03  0.78820895395E+02 0.  0.
         -6    2    1    2    0  502 -0.25289713793E+02 -0.38550176114E+02 -0.63153879623E+02  0.19217225551E+03  0.17554508702E+03 0.  0.
        -24    2    5    5    0    0 -0.49821931266E+02  0.35797914304E+02 -0.53081593210E+02  0.11309628447E+03  0.78799736801E+02 0.  0.
          5    1    3    3  501    0 -0.24793534235E+02  0.58222000043E+02 -0.43036061242E+03  0.43501364042E+03  0.47000000000E+01 0. -1.
        -11    1    4    4    0    0  0.32288342157E+02 -0.38068172674E+02 -0.22989193770E+03  0.23524885936E+03  0.00000000000E+00 0.  1.
         12    1    4    4    0    0  0.17794905871E+02  0.18396348745E+02 -0.20754576456E+02  0.32952037357E+02  0.00000000000E+00 0. -1.
         -5    1    5    5    0  502  0.24532217473E+02 -0.74348090418E+02 -0.10072286414E+02  0.79075971044E+02  0.47000000000E+01 0.  1.
         13    1    6    6    0    0  0.18081056687E+02  0.93777726162E+01 -0.30759366806E+02  0.36891813136E+02  0.00000000000E+00 0. -1.
        -14    1    6    6    0    0 -0.67902987953E+02  0.26420141687E+02 -0.22322226404E+02  0.76204471335E+02  0.00000000000E+00 0.  1.
</event>
<event>
12    1  0.8133506E-002  0.2332850E+03  0.7818608E-02  0.1124505E+00
         21   -1    0    0  501  502  0.00000000000E+00  0.00000000000E+00  0.22970449015E+03  0.22970449015E+03  0.00000000000E+00 0. -1.
         21   -1    0    0  502  503 -0.00000000000E+00 -0.00000000000E+00 -0.55092342560E+03  0.55092342560E+03  0.00000000000E+00 0.  1.
         -6    2    1    2    0  503  0.15770331712E+03 -0.13560462629E+01 -0.45557431367E+03  0.51141932700E+03  0.17067395134E+03 0.  0.
        -24    2    3    3    0    0  0.16173752905E+03 -0.35269299891E+02 -0.29631989382E+03  0.34847625756E+03  0.78913058446E+02 0.  0.
          6    2    1    2  501    0 -0.15770331712E+03  0.13560462629E+01  0.13435537822E+03  0.26920858874E+03  0.17190032432E+03 0.  0.
         24    2    5    5    0    0 -0.13619046158E+03  0.40973696870E+02  0.47221504599E+02  0.17099065186E+03  0.82348326428E+02 0.  0.
          5    1    5    5  501    0 -0.21512855542E+02 -0.39617650607E+02  0.87133873621E+02  0.98217936882E+02  0.47000000000E+01 0. -1.
        -11    1    6    6    0    0 -0.61892737716E+02  0.53916680271E+02  0.13893669776E+00  0.82083729794E+02  0.00000000000E+00 0.  1.
         12    1    6    6    0    0 -0.74297723867E+02 -0.12942983401E+02  0.47082567901E+02  0.88906922066E+02  0.00000000000E+00 0. -1.
         -5    1    3    3    0  503 -0.40342119245E+01  0.33913253628E+02 -0.15925441985E+03  0.16294306945E+03  0.47000000000E+01 0.  1.
         11    1    4    4    0    0  0.74330466373E+02  0.22944247042E+02 -0.11258366402E+03  0.13684494184E+03  0.00000000000E+00 0. -1.
        -12    1    4    4    0    0  0.87407062676E+02 -0.58213546934E+02 -0.18373622980E+03  0.21163131572E+03  0.00000000000E+00 0.  1.
</event>
<event>
12    1  0.8133506E-002  0.1989230E+03  0.7818608E-02  0.1150866E+00
         21   -1    0    0  501  502  0.00000000000E+00  0.00000000000E+00  0.57665505738E+03  0.57665505738E+03  0.00000000000E+00 0.  1.
         21   -1    0    0  502  503 -0.00000000000E+00 -0.00000000000E+00 -0.68649463913E+02  0.68649463913E+02  0.00000000000E+00 0.  1.
         -6    2    1    2    0  503 -0.92321739415E+02  0.35438997185E+02  0.27727529912E+03  0.34066240304E+03  0.17143528006E+03 0.  0.
        -24    2    3    3    0    0 -0.74496232270E+02 -0.15861221816E+02  0.26075322210E+03  0.28370162527E+03  0.81811382856E+02 0.  0.
          6    2    1    2  501    0  0.92321739415E+02 -0.35438997185E+02  0.23073029434E+03  0.30464211826E+03  0.17260105851E+03 0.  0.
         24    2    5    5    0    0  0.78623566830E+02  0.35604577914E+02  0.18064281883E+03  0.21651905261E+03  0.82457994884E+02 0.  0.
          5    1    5    5  501    0  0.13698172585E+02 -0.71043575099E+02  0.50087475513E+02  0.88123065643E+02  0.47000000000E+01 0. -1.
        -13    1    6    6    0    0  0.30132390024E+02 -0.28487723282E+01  0.13820142402E+03  0.14147688869E+03  0.00000000000E+00 0.  1.
         14    1    6    6    0    0  0.48491176806E+02  0.38453350242E+02  0.42441394810E+02  0.75042163923E+02  0.00000000000E+00 0. -1.
         -5    1    3    3    0  503 -0.17825507145E+02  0.51300219001E+02  0.16522077020E+02  0.56960777765E+02  0.47000000000E+01 0.  1.
         11    1    4    4    0    0 -0.27772776256E+02 -0.19197004952E+02  0.21697690074E+03  0.21958785839E+03  0.00000000000E+00 0. -1.
        -12    1    4    4    0    0 -0.46723456015E+02  0.33357831355E+01  0.43776321366E+02  0.64113766879E+02  0.00000000000E+00 0.  1.
</event>
<event>
12    1  0.8133506E-002  0.1944057E+03  0.7818608E-02  0.1155040E+00
         21   -1    0    0  501  502  0.00000000000E+00  0.00000000000E+00  0.13655532651E+03  0.13655532651E+03  0.00000000000E+00 0. -1.
         21   -1    0    0  502  503 -0.00000000000E+00 -0.00000000000E+00 -0.27660893681E+03  0.27660893681E+03  0.00000000000E+00 0. -1.
         -6    2    1    2    0  503 -0.87599938505E+02  0.10536085497E+02 -0.91224628403E+02  0.21272018888E+03  0.17071375928E+03 0.  0.
        -24    2    3    3    0    0 -0.10864314480E+03 -0.38495988406E+02 -0.61639472688E+02  0.15152923987E+03  0.76657758287E+02 0.  0.
          6    2    1    2  501    0  0.87599938505E+02 -0.10536085497E+02 -0.48828981901E+02  0.20044407444E+03  0.17323047994E+03 0.  0.
         24    2    5    5    0    0  0.19069143002E+02 -0.66253152796E+02 -0.30580355393E+02  0.11013369912E+03  0.80256844413E+02 0.  0.
          5    1    5    5  501    0  0.68530795502E+02  0.55717067299E+02 -0.18248626507E+02  0.90310375317E+02  0.47000000000E+01 0. -1.
        -11    1    6    6    0    0  0.28841322156E+02 -0.81701610780E+02 -0.30498089617E+02  0.91853734481E+02  0.00000000000E+00 0.  1.
         12    1    6    6    0    0 -0.97721791540E+01  0.15448457984E+02 -0.82265775984E-01  0.18279964637E+02  0.00000000000E+00 0. -1.
         -5    1    3    3    0  503  0.21043206297E+02  0.49032073904E+02 -0.29585155714E+02  0.61190949014E+02  0.47000000000E+01 0.  1.
         13    1    4    4    0    0 -0.37753115288E+02  0.15496431591E+02 -0.45232651416E+02  0.60921505728E+02  0.00000000000E+00 0. -1.
        -14    1    4    4    0    0 -0.70890029514E+02 -0.53992419997E+02 -0.16406821273E+02  0.90607734139E+02  0.00000000000E+00 0.  1.
</event>
<event>
12    1  0.8133506E-002  0.2199870E+03  0.7818608E-02  0.1134316E+00
         21   -1    0    0  501  502  0.00000000000E+00  0.00000000000E+00  0.11016741329E+03  0.11016741329E+03  0.00000000000E+00 0. -1.
         21   -1    0    0  502  503 -0.00000000000E+00 -0.00000000000E+00 -0.50384191277E+03  0.50384191277E+03  0.00000000000E+00 0. -1.
         -6    2    1    2    0  503  0.38621272199E+02  0.12929247060E+03 -0.30961976631E+03  0.37851093226E+03  0.17087416577E+03 0.  0.
        -24    2    3    3    0    0  0.89319048636E+02  0.11184307545E+03 -0.22545426170E+03  0.27860763855E+03  0.79409232247E+02 0.  0.
          6    2    1    2  501    0 -0.38621272199E+02 -0.12929247060E+03 -0.84054733161E+02  0.23549839379E+03  0.17374161762E+03 0.  0.
         24    2    5    5    0    0  0.43671349251E+01 -0.10029735660E+03 -0.11664237977E+03  0.17407556014E+03  0.81352469355E+02 0.  0.
          5    1    5    5  501    0 -0.42988407124E+02 -0.28995113999E+02  0.32587646610E+02  0.61422833657E+02  0.47000000000E+01 0. -1.
        -11    1    6    6    0    0  0.27857176035E+02 -0.23176031945E+02 -0.53185278914E+01  0.36625639275E+02  0.00000000000E+00 0.  1.
         12    1    6    6    0    0 -0.23490041110E+02 -0.77121324654E+02 -0.11132385188E+03  0.13744992086E+03  0.00000000000E+00 0. -1.
         -5    1    3    3    0  503 -0.50697776437E+02  0.17449395152E+02 -0.84165504613E+02  0.99903293708E+02  0.47000000000E+01 0.  1.
         13    1    4    4    0    0  0.88002199790E+02  0.51729698661E+02 -0.12331342470E+03  0.16008294601E+03  0.00000000000E+00 0. -1.
        -14    1    4    4    0    0  0.13168488461E+01  0.60113376785E+02 -0.10214083700E+03  0.11852469254E+03  0.00000000000E+00 0.  1.
</event>
<event>
12    1  0.8133506E-002  0.2970013E+03  0.7818608E-02  0.1086784E+00
         21   -1    0    0  503  502  0.00000000000E+00  0.00000000000E+00  0.13388405610E+03  0.13388405610E+03  0.00000000000E+00 0. -1.
         21   -1    0    0  501  503 -0.00000000000E+00 -0.00000000000E+00 -0.66534018750E+03  0.66534018750E+03  0.00000000000E+00 0.  1.
          6    2    1    2  501    0 -0.14523439012E+03  0.19339384312E+03 -0.30714255663E+03  0.42725443233E+03  0.17238211399E+03 0.  0.
         24    2    3    3    0    0 -0.47335044000E+02  0.16231824910E+03 -0.23977303209E+03  0.30432877451E+03  0.80852184236E+02 0.  0.
         -6    2    1    2    0  502  0.14523439012E+03 -0.19339384312E+03 -0.22431357477E+03  0.37196981127E+03  0.17190332761E+03 0.  0.
        -24    2    5    5    0    0  0.79560255157E+02 -0.16936078588E+03 -0.22294859682E+03  0.30186536770E+03  0.80023205396E+02 0.  0.
          5    1    3    3  501    0 -0.97899346120E+02  0.31075594017E+02 -0.67369524543E+02  0.12292565782E+03  0.47000000000E+01 0. -1.
        -13    1    4    4    0    0 -0.30182235863E+02  0.79888481270E+02 -0.55824128956E+02  0.10202681106E+03  0.00000000000E+00 0.  1.
         14    1    4    4    0    0 -0.17152808138E+02  0.82429767829E+02 -0.18394890313E+03  0.20230196345E+03  0.00000000000E+00 0. -1.
         -5    1    5    5    0  502  0.65674134963E+02 -0.24033057234E+02 -0.13649779532E+01  0.70104443568E+02  0.47000000000E+01 0.  1.
         11    1    6    6    0    0  0.56189763345E+02 -0.14147170553E+03 -0.12366415782E+03  0.19612332064E+03  0.00000000000E+00 0. -1.
        -12    1    6    6    0    0  0.23370491813E+02 -0.27889080354E+02 -0.99284438996E+02  0.10574204706E+03  0.00000000000E+00 0.  1.
</event>
<event>
12    1  0.8133506E-002  0.1902235E+03  0.7818608E-02  0.1158645E+00
         21   -1    0    0  503  502  0.00000000000E+00  0.00000000000E+00  0.47781845875E+02  0.47781845875E+02  0.00000000000E+00 0. -1.
         21   -1    0    0  501  503 -0.00000000000E+00 -0.00000000000E+00 -0.80050539844E+03  0.80050539844E+03  0.00000000000E+00 0. -1.
          6    2    1    2  501    0  0.62134458783E+02 -0.51085055932E+02 -0.27197758857E+03  0.33189879089E+03  0.17237930501E+03 0.  0.
         24    2    3    3    0    0 -0.26114573059E+02 -0.23398942703E+00 -0.14942399678E+03  0.17247735115E+03  0.82090682595E+02 0.  0.
         -6    2    1    2    0  502 -0.62134458783E+02  0.51085055932E+02 -0.48074596399E+03  0.51638845343E+03  0.17049920538E+03 0.  0.
        -24    2    5    5    0    0 -0.97333684021E+02  0.51942382629E+02 -0.26799367020E+03  0.30069109837E+03  0.80141576060E+02 0.  0.
          5    1    3    3  501    0  0.88249031842E+02 -0.50851066505E+02 -0.12255359180E+03  0.15942143974E+03  0.47000000000E+01 0. -1.
        -11    1    4    4    0    0 -0.22705377946E+02 -0.36962619665E+02 -0.11118162377E+03  0.11934455540E+03  0.00000000000E+00 0.  1.
         12    1    4    4    0    0 -0.34091951132E+01  0.36728630238E+02 -0.38242373010E+02  0.53132795748E+02  0.00000000000E+00 0. -1.
         -5    1    5    5    0  502  0.35199225238E+02 -0.85732669641E+00 -0.21275229380E+03  0.21569735506E+03  0.47000000000E+01 0.  1.
         13    1    6    6    0    0 -0.32166698414E+02  0.43321378093E+02 -0.19560106716E+03  0.20290691403E+03  0.00000000000E+00 0. -1.
        -14    1    6    6    0    0 -0.65166985608E+02  0.86210045356E+01 -0.72392603042E+02  0.97784184343E+02  0.00000000000E+00 0.  1.
</event>
<event>
12    1  0.8133506E-002  0.1766063E+03  0.7818608E-02  0.1171568E+00
         21   -1    0    0  503  502  0.00000000000E+00  0.00000000000E+00  0.66257038117E+02  0.66257038117E+02  0.00000000000E+00 0. -1.
         21   -1    0    0  501  503 -0.00000000000E+00 -0.00000000000E+00 -0.53114318840E+03  0.53114318840E+03  0.00000000000E+00 0. -1.
          6    2    1    2  501    0  0.48801342498E+02 -0.25305763380E+02 -0.33598295262E+03  0.37875479313E+03  0.16597799909E+03 0.  0.
         24    2    3    3    0    0  0.87181018095E+02 -0.30303517763E+02 -0.17431152514E+03  0.21244869730E+03  0.78937368106E+02 0.  0.
         -6    2    1    2    0  502 -0.48801342498E+02  0.25305763380E+02 -0.12890319767E+03  0.21864543339E+03  0.16783276939E+03 0.  0.
        -24    2    5    5    0    0 -0.61028545279E+02 -0.39538516206E+02 -0.94826486308E+02  0.14423039902E+03  0.80762416342E+02 0.  0.
          5    1    3    3  501    0 -0.38379675597E+02  0.49977543832E+01 -0.16167142748E+03  0.16630609583E+03  0.47000000000E+01 0. -1.
        -11    1    4    4    0    0  0.28565468441E+02  0.12867727948E+02 -0.10254505653E+02  0.32965425767E+02  0.00000000000E+00 0.  1.
         12    1    4    4    0    0  0.58615549653E+02 -0.43171245711E+02 -0.16405701949E+03  0.17948327154E+03  0.00000000000E+00 0. -1.
         -5    1    5    5    0  502  0.12227202781E+02  0.64844279586E+02 -0.34076711358E+02  0.74415034367E+02  0.47000000000E+01 0.  1.
         13    1    6    6    0    0  0.18162715868E+02  0.31653226845E+01 -0.12474313706E+02  0.22260099232E+02  0.00000000000E+00 0. -1.
        -14    1    6    6    0    0 -0.79191261147E+02 -0.42703838891E+02 -0.82352172602E+02  0.12197029979E+03  0.00000000000E+00 0.  1.
</event>
<event>
12    1  0.8133506E-002  0.1853621E+03  0.7818608E-02  0.1164965E+00
         21   -1    0    0  501  502  0.00000000000E+00  0.00000000000E+00  0.74206390266E+03  0.74206390266E+03  0.00000000000E+00 0.  1.
         21   -1    0    0  502  503 -0.00000000000E+00 -0.00000000000E+00 -0.44815763448E+02  0.44815763448E+02  0.00000000000E+00 0.  1.
         -6    2    1    2    0  503 -0.14093362662E+02  0.67915983502E+02  0.30387473589E+03  0.35594795278E+03  0.17189498624E+03 0.  0.
        -24    2    3    3    0    0 -0.34567169314E+02 -0.20298065737E+02  0.19683781225E+03  0.21566292770E+03  0.78475941429E+02 0.  0.
          6    2    1    2  501    0  0.14093362662E+02 -0.67915983502E+02  0.39337340332E+03  0.43093171332E+03  0.16170437044E+03 0.  0.
         24    2    5    5    0    0  0.64679148828E+02 -0.71616204101E+02  0.27779011676E+03  0.30462177893E+03  0.79465755168E+02 0.  0.
          5    1    5    5  501    0 -0.50585786166E+02  0.37002205993E+01  0.11558328656E+03  0.12630993439E+03  0.47000000000E+01 0. -1.
        -11    1    6    6    0    0  0.64744000165E+02 -0.22440785848E+02  0.20983697049E+03  0.22074176907E+03  0.00000000000E+00 0.  1.
         12    1    6    6    0    0 -0.64851336642E-01 -0.49175418253E+02  0.67953146271E+02  0.83880009861E+02  0.00000000000E+00 0. -1.
         -5    1    3    3    0  503  0.20473806652E+02  0.88214049239E+02  0.10703692363E+03  0.14028502508E+03  0.47000000000E+01 0.  1.
         11    1    4    4    0    0 -0.28034629001E+01 -0.43350194479E+00  0.16891300350E+03  0.16893682275E+03  0.00000000000E+00 0. -1.
        -12    1    4    4    0    0 -0.31763706414E+02 -0.19864563792E+02  0.27924808748E+02  0.46726104946E+02  0.00000000000E+00 0.  1.
</event>
<event>
12    1  0.8133506E-002  0.2281862E+03  0.7818608E-02  0.1128024E+00
         21   -1    0    0  501  502  0.00000000000E+00  0.00000000000E+00  0.41368983766E+03  0.41368983766E+03  0.00000000000E+00 0.  1.
         21   -1    0    0  502  503 -0.00000000000E+00 -0.00000000000E+00 -0.14399854486E+03  0.14399854486E+03  0.00000000000E+00 0.  1.
         -6    2    1    2    0  503 -0.12794419652E+03  0.76588420282E+02  0.34893120037E+02  0.23027562978E+03  0.17197044020E+03 0.  0.
        -24    2    3    3    0    0 -0.48058102325E+01 -0.13157351329E+01  0.35568281304E+02  0.84485830924E+02  0.76471733478E+02 0.  0.
          6    2    1    2  501    0  0.12794419652E+03 -0.76588420282E+02  0.23479817276E+03  0.32741275274E+03  0.17272355132E+03 0.  0.
         24    2    5    5    0    0  0.15910984264E+03 -0.47234968327E+02  0.17827811351E+03  0.25635270956E+03  0.79915841235E+02 0.  0.
          5    1    5    5  501    0 -0.31165646121E+02 -0.29353451955E+02  0.56520059251E+02  0.71060043186E+02  0.47000000000E+01 0. -1.
        -13    1    6    6    0    0  0.25284364389E+02  0.60192593746E+01  0.74288268705E+02  0.78703732015E+02  0.00000000000E+00 0.  1.
         14    1    6    6    0    0  0.13382547825E+03 -0.53254227702E+02  0.10398984481E+03  0.17764897754E+03  0.00000000000E+00 0. -1.
         -5    1    3    3    0  503 -0.12313838629E+03  0.77904155415E+02 -0.67516126692E+00  0.14578979886E+03  0.47000000000E+01 0.  1.
         13    1    4    4    0    0  0.21352911220E+02  0.28519247562E+02  0.24679235095E+02  0.43340038578E+02  0.00000000000E+00 0. -1.
        -14    1    4    4    0    0 -0.26158721453E+02 -0.29834982695E+02  0.10889046209E+02  0.41145792346E+02  0.00000000000E+00 0.  1.
</event>
<event>
12    1  0.8133506E-002  0.1954439E+03  0.7818608E-02  0.1154451E+00
         21   -1    0    0  501  502  0.00000000000E+00  0.00000000000E+00  0.42730881434E+03  0.42730881434E+03  0.00000000000E+00 0. -1.
         21   -1    0    0  502  503 -0.00000000000E+00 -0.00000000000E+00 -0.89820065293E+02  0.89820065293E+02  0.00000000000E+00 0. -1.
         -6    2    1    2    0  503 -0.81790592684E+02  0.25206664357E+02  0.20678013823E+03  0.28200539036E+03  0.17159235893E+03 0.  0.
        -24    2    3    3    0    0 -0.11182463596E+02  0.64514688598E+02  0.89255614046E+02  0.13930033632E+03  0.84562559819E+02 0.  0.
          6    2    1    2  501    0  0.81790592684E+02 -0.25206664357E+02  0.13070861082E+03  0.23512348928E+03  0.17570781795E+03 0.  0.
         24    2    5    5    0    0 -0.59806209571E+01  0.33073037052E+02  0.37552359617E+02  0.94409287158E+02  0.79833202253E+02 0.  0.
          5    1    5    5  501    0  0.87771213641E+02 -0.58279701408E+02  0.93156251203E+02  0.14071420212E+03  0.47000000000E+01 0. -1.
        -13    1    6    6    0    0  0.36647499188E+02  0.19646690274E+02  0.22312582016E+02  0.47189860687E+02  0.00000000000E+00 0.  1.
         14    1    6    6    0    0 -0.42628120145E+02  0.13426346778E+02  0.15239777601E+02  0.47219426471E+02  0.00000000000E+00 0. -1.
         -5    1    3    3    0  503 -0.70608129088E+02 -0.39308024241E+02  0.11752452418E+03  0.14270505404E+03  0.47000000000E+01 0.  1.
         13    1    4    4    0    0  0.40579817191E+01 -0.12850038085E+02 -0.67438277724E+01  0.15068838955E+02  0.00000000000E+00 0. -1.
        -14    1    4    4    0    0 -0.15240445315E+02  0.77364726683E+02  0.95999441818E+02  0.12423149736E+03  0.00000000000E+00 0.  1.
</event>
<event>
12    1  0.8133506E-002  0.3274546E+03  0.7818608E-02  0.1072285E+00
         21   -1    0    0  501  502  0.00000000000E+00  0.00000000000E+00  0.45194959486E+03  0.45194959486E+03  0.00000000000E+00 0. -1.
         21   -1    0    0  502  503 -0.00000000000E+00 -0.00000000000E+00 -0.29987990558E+03  0.29987990558E+03  0.00000000000E+00 0. -1.
         -6    2    1    2    0  503 -0.14309226485E+03  0.23894098486E+03 -0.95883863266E+02  0.34120408752E+03  0.17221592145E+03 0.  0.
        -24    2    3    3    0    0 -0.15341314202E+03  0.19478938537E+03 -0.31716452070E+02  0.26249302793E+03  0.80113416986E+02 0.  0.
          6    2    1    2  501    0  0.14309226485E+03 -0.23894098486E+03  0.24795355255E+03  0.41062541292E+03  0.17194206876E+03 0.  0.
         24    2    5    5    0    0  0.21165742120E+02 -0.32965089942E+02  0.69337868490E+02  0.11193192651E+03  0.78653228614E+02 0.  0.
          5    1    5    5  501    0  0.12192652273E+03 -0.20597589492E+03  0.17861568406E+03  0.29869348641E+03  0.47000000000E+01 0. -1.
        -13    1    6    6    0    0  0.13641914489E+02 -0.18844031614E+02  0.85845892040E+02  0.88942208982E+02  0.00000000000E+00 0.  1.
         14    1    6    6    0    0  0.75238276310E+01 -0.14121058329E+02 -0.16508023550E+02  0.22989717530E+02  0.00000000000E+00 0. -1.
         -5    1    3    3    0  503  0.10320877167E+02  0.44151599492E+02 -0.64167411196E+02  0.78711059596E+02  0.47000000000E+01 0.  1.
         13    1    4    4    0    0 -0.24669052038E+02  0.24443124980E+01  0.11013496169E+02  0.27126258310E+02  0.00000000000E+00 0. -1.
        -14    1    4    4    0    0 -0.12874408998E+03  0.19234507287E+03 -0.42729948239E+02  0.23536676962E+03  0.00000000000E+00 0.  1.
</event>
<event>
12    1  0.8133506E-002  0.1802119E+03  0.7818608E-02  0.1167781E+00
         21   -1    0    0  501  502  0.00000000000E+00  0.00000000000E+00  0.97458001950E+02  0.97458001950E+02  0.00000000000E+00 0. -1.
         21   -1    0    0  502  503 -0.00000000000E+00 -0.00000000000E+00 -0.40478607469E+03  0.40478607469E+03  0.00000000000E+00 0. -1.
         -6    2    1    2    0  503 -0.45815455082E+02 -0.19354219769E+02 -0.26000551455E+03  0.31592239651E+03  0.17242520487E+03 0.  0.
        -24    2    3    3    0    0 -0.36961390919E+02 -0.70053402801E+02 -0.23054651000E+03  0.25643521671E+03  0.79584567787E+02 0.  0.
          6    2    1    2  501    0  0.45815455082E+02  0.19354219769E+02 -0.47322558186E+02  0.18632168012E+03  0.17321288123E+03 0.  0.
         24    2    5    5    0    0 -0.12318885738E+02  0.16831023302E+02 -0.84080193003E+02  0.11733485660E+03  0.79138811126E+02 0.  0.
          5    1    5    5  501    0  0.58134340819E+02  0.25231964670E+01  0.36757634817E+02  0.68986823526E+02  0.47000000000E+01 0. -1.
        -11    1    6    6    0    0 -0.43064030563E+02  0.18271580604E+02 -0.68196972287E+02  0.82699385821E+02  0.00000000000E+00 0.  1.
         12    1    6    6    0    0  0.30745144825E+02 -0.14405573016E+01 -0.15883220716E+02  0.34635470778E+02  0.00000000000E+00 0. -1.
         -5    1    3    3    0  503 -0.88540641622E+01  0.50699183032E+02 -0.29459004547E+02  0.59487179805E+02  0.47000000000E+01 0.  1.
         13    1    4    4    0    0  0.51932335514E+01 -0.20025554386E+02 -0.15553016547E+03  0.15690004741E+03  0.00000000000E+00 0. -1.
        -14    1    4    4    0    0 -0.42154624471E+02 -0.50027848415E+02 -0.75016344528E+02  0.99535169301E+02  0.00000000000E+00 0.  1.
</event>
<event>
12    1  0.8133506E-002  0.1834005E+03  0.7818608E-02  0.1165148E+00
         21   -1    0    0  503  502  0.00000000000E+00  0.00000000000E+00  0.75189165338E+03  0.75189165338E+03  0.00000000000E+00 0.  1.
         21   -1    0    0  501  503 -0.00000000000E+00 -0.00000000000E+00 -0.52785654316E+02  0.52785654316E+02  0.00000000000E+00 0.  1.
          6    2    1    2  501    0  0.44250575640E+02  0.41853402701E+02  0.18859996673E+03  0.26306977488E+03  0.17299115076E+03 0.  0.
         24    2    3    3    0    0  0.67006308486E+02  0.14569768191E+02  0.19916072233E+03  0.22570883741E+03  0.81100939834E+02 0.  0.
         -6    2    1    2    0  502 -0.44250575640E+02 -0.41853402701E+02  0.51050603233E+03  0.54160753282E+03  0.17033053102E+03 0.  0.
        -24    2    5    5    0    0 -0.50978977453E+02 -0.16015775232E+02  0.13962694592E+03  0.16973895237E+03  0.80375784461E+02 0.  0.
          5    1    3    3  501    0 -0.22755732846E+02  0.27283634511E+02 -0.10560755602E+02  0.37360937467E+02  0.47000000000E+01 0. -1.
        -13    1    4    4    0    0  0.20906074454E+02  0.43277550892E+02  0.63937653495E+02  0.79987710899E+02  0.00000000000E+00 0.  1.
         14    1    4    4    0    0  0.46100234032E+02 -0.28707782701E+02  0.13522306884E+03  0.14572112651E+03  0.00000000000E+00 0. -1.
         -5    1    5    5    0  502  0.67284018134E+01 -0.25837627470E+02  0.37087908641E+03  0.37186858044E+03  0.47000000000E+01 0.  1.
         13    1    6    6    0    0  0.18417508010E+02  0.83393740062E+01  0.15563402766E+02  0.25514099353E+02  0.00000000000E+00 0. -1.
        -14    1    6    6    0    0 -0.69396485464E+02 -0.24355149238E+02  0.12406354315E+03  0.14422485302E+03  0.00000000000E+00 0.  1.
</event>
<event>
12    1  0.8133506E-002  0.1827202E+03  0.7818608E-02  0.1166055E+00
         21   -1    0    0  501  502  0.00000000000E+00  0.00000000000E+00  0.23769258803E+03  0.23769258803E+03  0.00000000000E+00 0.  1.
         21   -1    0    0  502  503 -0.00000000000E+00 -0.00000000000E+00 -0.60197752769E+03  0.60197752769E+03  0.00000000000E+00 0. -1.
         -6    2    1    2    0  503  0.39108431465E+02  0.43631906479E+02 -0.55042080095E+03  0.57883833352E+03  0.16928539675E+03 0.  0.
        -24    2    3    3    0    0 -0.26672915618E+02  0.47945845560E+02 -0.14056234902E+03  0.16368554680E+03  0.63442381232E+02 0.  0.
          6    2    1    2  501    0 -0.39108431465E+02 -0.43631906479E+02  0.18613586129E+03  0.26083178221E+03  0.17307064187E+03 0.  0.
         24    2    5    5    0    0  0.14937153034E+02 -0.59492188748E+01  0.17405412223E+03  0.19368292840E+03  0.83424981525E+02 0.  0.
          5    1    5    5  501    0 -0.54045584499E+02 -0.37682687605E+02  0.12081739063E+02  0.67148853808E+02  0.47000000000E+01 0. -1.
        -11    1    6    6    0    0  0.44372379672E+01  0.37433895691E+02  0.56315765373E+02  0.67767625434E+02  0.00000000000E+00 0.  1.
         12    1    6    6    0    0  0.10499915067E+02 -0.43383114566E+02  0.11773835686E+03  0.12591530297E+03  0.00000000000E+00 0. -1.
         -5    1    3    3    0  503  0.65781347083E+02 -0.43139390802E+01 -0.40985845193E+03  0.41515278671E+03  0.47000000000E+01 0.  1.
         13    1    4    4    0    0 -0.16758891468E+01  0.53035188044E+02 -0.11896105247E+03  0.13025848064E+03  0.00000000000E+00 0. -1.
        -14    1    4    4    0    0 -0.24997026471E+02 -0.50893424849E+01 -0.21601296552E+02  0.33427066160E+02  0.00000000000E+00 0.  1.
</event>
<event>
12    1  0.8133506E-002  0.1761927E+03  0.7818608E-02  0.1171639E+00
         21   -1    0    0  501  502  0.00000000000E+00  0.00000000000E+00  0.68680759153E+03  0.68680759153E+03  0.00000000000E+00 0. -1.
         21   -1    0    0  502  503 -0.00000000000E+00 -0.00000000000E+00 -0.77128718772E+02  0.77128718772E+02  0.00000000000E+00 0. -1.
         -6    2    1    2    0  503  0.31706195390E+02 -0.14454342633E+02  0.58486255362E+02  0.18526785770E+03  0.17230590873E+03 0.  0.
        -24    2    3    3    0    0  0.71698089085E+02 -0.34392665585E+02  0.77992041257E+02  0.13628363609E+03  0.78530246036E+02 0.  0.
          6    2    1    2  501    0 -0.31706195390E+02  0.14454342633E+02  0.55119261739E+03  0.57866845260E+03  0.17271266808E+03 0.  0.
         24    2    5    5    0    0 -0.56147394154E+02  0.67169078414E+02  0.37137106582E+03  0.38963381033E+03  0.78954560733E+02 0.  0.
          5    1    5    5  501    0  0.24441198764E+02 -0.52714735781E+02  0.17982155158E+03  0.18903464227E+03  0.47000000000E+01 0. -1.
        -11    1    6    6    0    0 -0.20934803247E+01  0.62643515594E+02  0.22371863535E+03  0.23233299487E+03  0.00000000000E+00 0.  1.
         12    1    6    6    0    0 -0.54053913829E+02  0.45255628203E+01  0.14765243047E+03  0.15730081545E+03  0.00000000000E+00 0. -1.
         -5    1    3    3    0  503 -0.39991893695E+02  0.19938322952E+02 -0.19505785895E+02  0.48984221611E+02  0.47000000000E+01 0.  1.
         11    1    4    4    0    0  0.41391466197E+02  0.15105823203E+02  0.70460017389E+01  0.44621581203E+02  0.00000000000E+00 0. -1.
        -12    1    4    4    0    0  0.30306622888E+02 -0.49498488788E+02  0.70946039518E+02  0.91662054888E+02  0.00000000000E+00 0.  1.
</event>
<event>
12    1  0.8133506E-002  0.1886267E+03  0.7818608E-02  0.1160318E+00
         21   -1    0    0  503  502  0.00000000000E+00  0.00000000000E+00  0.35289522650E+02  0.35289522650E+02  0.00000000000E+00 0. -1.
         21   -1    0    0  501  503 -0.00000000000E+00 -0.00000000000E+00 -0.10257388037E+04  0.10257388037E+04  0.00000000000E+00 0. -1.
          6    2    1    2  501    0 -0.29992663553E+02 -0.69998486902E+02 -0.58510256223E+03  0.61394222814E+03  0.16964876403E+03 0.  0.
         24    2    3    3    0    0 -0.54043044586E+02 -0.32103625770E+02 -0.18614439307E+03  0.21243985945E+03  0.80806344781E+02 0.  0.
         -6    2    1    2    0  502  0.29992663553E+02  0.69998486902E+02 -0.40534671878E+03  0.44708609816E+03  0.17257076435E+03 0.  0.
        -24    2    5    5    0    0  0.86358645918E+02  0.48639975555E+02 -0.27056695239E+03  0.29936681912E+03  0.81180993548E+02 0.  0.
          5    1    3    3  501    0  0.24050381033E+02 -0.37894861132E+02 -0.39895816915E+03  0.40150236869E+03  0.47000000000E+01 0. -1.
        -11    1    4    4    0    0  0.49301242385E+00  0.14097549348E+02 -0.97754683396E+02  0.98767211587E+02  0.00000000000E+00 0.  1.
         12    1    4    4    0    0 -0.54536057010E+02 -0.46201175117E+02 -0.88389709677E+02  0.11367264787E+03  0.00000000000E+00 0. -1.
         -5    1    5    5    0  502 -0.56365982365E+02  0.21358511346E+02 -0.13477976638E+03  0.14771927904E+03  0.47000000000E+01 0.  1.
         13    1    6    6    0    0  0.78943781305E+01  0.48988468061E+02 -0.10807635323E+03  0.11892303955E+03  0.00000000000E+00 0. -1.
        -14    1    6    6    0    0  0.78464267787E+02 -0.34849250612E+00 -0.16249059916E+03  0.18044377956E+03  0.00000000000E+00 0.  1.
</event>
<event>
12    1  0.8133506E-002  0.1887967E+03  0.7818608E-02  0.1161289E+00
         21   -1    0    0  503  502  0.00000000000E+00  0.00000000000E+00  0.73510539646E+02  0.73510539646E+02  0.00000000000E+00 0. -1.
         21   -1    0    0  501  503 -0.00000000000E+00 -0.00000000000E+00 -0.46656450050E+03  0.46656450050E+03  0.00000000000E+00 0. -1.
          6    2    1    2  501    0  0.57302549184E+01  0.56226797608E+02 -0.19007013042E+03  0.26790081297E+03  0.18013856478E+03 0.  0.
         24    2    3    3    0    0  0.68681968509E+02  0.46435725986E+01 -0.94745501133E+02  0.14247106253E+03  0.81132719106E+02 0.  0.
         -6    2    1    2    0  502 -0.57302549184E+01 -0.56226797608E+02 -0.20298383044E+03  0.27217422718E+03  0.17228489757E+03 0.  0.
        -24    2    5    5    0    0 -0.11700747312E+02 -0.19995534645E+02 -0.21120059885E+02  0.86580929250E+02  0.80706080855E+02 0.  0.
          5    1    3    3  501    0 -0.62951713591E+02  0.51583225010E+02 -0.95324629284E+02  0.12542975044E+03  0.47000000000E+01 0. -1.
        -11    1    4    4    0    0 -0.10638876882E+02  0.14387388851E+02 -0.44772805368E+02  0.48216042556E+02  0.00000000000E+00 0.  1.
         12    1    4    4    0    0  0.79320845392E+02 -0.97438162526E+01 -0.49972695765E+02  0.94255019977E+02  0.00000000000E+00 0. -1.
         -5    1    5    5    0  502  0.59704923933E+01 -0.36231262963E+02 -0.18186377056E+03  0.18559329793E+03  0.47000000000E+01 0.  1.
         11    1    6    6    0    0  0.23594901232E+02  0.12042041353E+02 -0.27855043709E+02  0.38439999793E+02  0.00000000000E+00 0. -1.
        -12    1    6    6    0    0 -0.35295648544E+02 -0.32037575997E+02  0.67349838237E+01  0.48140929457E+02  0.00000000000E+00 0.  1.
</event>
<event>
12    1  0.8133506E-002  0.2747483E+03  0.7818608E-02  0.1098709E+00
         21   -1    0    0  501  502  0.00000000000E+00  0.00000000000E+00  0.67308389451E+02  0.67308389451E+02  0.00000000000E+00 0.  1.
         21   -1    0    0  502  503 -0.00000000000E+00 -0.00000000000E+00 -0.14969907973E+04  0.14969907973E+04  0.00000000000E+00 0.  1.
         -6    2    1    2    0  503  0.20618144329E+03  0.57758499250E+02 -0.11091435581E+04  0.11426662027E+04  0.17216209380E+03 0.  0.
        -24    2    3    3    0    0  0.36383405004E+02 -0.16989363864E+02 -0.46124401917E+03  0.46871181301E+03  0.73022789524E+02 0.  0.
          6    2    1    2  501    0 -0.20618144329E+03 -0.57758499250E+02 -0.32053884981E+03  0.42163298411E+03  0.17082853173E+03 0.  0.
         24    2    5    5    0    0 -0.62052761591E+02  0.19183022649E+02 -0.84723327115E+02  0.13471117346E+03  0.82161575676E+02 0.  0.
          5    1    5    5  501    0 -0.14412868170E+03 -0.76941521899E+02 -0.23581552270E+03  0.28692181065E+03  0.47000000000E+01 0. -1.
        -13    1    6    6    0    0 -0.67275460151E+02  0.15187633252E+02 -0.23094363103E+02  0.72732395461E+02  0.00000000000E+00 0.  1.
         14    1    6    6    0    0  0.52226985598E+01  0.39953893973E+01 -0.61628964012E+02  0.61978777996E+02  0.00000000000E+00 0. -1.
         -5    1    3    3    0  503  0.16979803829E+03  0.74747863115E+02 -0.64789953889E+03  0.67395438966E+03  0.47000000000E+01 0.  1.
         11    1    4    4    0    0  0.25800275965E+02 -0.28137012990E+02 -0.44389257440E+03  0.44553110256E+03  0.00000000000E+00 0. -1.
        -12    1    4    4    0    0  0.10583129039E+02  0.11147649125E+02 -0.17351444763E+02  0.23180710443E+02  0.00000000000E+00 0.  1.
</event>
<event>
12    1  0.8133506E-002  0.2175704E+03  0.7818608E-02  0.1135789E+00
         21   -1    0    0  501  502  0.00000000000E+00  0.00000000000E+00  0.44500183605E+02  0.44500183605E+02  0.00000000000E+00 0.  1.
         21   -1    0    0  502  503 -0.00000000000E+00 -0.00000000000E+00 -0.14155556358E+04  0.14155556358E+04  0.00000000000E+00 0. -1.
         -6    2    1    2    0  503  0.86283068606E+02 -0.10139362035E+03 -0.10510738964E+04  0.10733560515E+04  0.17207975869E+03 0.  0.
        -24    2    3    3    0    0 -0.12553576031E+02 -0.10923260502E+02 -0.34713561982E+03  0.35676359018E+03  0.80623885057E+02 0.  0.
          6    2    1    2  501    0 -0.86283068606E+02  0.10139362035E+03 -0.31998155575E+03  0.38669976789E+03  0.17153157229E+03 0.  0.
         24    2    5    5    0    0 -0.57563899899E+02  0.38395423512E+02 -0.29264917428E+03  0.31211617364E+03  0.83577242830E+02 0.  0.
          5    1    5    5  501    0 -0.28719168707E+02  0.62998196833E+02 -0.27332381465E+02  0.74583594255E+02  0.47000000000E+01 0. -1.
        -11    1    6    6    0    0 -0.17934854271E+02  0.41034106027E+02 -0.53854575040E+02  0.70041217208E+02  0.00000000000E+00 0.  1.
         12    1    6    6    0    0 -0.39629045628E+02 -0.26386825145E+01 -0.23879459924E+03  0.24207495643E+03  0.00000000000E+00 0. -1.
         -5    1    3    3    0  503  0.98836644637E+02 -0.90470359844E+02 -0.70393827659E+03  0.71659246129E+03  0.47000000000E+01 0.  1.
         11    1    4    4    0    0 -0.10382789424E+02 -0.45678216330E+02 -0.17645551500E+03  0.18256738629E+03  0.00000000000E+00 0. -1.
        -12    1    4    4    0    0 -0.21707866075E+01  0.34754955828E+02 -0.17068010482E+03  0.17419620389E+03  0.00000000000E+00 0.  1.
</event>
<event>
12    1  0.8133506E-002  0.1743798E+03  0.7818608E-02  0.1174079E+00
         21   -1    0    0  501  502  0.00000000000E+00  0.00000000000E+00  0.11272756141E+03  0.11272756141E+03  0.00000000000E+00 0.  1.
         21   -1    0    0  502  503 -0.00000000000E+00 -0.00000000000E+00 -0.35914532097E+03  0.35914532097E+03  0.00000000000E+00 0.  1.
         -6    2    1    2    0  503 -0.11990234899E+02  0.14177343161E+02 -0.24301563904E+03  0.29745991988E+03  0.17053164024E+03 0.  0.
        -24    2    3    3    0    0 -0.52623926560E+02 -0.38446293267E+02 -0.16860585008E+03  0.19756372024E+03  0.79725126288E+02 0.  0.
          6    2    1    2  501    0  0.11990234899E+02 -0.14177343161E+02 -0.34021205306E+01  0.17441296250E+03  0.17338842024E+03 0.  0.
         24    2    5    5    0    0  0.16935476596E+02 -0.33157637615E+02  0.60308666217E+02  0.10758586215E+03  0.80940368266E+02 0.  0.
          5    1    5    5  501    0 -0.49452416971E+01  0.18980294455E+02 -0.63710786747E+02  0.66827100348E+02  0.47000000000E+01 0. -1.
        -11    1    6    6    0    0 -0.38441234387E+01  0.14971586876E+02  0.52322112616E+02  0.54557576625E+02  0.00000000000E+00 0.  1.
         12    1    6    6    0    0  0.20779600035E+02 -0.48129224492E+02  0.79865536005E+01  0.53028285530E+02  0.00000000000E+00 0. -1.
         -5    1    3    3    0  503  0.40633691661E+02  0.52623636428E+02 -0.74409788960E+02  0.99896199637E+02  0.47000000000E+01 0.  1.
         13    1    4    4    0    0 -0.14699827459E+02  0.49386426838E+01  0.36450136633E+01  0.15929885231E+02  0.00000000000E+00 0. -1.
        -14    1    4    4    0    0 -0.37924099102E+02 -0.43384935951E+02 -0.17225086374E+03  0.18163383501E+03  0.00000000000E+00 0.  1.
</event>
<event>
12    1  0.8133506E-002  0.1936639E+03  0.7818608E-02  0.1156578E+00
         21   -1    0    0  503  502  0.00000000000E+00  0.00000000000E+00  0.15817405418E+03  0.15817405418E+03  0.00000000000E+00 0. -1.
         21   -1    0    0  501  503 -0.00000000000E+00 -0.00000000000E+00 -0.24944365441E+03  0.24944365441E+03  0.00000000000E+00 0. -1.
          6    2    1    2  501    0  0.68259155811E+02 -0.50665645111E+02  0.11129169569E+02  0.19398339542E+03  0.17400971046E+03 0.  0.
         24    2    3    3    0    0  0.74987539371E+02 -0.77029501996E+02 -0.36374413737E+02  0.13903792679E+03  0.80322922469E+02 0.  0.
         -6    2    1    2    0  502 -0.68259155811E+02  0.50665645111E+02 -0.10239876980E+03  0.21363431317E+03  0.16711610264E+03 0.  0.
        -24    2    5    5    0    0 -0.59807767156E+02 -0.23484102370E+02 -0.94494815477E+02  0.13844007459E+03  0.78153131886E+02 0.  0.
          5    1    3    3  501    0 -0.67283835599E+01  0.26363856885E+02  0.47503583306E+02  0.54945468622E+02  0.47000000000E+01 0. -1.
        -11    1    4    4    0    0 -0.50934984575E+01 -0.27421283191E+02 -0.35094776297E+02  0.44827601115E+02  0.00000000000E+00 0.  1.
         12    1    4    4    0    0  0.80081037828E+02 -0.49608218806E+02 -0.12796374400E+01  0.94210325680E+02  0.00000000000E+00 0. -1.
         -5    1    5    5    0  502 -0.84513886549E+01  0.74149747482E+02 -0.79039543218E+01  0.75194238581E+02  0.47000000000E+01 0.  1.
         11    1    6    6    0    0  0.67530659987E+00 -0.25956378332E+02  0.29919252454E+00  0.25966885283E+02  0.00000000000E+00 0. -1.
        -12    1    6    6    0    0 -0.60483073756E+02  0.24722759620E+01 -0.94794008001E+02  0.11247318930E+03  0.00000000000E+00 0.  1.
</event>
<event>
12    1  0.8133506E-002  0.2309144E+03  0.7818608E-02  0.1126748E+00
         21   -1    0    0  501  502  0.00000000000E+00  0.00000000000E+00  0.11423587308E+03  0.11423587308E+03  0.00000000000E+00 0.  1.
         21   -1    0    0  502  503 -0.00000000000E+00 -0.00000000000E+00 -0.56208223667E+03  0.56208223667E+03  0.00000000000E+00 0.  1.
         -6    2    1    2    0  503 -0.98569573563E+02 -0.11948154105E+03 -0.37096930383E+03  0.43696647027E+03  0.17125907937E+03 0.  0.
        -24    2    3    3    0    0 -0.11469818487E+03 -0.36728482928E+02 -0.25400510873E+03  0.29270658788E+03  0.81571418129E+02 0.  0.
          6    2    1    2  501    0  0.98569573563E+02  0.11948154105E+03 -0.76877059758E+02  0.23935163948E+03  0.16549116447E+03 0.  0.
         24    2    5    5    0    0  0.10725275637E+03  0.13760645785E+03 -0.37091600673E+02  0.19453107470E+03  0.77639301849E+02 0.  0.
          5    1    5    5  501    0 -0.86831828055E+01 -0.18124916796E+02 -0.39785459085E+02  0.44820564779E+02  0.47000000000E+01 0. -1.
        -11    1    6    6    0    0  0.73211070608E+02  0.13787339455E+03 -0.23450856202E+02  0.15785713934E+03  0.00000000000E+00 0.  1.
         12    1    6    6    0    0  0.34041685761E+02 -0.26693670239E+00 -0.13640744470E+02  0.36673935354E+02  0.00000000000E+00 0. -1.
         -5    1    3    3    0  503  0.16128611302E+02 -0.82753058126E+02 -0.11696419510E+03  0.14425988239E+03  0.47000000000E+01 0.  1.
         11    1    4    4    0    0 -0.32669957625E+02 -0.97911438103E+01 -0.12653879350E+02  0.36377373337E+02  0.00000000000E+00 0. -1.
        -12    1    4    4    0    0 -0.82028227241E+02 -0.26937339118E+02 -0.24135122938E+03  0.25632921454E+03  0.00000000000E+00 0.  1.
</event>
<event>
12    1  0.8133506E-002  0.2571891E+03  0.7818608E-02  0.1109067E+00
         21   -1    0    0  503  502  0.00000000000E+00  0.00000000000E+00  0.46218227053E+02  0.46218227053E+02  0.00000000000E+00 0. -1.
         21   -1    0    0  501  503 -0.00000000000E+00 -0.00000000000E+00 -0.14474014691E+04  0.14474014691E+04  0.00000000000E+00 0.  1.
          6    2    1    2  501    0 -0.95138614938E+02  0.16696688741E+03 -0.60182012134E+03  0.65390091144E+03  0.16872950536E+03 0.  0.
         24    2    3    3    0    0 -0.69099189674E+02  0.22534033476E+02 -0.28548444221E+03  0.30514705431E+03  0.79566810512E+02 0.  0.
         -6    2    1    2    0  502  0.95138614938E+02 -0.16696688741E+03 -0.79936312068E+03  0.83971878470E+03  0.17092963793E+03 0.  0.
        -24    2    5    5    0    0  0.11234207074E+02 -0.15211283371E+02 -0.29565114894E+03  0.30697348581E+03  0.80408510536E+02 0.  0.
          5    1    3    3  501    0 -0.26039425264E+02  0.14443285393E+03 -0.31633567914E+03  0.34875385713E+03  0.47000000000E+01 0. -1.
        -11    1    4    4    0    0 -0.19124714280E+02  0.22785964022E+02 -0.22375530129E+03  0.22572414516E+03  0.00000000000E+00 0.  1.
         12    1    4    4    0    0 -0.49974475394E+02 -0.25193054604E+00 -0.61729140917E+02  0.79422909153E+02  0.00000000000E+00 0. -1.
         -5    1    5    5    0  502  0.83904407864E+02 -0.15175560404E+03 -0.50371197174E+03  0.53274529889E+03  0.47000000000E+01 0.  1.
         11    1    6    6    0    0 -0.14946783838E+02  0.73795518130E+01 -0.10429264498E+02  0.19663003078E+02  0.00000000000E+00 0. -1.
        -12    1    6    6    0    0  0.26180990913E+02 -0.22590835184E+02 -0.28522188445E+03  0.28731048273E+03  0.00000000000E+00 0.  1.
</event>
<event>
12    1  0.8133506E-002  0.2276176E+03  0.7818608E-02  0.1128496E+00
         21   -1    0    0  501  502  0.00000000000E+00  0.00000000000E+00  0.10008342122E+04  0.10008342122E+04  0.00000000000E+00 0. -1.
         21   -1    0    0  502  503 -0.00000000000E+00 -0.00000000000E+00 -0.65262471052E+02  0.65262471052E+02  0.00000000000E+00 0. -1.
         -6    2    1    2    0  503 -0.10740617172E+03 -0.99114571493E+02  0.71133344513E+03  0.74657736120E+03  0.17327060363E+03 0.  0.
        -24    2    3    3    0    0 -0.33509065737E+02 -0.47873364157E+02  0.57904264753E+03  0.58654802410E+03  0.73030681439E+02 0.  0.
          6    2    1    2  501    0  0.10740617172E+03  0.99114571493E+02  0.22423829599E+03  0.31951932203E+03  0.17449928297E+03 0.  0.
         24    2    5    5    0    0  0.14010422359E+02  0.47932588413E+02  0.18183639461E+03  0.20479193806E+03  0.79883906541E+02 0.  0.
          5    1    5    5  501    0  0.93395749364E+02  0.51181983080E+02  0.42401901380E+02  0.11472738397E+03  0.47000000000E+01 0. -1.
        -13    1    6    6    0    0 -0.25661382716E+02  0.46725220683E+02  0.87702515227E+02  0.10263276274E+03  0.00000000000E+00 0.  1.
         14    1    6    6    0    0  0.39671805075E+02  0.12073677296E+01  0.94133879383E+02  0.10215917532E+03  0.00000000000E+00 0. -1.
         -5    1    3    3    0  503 -0.73897105986E+02 -0.51241207336E+02  0.13229079760E+03  0.16002933710E+03  0.47000000000E+01 0.  1.
         13    1    4    4    0    0 -0.34837413905E+02 -0.66314741147E+02  0.47643416041E+03  0.48228705094E+03  0.00000000000E+00 0. -1.
        -14    1    4    4    0    0  0.13283481681E+01  0.18441376990E+02  0.10260848712E+03  0.10426097316E+03  0.00000000000E+00 0.  1.
</event>
<event>
12    1  0.8133506E-002  0.2121615E+03  0.7818608E-02  0.1139951E+00
         21   -1    0    0  503  502  0.00000000000E+00  0.00000000000E+00  0.28620344973E+03  0.28620344973E+03  0.00000000000E+00 0. -1.
         21   -1    0    0  501  503 -0.00000000000E+00 -0.00000000000E+00 -0.18067529148E+03  0.18067529148E+03  0.00000000000E+00 0. -1.
          6    2    1    2  501    0  0.32297310729E+01 -0.12471717773E+03 -0.31776804822E+02  0.21452803608E+03  0.17160334308E+03 0.  0.
         24    2    3    3    0    0  0.97738674533E+01 -0.53028432772E+02 -0.82327666626E+02  0.12643954930E+03  0.79382439916E+02 0.  0.
         -6    2    1    2    0  502 -0.32297310729E+01  0.12471717773E+03  0.13730496308E+03  0.25235070513E+03  0.17106554274E+03 0.  0.
        -24    2    5    5    0    0 -0.21339823206E+02  0.98528978958E+02  0.20444156322E+02  0.13113876122E+03  0.81339187466E+02 0.  0.
          5    1    3    3  501    0 -0.65441363804E+01 -0.71688744954E+02  0.50550861804E+02  0.88088486780E+02  0.47000000000E+01 0. -1.
        -11    1    4    4    0    0 -0.20436908966E+02 -0.27393765934E+02  0.97849999332E+00  0.34191272605E+02  0.00000000000E+00 0.  1.
         12    1    4    4    0    0  0.30210776419E+02 -0.25634666838E+02 -0.83306166620E+02  0.92248276692E+02  0.00000000000E+00 0. -1.
         -5    1    5    5    0  502  0.18110092133E+02  0.26188198767E+02  0.11686080675E+03  0.12121194391E+03  0.47000000000E+01 0.  1.
         11    1    6    6    0    0 -0.40968615722E+02  0.84417122868E+02  0.38026882064E+02  0.10124584864E+03  0.00000000000E+00 0. -1.
        -12    1    6    6    0    0  0.19628792516E+02  0.14111856090E+02 -0.17582725742E+02  0.29892912579E+02  0.00000000000E+00 0.  1.
</event>
<event>
12    1  0.8133506E-002  0.3571350E+03  0.7818608E-02  0.1059858E+00
         21   -1    0    0  501  502  0.00000000000E+00  0.00000000000E+00  0.21233496250E+03  0.21233496250E+03  0.00000000000E+00 0. -1.
         21   -1    0    0  502  503 -0.00000000000E+00 -0.00000000000E+00 -0.61867764323E+03  0.61867764323E+03  0.00000000000E+00 0. -1.
         -6    2    1    2    0  503 -0.10362606427E+02 -0.31266438930E+03 -0.27795129056E+03  0.45150011113E+03  0.16949639077E+03 0.  0.
        -24    2    3    3    0    0 -0.63950589385E+02 -0.25820157582E+03 -0.23559183718E+03  0.36401135037E+03  0.79012769949E+02 0.  0.
          6    2    1    2  501    0  0.10362606427E+02  0.31266438930E+03 -0.12839139016E+03  0.37951249459E+03  0.17227588496E+03 0.  0.
         24    2    5    5    0    0  0.21281761533E+02  0.12283783119E+03 -0.11742443423E+03  0.18899815331E+03  0.79935962222E+02 0.  0.
          5    1    5    5  501    0 -0.10919155106E+02  0.18982655811E+03 -0.10966955933E+02  0.19051434128E+03  0.47000000000E+01 0. -1.
        -13    1    6    6    0    0  0.14379371716E+02  0.11754014196E+03 -0.63483564905E+02  0.13436001755E+03  0.00000000000E+00 0.  1.
         14    1    6    6    0    0  0.69023898176E+01  0.52976892296E+01 -0.53940869323E+02  0.54638135764E+02  0.00000000000E+00 0. -1.
         -5    1    3    3    0  503  0.53587982958E+02 -0.54462813472E+02 -0.42359453386E+02  0.87488760764E+02  0.47000000000E+01 0.  1.
         11    1    4    4    0    0 -0.21282257274E+02 -0.21183440316E+03 -0.19737124954E+03  0.29031389732E+03  0.00000000000E+00 0. -1.
        -12    1    4    4    0    0 -0.42668332112E+02 -0.46367172668E+02 -0.38220587638E+02  0.73697453048E+02  0.00000000000E+00 0.  1.
</event>
<event>
12    1  0.8133506E-002  0.1750357E+03  0.7818608E-02  0.1172718E+00
         21   -1    0    0  501  502  0.00000000000E+00  0.00000000000E+00  0.24154310535E+03  0.24154310535E+03  0.00000000000E+00 0.  1.
         21   -1    0    0  502  503 -0.00000000000E+00 -0.00000000000E+00 -0.13689889074E+03  0.13689889074E+03  0.00000000000E+00 0.  1.
         -6    2    1    2    0  503 -0.26567889392E+01  0.32585854962E+02  0.10376055254E+03  0.20340402659E+03  0.17186637048E+03 0.  0.
        -24    2    3    3    0    0 -0.32326221849E+01 -0.44760534362E+02  0.82113637416E+02  0.12294612170E+03  0.79744241857E+02 0.  0.
          6    2    1    2  501    0  0.26567889392E+01 -0.32585854962E+02  0.88366207117E+00  0.17503796949E+03  0.17195526579E+03 0.  0.
         24    2    5    5    0    0 -0.10325939017E+02  0.25816202322E+02 -0.47777819013E+02  0.97776198465E+02  0.80649635323E+02 0.  0.
          5    1    5    5  501    0  0.12982727956E+02 -0.58402057284E+02  0.48661481084E+02  0.77261771022E+02  0.47000000000E+01 0. -1.
        -11    1    6    6    0    0  0.18855819898E+02 -0.16498957328E+02 -0.37901180214E+02  0.45434095111E+02  0.00000000000E+00 0.  1.
         12    1    6    6    0    0 -0.29181758915E+02  0.42315159650E+02 -0.98766387994E+01  0.52342103354E+02  0.00000000000E+00 0. -1.
         -5    1    3    3    0  503  0.57583324576E+00  0.77346389323E+02  0.21646915122E+02  0.80457904892E+02  0.47000000000E+01 0.  1.
         11    1    4    4    0    0  0.79232050035E+01  0.19725940927E+02  0.50611538514E+01  0.21851892396E+02  0.00000000000E+00 0. -1.
        -12    1    4    4    0    0 -0.11155827188E+02 -0.64486475289E+02  0.77052483564E+02  0.10109422931E+03  0.00000000000E+00 0.  1.
</event>
<event>
12    1  0.8133506E-002  0.3586790E+03  0.7818608E-02  0.1059136E+00
         21   -1    0    0  501  502  0.00000000000E+00  0.00000000000E+00  0.17057824245E+03  0.17057824245E+03  0.00000000000E+00 0.  1.
         21   -1    0    0  502  503 -0.00000000000E+00 -0.00000000000E+00 -0.75701506027E+03  0.75701506027E+03  0.00000000000E+00 0. -1.
         -6    2    1    2    0  503 -0.31259536088E+03 -0.35228490594E+02 -0.32422229530E+03  0.48328816347E+03  0.17172782530E+03 0.  0.
        -24    2    3    3    0    0 -0.21562895704E+03  0.23190783598E+01 -0.29742430828E+03  0.37580548804E+03  0.79166409855E+02 0.  0.
          6    2    1    2  501    0  0.31259536088E+03  0.35228490594E+02 -0.26221452252E+03  0.44430513925E+03  0.17231858503E+03 0.  0.
         24    2    5    5    0    0  0.22015948009E+03  0.22331425414E+02 -0.93070533187E+02  0.25106304892E+03  0.73495858051E+02 0.  0.
          5    1    5    5  501    0  0.92435880797E+02  0.12897065180E+02 -0.16914398933E+03  0.19324209033E+03  0.47000000000E+01 0. -1.
        -13    1    6    6    0    0 -0.56498314048E+01  0.74361106472E+00 -0.54638978502E+01  0.78947914498E+01  0.00000000000E+00 0.  1.
         14    1    6    6    0    0  0.22580931149E+03  0.21587814349E+02 -0.87606635337E+02  0.24316825747E+03  0.00000000000E+00 0. -1.
         -5    1    3    3    0  503 -0.96966403839E+02 -0.37547568954E+02 -0.26797987021E+02  0.10748267542E+03  0.47000000000E+01 0.  1.
         13    1    4    4    0    0 -0.33583517122E+02 -0.21419961453E+02 -0.92272845383E+02  0.10050345947E+03  0.00000000000E+00 0. -1.
        -14    1    4    4    0    0 -0.18204543992E+03  0.23739039813E+02 -0.20515146289E+03  0.27530202857E+03  0.00000000000E+00 0.  1.
</event>
<event>
12    1  0.8133506E-002  0.1733396E+03  0.7818608E-02  0.1175458E+00
         21   -1    0    0  503  502  0.00000000000E+00  0.00000000000E+00  0.22088519532E+03  0.22088519532E+03  0.00000000000E+00 0.  1.
         21   -1    0    0  501  503 -0.00000000000E+00 -0.00000000000E+00 -0.13346864965E+03  0.13346864965E+03  0.00000000000E+00 0.  1.
          6    2    1    2  501    0 -0.46501835208E+00  0.20227889101E+02  0.31136739940E+02  0.17210666017E+03  0.16805303378E+03 0.  0.
         24    2    3    3    0    0  0.31835078363E+02  0.62513852072E+02  0.47467740246E+02  0.11624799493E+03  0.79617561160E+02 0.  0.
         -6    2    1    2    0  502  0.46501835208E+00 -0.20227889101E+02  0.56279805733E+02  0.18224718479E+03  0.17215468653E+03 0.  0.
        -24    2    5    5    0    0 -0.11688794555E+02  0.28475393536E+02 -0.23697556741E+02  0.87705165479E+02  0.78632982272E+02 0.  0.
          5    1    3    3  501    0 -0.32300096715E+02 -0.42285962971E+02 -0.16331000306E+02  0.55858665247E+02  0.47000000000E+01 0. -1.
        -13    1    4    4    0    0 -0.14678110165E+02  0.52529765356E+02  0.41008765208E+02  0.68238859826E+02  0.00000000000E+00 0.  1.
         14    1    4    4    0    0  0.46513188528E+02  0.99840867163E+01  0.64589750374E+01  0.48009135101E+02  0.00000000000E+00 0. -1.
         -5    1    5    5    0  502  0.12153812908E+02 -0.48703282637E+02  0.79977362474E+02  0.94542019315E+02  0.47000000000E+01 0.  1.
         13    1    6    6    0    0  0.31165809931E+02  0.24246031250E+02 -0.21313198735E+01  0.39543902999E+02  0.00000000000E+00 0. -1.
        -14    1    6    6    0    0 -0.42854604486E+02  0.42293622858E+01 -0.21566236868E+02  0.48161262480E+02  0.00000000000E+00 0.  1.
</event>
<event>
12    1  0.8133506E-002  0.1813141E+03  0.7818608E-02  0.1167202E+00
         21   -1    0    0  503  502  0.00000000000E+00  0.00000000000E+00  0.15898999747E+03  0.15898999747E+03  0.00000000000E+00 0.  1.
         21   -1    0    0  501  503 -0.00000000000E+00 -0.00000000000E+00 -0.21195367531E+03  0.21195367531E+03  0.00000000000E+00 0.  1.
          6    2    1    2  501    0 -0.42900930843E+02 -0.37812840306E+02  0.10425250927E+02  0.17886831548E+03  0.16915935584E+03 0.  0.
         24    2    3    3    0    0  0.31569461638E+02 -0.52589360605E+02  0.23152414990E+02  0.10174338039E+03  0.77803659143E+02 0.  0.
         -6    2    1    2    0  502  0.42900930843E+02  0.37812840306E+02 -0.63388928774E+02  0.19207535729E+03  0.17205954152E+03 0.  0.
        -24    2    5    5    0    0 -0.38437569083E+02  0.25489270161E+02 -0.57466651098E+02  0.10946188791E+03  0.80946521270E+02 0.  0.
          5    1    3    3  501    0 -0.74470392480E+02  0.14776520299E+02 -0.12727164063E+02  0.77124935095E+02  0.47000000000E+01 0. -1.
        -13    1    4    4    0    0 -0.18602490981E+02 -0.15994912628E+02 -0.15099649893E+02  0.28807799770E+02  0.00000000000E+00 0.  1.
         14    1    4    4    0    0  0.50171952619E+02 -0.36594447977E+02  0.38252064884E+02  0.72935580619E+02  0.00000000000E+00 0. -1.
         -5    1    5    5    0  502  0.81338499925E+02  0.12323570145E+02 -0.59222776761E+01  0.82613469387E+02  0.47000000000E+01 0.  1.
         13    1    6    6    0    0 -0.45034099331E+01 -0.28439253456E+02 -0.24037364267E+02  0.37508222020E+02  0.00000000000E+00 0. -1.
        -14    1    6    6    0    0 -0.33934159150E+02  0.53928523617E+02 -0.33429286831E+02  0.71953665888E+02  0.00000000000E+00 0.  1.
</event>
<event>
12    1  0.8133506E-002  0.3952430E+03  0.7818608E-02  0.1045505E+00
         21   -1    0    0  501  502  0.00000000000E+00  0.00000000000E+00  0.13364286549E+03  0.13364286549E+03  0.00000000000E+00 0. -1.
         21   -1    0    0  502  503 -0.00000000000E+00 -0.00000000000E+00 -0.12604680505E+04  0.12604680505E+04  0.00000000000E+00 0. -1.
         -6    2    1    2    0  503  0.15557360932E+03 -0.31995176149E+03 -0.75302813232E+03  0.85010608090E+03  0.17046026844E+03 0.  0.
        -24    2    3    3    0    0  0.33345105394E+02 -0.14483688316E+03 -0.23096001851E+03  0.28602963817E+03  0.79879941062E+02 0.  0.
          6    2    1    2  501    0 -0.15557360932E+03  0.31995176149E+03 -0.37379705273E+03  0.54400483514E+03  0.17217649791E+03 0.  0.
         24    2    5    5    0    0 -0.12954069286E+03  0.31586593434E+03 -0.28645047017E+03  0.45264881614E+03  0.79277987549E+02 0.  0.
          5    1    5    5  501    0 -0.26032916455E+02  0.40858271480E+01 -0.87346582559E+02  0.91356018999E+02  0.47000000000E+01 0. -1.
        -11    1    6    6    0    0 -0.24482806622E+02  0.15795183786E+02 -0.85003465703E+01  0.30350478459E+02  0.00000000000E+00 0.  1.
         12    1    6    6    0    0 -0.10505788624E+03  0.30007075056E+03 -0.27795012360E+03  0.42229833768E+03  0.00000000000E+00 0. -1.
         -5    1    3    3    0  503  0.12222850392E+03 -0.17511487833E+03 -0.52206811381E+03  0.56407644273E+03  0.47000000000E+01 0.  1.
         11    1    4    4    0    0  0.81367327033E+01 -0.79809210959E+02 -0.18727642116E+03  0.20373555039E+03  0.00000000000E+00 0. -1.
        -12    1    4    4    0    0  0.25208372691E+02 -0.65027672197E+02 -0.43683597358E+02  0.82294087778E+02  0.00000000000E+00 0.  1.
</event>
<event>
12    1  0.8133506E-002  0.1950285E+03  0.7818608E-02  0.1154573E+00
         21   -1    0    0  503  502  0.00000000000E+00  0.00000000000E+00  0.31143510369E+03  0.31143510369E+03  0.00000000000E+00 0. -1.
         21   -1    0    0  501  503 -0.00000000000E+00 -0.00000000000E+00 -0.19334059574E+03  0.19334059574E+03  0.00000000000E+00 0. -1.
          6    2    1    2  501    0 -0.59491645289E+01 -0.87334343774E+02 -0.96101667656E+02  0.21509291735E+03  0.17136730262E+03 0.  0.
         24    2    3    3    0    0  0.46996259333E+02 -0.22787231658E+02 -0.90599185515E+02  0.13129605047E+03  0.79388501273E+02 0.  0.
         -6    2    1    2    0  502  0.59491645289E+01  0.87334343774E+02  0.21419617561E+03  0.28968278207E+03  0.17427975334E+03 0.  0.
        -24    2    5    5    0    0  0.34804112604E+02  0.35023173940E+02  0.21002131178E+03  0.22961127464E+03  0.78577586307E+02 0.  0.
          5    1    3    3  501    0 -0.52945423862E+02 -0.64547112116E+02 -0.55024821409E+01  0.83796866887E+02  0.47000000000E+01 0. -1.
        -11    1    4    4    0    0 -0.21049944250E+02  0.35498220017E+01 -0.27633525273E+02  0.34918664181E+02  0.00000000000E+00 0.  1.
         12    1    4    4    0    0  0.68046203583E+02 -0.26337053660E+02 -0.62965660243E+02  0.96377386286E+02  0.00000000000E+00 0. -1.
         -5    1    5    5    0  502 -0.28854948075E+02  0.52311169834E+02  0.41748638239E+01  0.60071507437E+02  0.47000000000E+01 0.  1.
         13    1    6    6    0    0  0.56866669361E+02  0.40608468685E+02  0.16416075391E+03  0.17841417808E+03  0.00000000000E+00 0. -1.
        -14    1    6    6    0    0 -0.22062556757E+02 -0.55852947444E+01  0.45860557870E+02  0.51197096560E+02  0.00000000000E+00 0.  1.
</event>
<event>
12    1  0.8133506E-002  0.2369240E+03  0.7818608E-02  0.1121863E+00
         21   -1    0    0  503  502  0.00000000000E+00  0.00000000000E+00  0.41033401566E+02  0.41033401566E+02  0.00000000000E+00 0.  1.
         21   -1    0    0  501  503 -0.00000000000E+00 -0.00000000000E+00 -0.19770094007E+04  0.19770094007E+04  0.00000000000E+00 0. -1.
          6    2    1    2  501    0  0.25970973818E+02  0.15906975688E+03 -0.15280523141E+04  0.15463069466E+04  0.17361917940E+03 0.  0.
         24    2    3    3    0    0 -0.18572041007E+02  0.22621976945E+02 -0.73605574948E+03  0.74139532090E+03  0.83858696427E+02 0.  0.
         -6    2    1    2    0  502 -0.25970973818E+02 -0.15906975688E+03 -0.40792368504E+03  0.47173585567E+03  0.17365283088E+03 0.  0.
        -24    2    5    5    0    0  0.12452173983E+02 -0.10214279581E+02 -0.11710868379E+03  0.14275295891E+03  0.80028590605E+02 0.  0.
          5    1    3    3  501    0  0.44543014824E+02  0.13644777993E+03 -0.79199656462E+03  0.80491162570E+03  0.47000000000E+01 0. -1.
        -11    1    4    4    0    0  0.24439136307E+02 -0.31152560046E+01 -0.87405128377E+02  0.90810972190E+02  0.00000000000E+00 0.  1.
         12    1    4    4    0    0 -0.43011177314E+02  0.25737232950E+02 -0.64865062110E+03  0.65058434871E+03  0.00000000000E+00 0. -1.
         -5    1    5    5    0  502 -0.38423147801E+02 -0.14885547730E+03 -0.29081500125E+03  0.32898289676E+03  0.47000000000E+01 0.  1.
         13    1    6    6    0    0  0.30018344469E+02 -0.22479242232E+02 -0.18450192145E+02  0.41795058634E+02  0.00000000000E+00 0. -1.
        -14    1    6    6    0    0 -0.17566170486E+02  0.12264962651E+02 -0.98658491648E+02  0.10095790028E+03  0.00000000000E+00 0.  1.
</event>
<event>
12    1  0.8133506E-002  0.1788131E+03  0.7818608E-02  0.1168996E+00
         21   -1    0    0  501  502  0.00000000000E+00  0.00000000000E+00  0.90715361025E+02  0.90715361025E+02  0.00000000000E+00 0. -1.
         21   -1    0    0  502  503 -0.00000000000E+00 -0.00000000000E+00 -0.47860177830E+03  0.47860177830E+03  0.00000000000E+00 0. -1.
         -6    2    1    2    0  503 -0.13112905906E+02 -0.45607508953E+02 -0.34032598934E+03  0.38444232560E+03  0.17240107167E+03 0.  0.
        -24    2    3    3    0    0  0.39427110867E+02 -0.22981196095E+02 -0.30138456096E+03  0.31508147035E+03  0.79756171724E+02 0.  0.
          6    2    1    2  501    0  0.13112905906E+02  0.45607508953E+02 -0.47560427933E+02  0.18487481373E+03  0.17223446017E+03 0.  0.
         24    2    5    5    0    0 -0.42410404286E+02  0.56090973589E+02 -0.65938551273E+02  0.12527123646E+03  0.80000940186E+02 0.  0.
          5    1    5    5  501    0  0.55523310191E+02 -0.10483464636E+02  0.18378123340E+02  0.59603577266E+02  0.47000000000E+01 0. -1.
        -13    1    6    6    0    0 -0.13125135178E+02  0.51453390781E+02 -0.77076933799E+02  0.93597939722E+02  0.00000000000E+00 0.  1.
         14    1    6    6    0    0 -0.29285269108E+02  0.46375828080E+01  0.11138382526E+02  0.31673296739E+02  0.00000000000E+00 0. -1.
         -5    1    3    3    0  503 -0.52540016772E+02 -0.22626312858E+02 -0.38941428381E+02  0.69360855245E+02  0.47000000000E+01 0.  1.
         13    1    4    4    0    0 -0.88925827407E+01 -0.20478370679E+01 -0.20538459066E+03  0.20558721201E+03  0.00000000000E+00 0. -1.
        -14    1    4    4    0    0  0.48319693608E+02 -0.20933359027E+02 -0.95999970305E+02  0.10949425834E+03  0.00000000000E+00 0.  1.
</event>
<event>
12    1  0.8133506E-002  0.2275172E+03  0.7818608E-02  0.1128937E+00
         21   -1    0    0  503  502  0.00000000000E+00  0.00000000000E+00  0.39208467569E+03  0.39208467569E+03  0.00000000000E+00 0.  1.
         21   -1    0    0  501  503 -0.00000000000E+00 -0.00000000000E+00 -0.30251019053E+03  0.30251019053E+03  0.00000000000E+00 0. -1.
          6    2    1    2  501    0 -0.13067018744E+03 -0.60260885395E+02 -0.21712349872E+03  0.31449434187E+03  0.17623281527E+03 0.  0.
         24    2    3    3    0    0 -0.13681036158E+03 -0.98566919535E+02 -0.19370847096E+03  0.26893770114E+03  0.79824825146E+02 0.  0.
         -6    2    1    2    0  502  0.13067018744E+03  0.60260885395E+02  0.30669798388E+03  0.38010052435E+03  0.17235626795E+03 0.  0.
        -24    2    5    5    0    0  0.29817406727E+01  0.15239589405E+02  0.16114488250E+03  0.18125623389E+03  0.81516951016E+02 0.  0.
          5    1    3    3  501    0  0.61401741365E+01  0.38306034140E+02 -0.23415027761E+02  0.45556640734E+02  0.47000000000E+01 0. -1.
        -13    1    4    4    0    0 -0.38053462143E+02 -0.15764710921E+02 -0.65623673263E+01  0.41709192708E+02  0.00000000000E+00 0.  1.
         14    1    4    4    0    0 -0.98756899433E+02 -0.82802208614E+02 -0.18714610363E+03  0.22722850843E+03  0.00000000000E+00 0. -1.
         -5    1    5    5    0  502  0.12768844677E+03  0.45021295990E+02  0.14555310138E+03  0.19884429047E+03  0.47000000000E+01 0.  1.
         13    1    6    6    0    0  0.87460687960E+01 -0.22653443736E+02  0.12890150623E+03  0.13116886269E+03  0.00000000000E+00 0. -1.
        -14    1    6    6    0    0 -0.57643281233E+01  0.37893033141E+02  0.32243376274E+02  0.50087371191E+02  0.00000000000E+00 0.  1.
</event>
<event>
12    1  0.8133506E-002  0.1761857E+03  0.7818608E-02  0.1171859E+00
         21   -1    0    0  503  502  0.00000000000E+00  0.00000000000E+00  0.57268609039E+03  0.57268609039E+03  0.00000000000E+00 0.  1.
         21   -1    0    0  501  503 -0.00000000000E+00 -0.00000000000E+00 -0.21055779511E+03  0.21055779511E+03  0.00000000000E+00 0.  1.
          6    2    1    2  501    0  0.28911123572E+02 -0.23417976445E+02 -0.15665591012E+03  0.23575939040E+03  0.17221254688E+03 0.  0.
         24    2    3    3    0    0  0.46271941033E+02 -0.26901827602E+02 -0.19997387266E+02  0.97878365350E+02  0.79469982074E+02 0.  0.
         -6    2    1    2    0  502 -0.28911123572E+02  0.23417976445E+02  0.51878420540E+03  0.54748449509E+03  0.17093263558E+03 0.  0.
        -24    2    5    5    0    0  0.28105362758E+02 -0.33942098673E+02  0.31701130078E+03  0.33005530439E+03  0.80612416257E+02 0.  0.
          5    1    3    3  501    0 -0.17360817461E+02  0.34838511561E+01 -0.13665852285E+03  0.13788102505E+03  0.47000000000E+01 0. -1.
        -13    1    4    4    0    0 -0.83235776914E+01 -0.20389476928E+02 -0.34577658583E+02  0.40995453261E+02  0.00000000000E+00 0.  1.
         14    1    4    4    0    0  0.54595518724E+02 -0.65123506731E+01  0.14580271317E+02  0.56882912089E+02  0.00000000000E+00 0. -1.
         -5    1    5    5    0  502 -0.57016486330E+02  0.57360075119E+02  0.20177290462E+03  0.21742919070E+03  0.47000000000E+01 0.  1.
         11    1    6    6    0    0 -0.25991408191E+02 -0.21040419660E+02  0.82068128394E+02  0.88619581681E+02  0.00000000000E+00 0. -1.
        -12    1    6    6    0    0  0.54096770949E+02 -0.12901679013E+02  0.23494317239E+03  0.24143572271E+03  0.00000000000E+00 0.  1.
</event>
<event>
12    1  0.8133506E-002  0.2067938E+03  0.7818608E-02  0.1144260E+00
         21   -1    0    0  503  502  0.00000000000E+00  0.00000000000E+00  0.15257362695E+03  0.15257362695E+03  0.00000000000E+00 0. -1.
         21   -1    0    0  501  503 -0.00000000000E+00 -0.00000000000E+00 -0.48392183699E+03  0.48392183699E+03  0.00000000000E+00 0.  1.
          6    2    1    2  501    0 -0.63502286468E+02  0.93676349465E+02 -0.37271042865E+03  0.42623552968E+03  0.17307762506E+03 0.  0.
         24    2    3    3    0    0 -0.57056098938E+02  0.12130862140E+03 -0.21404998664E+03  0.26498937733E+03  0.80192226970E+02 0.  0.
         -6    2    1    2    0  502  0.63502286468E+02 -0.93676349465E+02  0.41362218609E+02  0.21025993426E+03  0.17230962826E+03 0.  0.
        -24    2    5    5    0    0  0.59317958356E+02 -0.11355323606E+03  0.76534017400E+02  0.16937296014E+03  0.80104845064E+02 0.  0.
          5    1    3    3  501    0 -0.64461875300E+01 -0.27632271935E+02 -0.15866044202E+03  0.16124615235E+03  0.47000000000E+01 0. -1.
        -13    1    4    4    0    0 -0.10480630208E+02  0.79267771273E+02 -0.17137134593E+03  0.18910674599E+03  0.00000000000E+00 0.  1.
         14    1    4    4    0    0 -0.46575468730E+02  0.42040850127E+02 -0.42678640706E+02  0.75882631341E+02  0.00000000000E+00 0. -1.
         -5    1    5    5    0  502  0.41843281118E+01  0.19876886599E+02 -0.35171798791E+02  0.40886974121E+02  0.47000000000E+01 0.  1.
         13    1    6    6    0    0  0.34786294828E+01 -0.53892788273E+02 -0.46251167648E+01  0.54202630896E+02  0.00000000000E+00 0. -1.
        -14    1    6    6    0    0  0.55839328874E+02 -0.59660447791E+02  0.81159134164E+02  0.11517032924E+03  0.00000000000E+00 0.  1.
</event>
<event>
12    1  0.8133506E-002  0.2485079E+03  0.7818608E-02  0.1114292E+00
         21   -1    0    0  501  502  0.00000000000E+00  0.00000000000E+00  0.13650542345E+04  0.13650542345E+04  0.00000000000E+00 0. -1.
         21   -1    0    0  502  503 -0.00000000000E+00 -0.00000000000E+00 -0.27336865302E+03  0.27336865302E+03  0.00000000000E+00 0.  1.
         -6    2    1    2    0  503 -0.10732795165E+03  0.14320867076E+03 -0.20254720723E+03  0.32059558921E+03  0.17241852592E+03 0.  0.
        -24    2    3    3    0    0 -0.17586852244E+02  0.12918144046E+03 -0.15682296849E+03  0.21879664953E+03  0.79255210981E+02 0.  0.
          6    2    1    2  501    0  0.10732795165E+03 -0.14320867076E+03  0.12942327888E+04  0.13178272984E+04  0.17205308551E+03 0.  0.
         24    2    5    5    0    0  0.64699057703E+02 -0.88546188472E+02  0.43351051757E+03  0.45430536599E+03  0.80222198704E+02 0.  0.
          5    1    5    5  501    0  0.42628893944E+02 -0.54662482286E+02  0.86072227119E+03  0.86352193237E+03  0.47000000000E+01 0. -1.
        -13    1    6    6    0    0  0.80663195524E+02 -0.55358640136E+02  0.28611726793E+03  0.30238092063E+03  0.00000000000E+00 0.  1.
         14    1    6    6    0    0 -0.15964137821E+02 -0.33187548335E+02  0.14739324963E+03  0.15192444536E+03  0.00000000000E+00 0. -1.
         -5    1    3    3    0  503 -0.89741099403E+02  0.14027230300E+02 -0.45724238739E+02  0.10179893968E+03  0.47000000000E+01 0.  1.
         11    1    4    4    0    0 -0.56796238008E+01  0.17893573826E+02 -0.82107414344E+02  0.84226276191E+02  0.00000000000E+00 0. -1.
        -12    1    4    4    0    0 -0.11907228443E+02  0.11128786663E+03 -0.74715554149E+02  0.13457037334E+03  0.00000000000E+00 0.  1.
</event>
<event>
12    1  0.8133506E-002  0.3277752E+03  0.7818608E-02  0.1073310E+00
         21   -1    0    0  501  502  0.00000000000E+00  0.00000000000E+00  0.96269501411E+03  0.96269501411E+03  0.00000000000E+00 0.  1.
         21   -1    0    0  502  503 -0.00000000000E+00 -0.00000000000E+00 -0.11195625042E+03  0.11195625042E+03  0.00000000000E+00 0.  1.
         -6    2    1    2    0  503  0.59409399067E+02 -0.26112897576E+03  0.31868059059E+03  0.44973326049E+03  0.17024942906E+03 0.  0.
        -24    2    3    3    0    0  0.19131530816E+02 -0.10638859972E+03  0.64061233873E+02  0.14903407948E+03  0.80142158308E+02 0.  0.
          6    2    1    2  501    0 -0.59409399067E+02  0.26112897576E+03  0.53205817310E+03  0.62491800404E+03  0.18899416270E+03 0.  0.
         24    2    5    5    0    0  0.10232658864E+02  0.62152816608E+02  0.26750691333E+03  0.28661194854E+03  0.81355887596E+02 0.  0.
          5    1    5    5  501    0 -0.69642057931E+02  0.19897615915E+03  0.26455125977E+03  0.33830605550E+03  0.47000000000E+01 0. -1.
        -13    1    6    6    0    0 -0.35367268576E+02  0.31822420893E+02  0.13919772590E+03  0.14710376288E+03  0.00000000000E+00 0.  1.
         14    1    6    6    0    0  0.45599927440E+02  0.30330395714E+02  0.12830918743E+03  0.13950818566E+03  0.00000000000E+00 0. -1.
         -5    1    3    3    0  503  0.40277868252E+02 -0.15474037604E+03  0.25461935672E+03  0.30069918101E+03  0.47000000000E+01 0.  1.
         13    1    4    4    0    0 -0.22676896357E+02 -0.33215069051E+02 -0.43970969093E+01  0.40457593870E+02  0.00000000000E+00 0. -1.
        -14    1    4    4    0    0  0.41808427173E+02 -0.73173530671E+02  0.68458330783E+02  0.10857648561E+03  0.00000000000E+00 0.  1.
</event>
<event>
12    1  0.8133506E-002  0.2159469E+03  0.7818608E-02  0.1136965E+00
         21   -1    0    0  501  502  0.00000000000E+00  0.00000000000E+00  0.32708415244E+03  0.32708415244E+03  0.00000000000E+00 0. -1.
         21   -1    0    0  502  503 -0.00000000000E+00 -0.00000000000E+00 -0.16578415537E+03  0.16578415537E+03  0.00000000000E+00 0. -1.
         -6    2    1    2    0  503  0.20660977649E+02  0.12865539840E+03 -0.11702226162E+02  0.21626369205E+03  0.17220323710E+03 0.  0.
        -24    2    3    3    0    0  0.60240087972E+01  0.15953394817E+03 -0.23554553989E+02  0.17979050507E+03  0.79261840758E+02 0.  0.
          6    2    1    2  501    0 -0.20660977649E+02 -0.12865539840E+03  0.17300222323E+03  0.27660461576E+03  0.17205015746E+03 0.  0.
         24    2    5    5    0    0 -0.28990502584E+02 -0.14587909114E+03  0.90278778224E+02  0.19156759482E+03  0.80166870424E+02 0.  0.
          5    1    5    5  501    0  0.83295249342E+01  0.17223692745E+02  0.82723445002E+02  0.85037020940E+02  0.47000000000E+01 0. -1.
        -11    1    6    6    0    0  0.92367304529E+01  0.41595193227E+01  0.18091652153E+02  0.20734673088E+02  0.00000000000E+00 0.  1.
         12    1    6    6    0    0 -0.38227233037E+02 -0.15003861046E+03  0.72187126071E+02  0.17083292173E+03  0.00000000000E+00 0. -1.
         -5    1    3    3    0  503  0.14636968852E+02 -0.30878549774E+02  0.11852327828E+02  0.36473186977E+02  0.47000000000E+01 0.  1.
         11    1    4    4    0    0  0.84870349297E+01  0.13377779380E+03  0.13360526245E+02  0.13471091840E+03  0.00000000000E+00 0. -1.
        -12    1    4    4    0    0 -0.24630261324E+01  0.25756154372E+02 -0.36915080234E+02  0.45079586672E+02  0.00000000000E+00 0.  1.
</event>
<event>
12    1  0.8133506E-002  0.1860758E+03  0.7818608E-02  0.1162158E+00
         21   -1    0    0  503  502  0.00000000000E+00  0.00000000000E+00  0.10655252405E+02  0.10655252405E+02  0.00000000000E+00 0.  1.
         21   -1    0    0  501  503 -0.00000000000E+00 -0.00000000000E+00 -0.32444751075E+04  0.32444751075E+04  0.00000000000E+00 0.  1.
          6    2    1    2  501    0  0.36806685181E+02  0.59720433103E+02 -0.15681980332E+04  0.15791989306E+04  0.17234537663E+03 0.  0.
         24    2    3    3    0    0  0.74263277571E+02  0.83566406582E+02 -0.10167079521E+04  0.10259042295E+04  0.79284610279E+02 0.  0.
         -6    2    1    2    0  502 -0.36806685181E+02 -0.59720433103E+02 -0.16656218219E+04  0.16759314294E+04  0.17183957631E+03 0.  0.
        -24    2    5    5    0    0 -0.34967052407E+02  0.25104210397E+02 -0.68980643717E+03  0.69642320604E+03  0.85553755133E+02 0.  0.
          5    1    3    3  501    0 -0.37456592390E+02 -0.23845973479E+02 -0.55149008107E+03  0.55329470111E+03  0.47000000000E+01 0. -1.
        -11    1    4    4    0    0  0.53097374281E+02  0.29545463390E+02 -0.26133120150E+03  0.26830255765E+03  0.00000000000E+00 0.  1.
         12    1    4    4    0    0  0.21165903290E+02  0.54020943192E+02 -0.75537675063E+03  0.75760167183E+03  0.00000000000E+00 0. -1.
         -5    1    5    5    0  502 -0.18396327739E+01 -0.84824643500E+02 -0.97581538477E+03  0.97950822331E+03  0.47000000000E+01 0.  1.
         13    1    6    6    0    0  0.12076233422E+02  0.25664207467E+02 -0.50245877361E+03  0.50325868710E+03  0.00000000000E+00 0. -1.
        -14    1    6    6    0    0 -0.47043285829E+02 -0.55999706958E+00 -0.18734766356E+03  0.19316451895E+03  0.00000000000E+00 0.  1.
</event>
<event>
12    1  0.8133506E-002  0.2673144E+03  0.7818608E-02  0.1102945E+00
         21   -1    0    0  501  502  0.00000000000E+00  0.00000000000E+00  0.30709720038E+03  0.30709720038E+03  0.00000000000E+00 0.  1.
         21   -1    0    0  502  503 -0.00000000000E+00 -0.00000000000E+00 -0.51791293271E+03  0.51791293271E+03  0.00000000000E+00 0. -1.
         -6    2    1    2    0  503  0.94146524941E+01  0.20405957888E+03 -0.41198498698E+03  0.49110959268E+03  0.17241825632E+03 0.  0.
        -24    2    3    3    0    0 -0.28161195060E+02  0.76526873679E+02 -0.91795351255E+02  0.14438199349E+03  0.75962874024E+02 0.  0.
          6    2    1    2  501    0 -0.94146524941E+01 -0.20405957888E+03  0.20116925465E+03  0.33390054042E+03  0.17114775623E+03 0.  0.
         24    2    5    5    0    0  0.35457844915E+02 -0.16538853078E+03  0.89007436333E+02  0.20697003001E+03  0.79395495594E+02 0.  0.
          5    1    5    5  501    0 -0.44872497409E+02 -0.38671048097E+02  0.11216181831E+03  0.12693051041E+03  0.47000000000E+01 0. -1.
        -11    1    6    6    0    0 -0.15768009339E+02 -0.88473292030E+02  0.66666934583E+02  0.11189563748E+03  0.00000000000E+00 0.  1.
         12    1    6    6    0    0  0.51225854254E+02 -0.76915238753E+02  0.22340501750E+02  0.95074392530E+02  0.00000000000E+00 0. -1.
         -5    1    3    3    0  503  0.37575847554E+02  0.12753270520E+03 -0.32018963572E+03  0.34672759919E+03  0.47000000000E+01 0.  1.
         11    1    4    4    0    0 -0.28502314076E+02 -0.30854122523E+01 -0.40698427915E+02  0.49782162581E+02  0.00000000000E+00 0. -1.
        -12    1    4    4    0    0  0.34111901600E+00  0.79612285931E+02 -0.51096923340E+02  0.94599830910E+02  0.00000000000E+00 0.  1.
</event>
<event>
12    1  0.8133506E-002  0.1777885E+03  0.7818608E-02  0.1170674E+00
         21   -1    0    0  503  502  0.00000000000E+00  0.00000000000E+00  0.87423911657E+03  0.87423911657E+03  0.00000000000E+00 0. -1.
         21   -1    0    0  501  503 -0.00000000000E+00 -0.00000000000E+00 -0.62618596598E+02  0.62618596598E+02  0.00000000000E+00 0. -1.
          6    2    1    2  501    0  0.33476663932E+02  0.45654013664E+02  0.96087892369E+02  0.19956830026E+03  0.16549817950E+03 0.  0.
         24    2    3    3    0    0  0.60400628089E+02  0.78353046010E+02  0.92010425752E+02  0.15675659279E+03  0.79493869220E+02 0.  0.
         -6    2    1    2    0  502 -0.33476663932E+02 -0.45654013664E+02  0.71553262760E+03  0.73728941291E+03  0.16853415450E+03 0.  0.
        -24    2    5    5    0    0 -0.80329286345E+02 -0.58982568456E+02  0.53170662635E+03  0.54706084687E+03  0.81436454064E+02 0.  0.
          5    1    3    3  501    0 -0.26923964157E+02 -0.32699032346E+02  0.40774666167E+01  0.42811707468E+02  0.47000000000E+01 0. -1.
        -11    1    4    4    0    0  0.72667406830E+02  0.36344108851E+02  0.72297866548E+02  0.10875857562E+03  0.00000000000E+00 0.  1.
         12    1    4    4    0    0 -0.12266778741E+02  0.42008937158E+02  0.19712559204E+02  0.47998017170E+02  0.00000000000E+00 0. -1.
         -5    1    5    5    0  502  0.46852622413E+02  0.13328554792E+02  0.18382600125E+03  0.19022856604E+03  0.47000000000E+01 0.  1.
         11    1    6    6    0    0 -0.26732287316E+02 -0.40297551629E+00  0.31730888867E+03  0.31843320870E+03  0.00000000000E+00 0. -1.
        -12    1    6    6    0    0 -0.53596999029E+02 -0.58579592940E+02  0.21439773768E+03  0.22862763817E+03  0.00000000000E+00 0.  1.
</event>
<event>
12    1  0.8133506E-002  0.2424203E+03  0.7818608E-02  0.1118254E+00
         21   -1    0    0  501  502  0.00000000000E+00  0.00000000000E+00  0.12687680233E+03  0.12687680233E+03  0.00000000000E+00 0. -1.
         21   -1    0    0  502  503 -0.00000000000E+00 -0.00000000000E+00 -0.46590251558E+03  0.46590251558E+03  0.00000000000E+00 0. -1.
         -6    2    1    2    0  503  0.15605760721E+03  0.66616769881E+02 -0.14415478629E+03  0.28204292155E+03  0.17313531237E+03 0.  0.
        -24    2    3    3    0    0  0.16061775124E+03  0.29556902684E+01 -0.10512946102E+03  0.20708564049E+03  0.77623841734E+02 0.  0.
          6    2    1    2  501    0 -0.15605760721E+03 -0.66616769881E+02 -0.19487092696E+03  0.31073639636E+03  0.17259970756E+03 0.  0.
         24    2    5    5    0    0 -0.88604700207E+02 -0.94616584995E+02 -0.73767116054E+02  0.16923690051E+03  0.79977809593E+02 0.  0.
          5    1    5    5  501    0 -0.67452907002E+02  0.27999815114E+02 -0.12110381091E+03  0.14149949585E+03  0.47000000000E+01 0. -1.
        -13    1    6    6    0    0  0.12000438421E+02 -0.10200916678E+02 -0.24181187485E+02  0.28858257943E+02  0.00000000000E+00 0.  1.
         14    1    6    6    0    0 -0.10060513863E+03 -0.84415668317E+02 -0.49585928569E+02  0.14037864256E+03  0.00000000000E+00 0. -1.
         -5    1    3    3    0  503 -0.45601440352E+01  0.63661079612E+02 -0.39025325276E+02  0.74957281060E+02  0.47000000000E+01 0.  1.
         13    1    4    4    0    0  0.84536253052E+02  0.39491347501E+02 -0.64401236327E+02  0.11337311784E+03  0.00000000000E+00 0. -1.
        -14    1    4    4    0    0  0.76081498192E+02 -0.36535657232E+02 -0.40728224691E+02  0.93712522658E+02  0.00000000000E+00 0.  1.
</event>
<event>
12    1  0.8133506E-002  0.1723115E+03  0.7818608E-02  0.1176346E+00
         21   -1    0    0  501  502  0.00000000000E+00  0.00000000000E+00  0.31602497439E+03  0.31602497439E+03  0.00000000000E+00 0.  1.
         21   -1    0    0  502  503 -0.00000000000E+00 -0.00000000000E+00 -0.10355450239E+03  0.10355450239E+03  0.00000000000E+00 0.  1.
         -6    2    1    2    0  503 -0.94034951689E+01 -0.33813630103E+01  0.37389916650E+02  0.17632147375E+03  0.17202150128E+03 0.  0.
        -24    2    3    3    0    0  0.43043681288E+02  0.33015587520E+02  0.53690886706E+02  0.11026652730E+03  0.79581456442E+02 0.  0.
          6    2    1    2  501    0  0.94034951689E+01  0.33813630103E+01  0.17508055535E+03  0.24325800302E+03  0.16858646397E+03 0.  0.
         24    2    5    5    0    0  0.70207035954E+02  0.40104494483E+01  0.12888982609E+03  0.16675218761E+03  0.79048043627E+02 0.  0.
          5    1    5    5  501    0 -0.60803540785E+02 -0.62908643802E+00  0.46190729262E+02  0.76505815409E+02  0.47000000000E+01 0. -1.
        -11    1    6    6    0    0  0.46594462309E+02  0.38620883366E+02  0.96013314136E+02  0.11349525559E+03  0.00000000000E+00 0.  1.
         12    1    6    6    0    0  0.23612573645E+02 -0.34610433918E+02  0.32876511957E+02  0.53256932024E+02  0.00000000000E+00 0. -1.
         -5    1    3    3    0  503 -0.52447176457E+02 -0.36396950531E+02 -0.16300970057E+02  0.66054946454E+02  0.47000000000E+01 0.  1.
         11    1    4    4    0    0  0.44017456890E+02  0.39411505712E+02  0.29943507301E+01  0.59158849126E+02  0.00000000000E+00 0. -1.
        -12    1    4    4    0    0 -0.97377560207E+00 -0.63959181918E+01  0.50696535976E+02  0.51107678175E+02  0.00000000000E+00 0.  1.
</event>
<event>
12    1  0.8133506E-002  0.1844634E+03  0.7818608E-02  0.1164691E+00
         21   -1    0    0  503  502  0.00000000000E+00  0.00000000000E+00  0.44608341039E+03  0.44608341039E+03  0.00000000000E+00 0. -1.
         21   -1    0    0  501  503 -0.00000000000E+00 -0.00000000000E+00 -0.10454029564E+03  0.10454029564E+03  0.00000000000E+00 0. -1.
          6    2    1    2  501    0 -0.88781231224E+01 -0.22293531128E+02  0.24328628911E+02  0.18606080126E+03  0.18289591844E+03 0.  0.
         24    2    3    3    0    0  0.40309901012E+02 -0.68782496320E+02  0.34302617299E+02  0.11748780332E+03  0.79188347977E+02 0.  0.
         -6    2    1    2    0  502  0.88781231224E+01  0.22293531128E+02  0.31721448584E+03  0.36456290477E+03  0.17805970601E+03 0.  0.
        -24    2    5    5    0    0 -0.19337354564E+02 -0.87278469780E+01  0.31111805347E+03  0.32192846366E+03  0.79958638851E+02 0.  0.
          5    1    3    3  501    0 -0.49188024135E+02  0.46488965192E+02 -0.99739883874E+01  0.68572997945E+02  0.47000000000E+01 0. -1.
        -13    1    4    4    0    0 -0.81569042617E+01 -0.51079917782E+02 -0.59189806550E+01  0.52064646544E+02  0.00000000000E+00 0.  1.
         14    1    4    4    0    0  0.48466805274E+02 -0.17702578538E+02  0.40221597954E+02  0.65423156774E+02  0.00000000000E+00 0. -1.
         -5    1    5    5    0  502  0.28215477686E+02  0.31021378106E+02  0.60964323700E+01  0.42634441105E+02  0.47000000000E+01 0.  1.
         13    1    6    6    0    0  0.88626635004E+01  0.28419223797E+02  0.18665941347E+03  0.18901834758E+03  0.00000000000E+00 0. -1.
        -14    1    6    6    0    0 -0.28200018064E+02 -0.37147070775E+02  0.12445864000E+03  0.13291011608E+03  0.00000000000E+00 0.  1.
</event>
<event>
12    1  0.8133506E-002  0.1947078E+03  0.7818608E-02  0.1154631E+00
         21   -1    0    0  501  502  0.00000000000E+00  0.00000000000E+00  0.57754378020E+03  0.57754378020E+03  0.00000000000E+00 0. -1.
         21   -1    0    0  502  503 -0.00000000000E+00 -0.00000000000E+00 -0.10039168621E+03  0.10039168621E+03  0.00000000000E+00 0.  1.
         -6    2    1    2    0  503 -0.78187893989E+02  0.43839571978E+02  0.36985183668E+02  0.19662679507E+03  0.17105244193E+03 0.  0.
        -24    2    3    3    0    0 -0.11677683636E+03  0.11717678341E+02  0.30022298752E+02  0.14572007360E+03  0.80986838003E+02 0.  0.
          6    2    1    2  501    0  0.78187893989E+02 -0.43839571978E+02  0.44016691033E+03  0.48130867134E+03  0.17284638649E+03 0.  0.
         24    2    5    5    0    0 -0.87197170327E+01 -0.73927125007E+02  0.28730421405E+03  0.30285058771E+03  0.60278634579E+02 0.  0.
          5    1    5    5  501    0  0.86907611022E+02  0.30087553029E+02  0.15286269628E+03  0.17845808363E+03  0.47000000000E+01 0. -1.
        -11    1    6    6    0    0 -0.15773428991E+02 -0.14828811173E+01  0.18454670785E+02  0.24322312233E+02  0.00000000000E+00 0.  1.
         12    1    6    6    0    0  0.70537119584E+01 -0.72444243889E+02  0.26884954326E+03  0.27852827547E+03  0.00000000000E+00 0. -1.
         -5    1    3    3    0  503  0.38588942374E+02  0.32121893637E+02  0.69628849158E+01  0.50906721469E+02  0.47000000000E+01 0.  1.
         13    1    4    4    0    0 -0.41639990791E+01  0.37175651012E+01  0.32321538675E+02  0.32800015868E+02  0.00000000000E+00 0. -1.
        -14    1    4    4    0    0 -0.11261283728E+03  0.80001132394E+01 -0.22992399230E+01  0.11292005773E+03  0.00000000000E+00 0.  1.
</event>
<event>
12    1  0.8133506E-002  0.2984669E+03  0.7818608E-02  0.1086431E+00
         21   -1    0    0  503  502  0.00000000000E+00  0.00000000000E+00  0.11371795167E+04  0.11371795167E+04  0.00000000000E+00 0. -1.
         21   -1    0    0  501  503 -0.00000000000E+00 -0.00000000000E+00 -0.91581930637E+02  0.91581930637E+02  0.00000000000E+00 0.  1.
          6    2    1    2  501    0 -0.26996203844E+02  0.24214842532E+03  0.76650363495E+03  0.82256324405E+03  0.17238855288E+03 0.  0.
         24    2    3    3    0    0 -0.79805624868E+02  0.12615044766E+03  0.49345469114E+03  0.52119605691E+03  0.76582793915E+02 0.  0.
         -6    2    1    2    0  502  0.26996203844E+02 -0.24214842532E+03  0.27909395111E+03  0.40619820329E+03  0.16654996817E+03 0.  0.
        -24    2    5    5    0    0 -0.15408230557E+02 -0.23886289446E+03  0.23738274954E+03  0.34644165463E+03  0.79864600220E+02 0.  0.
          5    1    3    3  501    0  0.52809421023E+02  0.11599797766E+03  0.27304894380E+03  0.30136718714E+03  0.47000000000E+01 0. -1.
        -13    1    4    4    0    0 -0.25825276136E+02 -0.39701055558E+01  0.96968663466E+02  0.10042722898E+03  0.00000000000E+00 0.  1.
         14    1    4    4    0    0 -0.53980348732E+02  0.13012055322E+03  0.39648602768E+03  0.42076882793E+03  0.00000000000E+00 0. -1.
         -5    1    5    5    0  502  0.42404434402E+02 -0.32855308577E+01  0.41711201577E+02  0.59756548653E+02  0.47000000000E+01 0.  1.
         11    1    6    6    0    0 -0.14214144401E+02 -0.45246530570E+01  0.34269543008E+01  0.15305502348E+02  0.00000000000E+00 0. -1.
        -12    1    6    6    0    0 -0.11940861564E+01 -0.23433824140E+03  0.23395579524E+03  0.33113615229E+03  0.00000000000E+00 0.  1.
</event>
<event>
12    1  0.8133506E-002  0.1780876E+03  0.7818608E-02  0.1169826E+00
         21   -1    0    0  503  502  0.00000000000E+00  0.00000000000E+00  0.79642900529E+02  0.79642900529E+02  0.00000000000E+00 0.  1.
         21   -1    0    0  501  503 -0.00000000000E+00 -0.00000000000E+00 -0.76309321974E+03  0.76309321974E+03  0.00000000000E+00 0.  1.
          6    2    1    2  501    0 -0.17692565764E+02  0.40861673747E+02 -0.63399721255E+03  0.65853446757E+03  0.17243107665E+03 0.  0.
         24    2    3    3    0    0  0.38517347610E+02  0.19607075844E+02 -0.53324959902E+03  0.54113138445E+03  0.81240488035E+02 0.  0.
         -6    2    1    2    0  502  0.17692565764E+02 -0.40861673747E+02 -0.49453106661E+02  0.18420165270E+03  0.17176127571E+03 0.  0.
        -24    2    5    5    0    0 -0.12656794379E+02 -0.58461562447E+02  0.24187524160E+02  0.10249564159E+03  0.79639007355E+02 0.  0.
          5    1    3    3  501    0 -0.56209913374E+02  0.21254597903E+02 -0.10074761353E+03  0.11740308312E+03  0.47000000000E+01 0. -1.
        -13    1    4    4    0    0  0.28480958291E+02 -0.23194478876E+02 -0.11859548841E+03  0.12415328713E+03  0.00000000000E+00 0.  1.
         14    1    4    4    0    0  0.10036389319E+02  0.42801554720E+02 -0.41465411061E+03  0.41697809732E+03  0.00000000000E+00 0. -1.
         -5    1    5    5    0  502  0.30349360143E+02  0.17599888700E+02 -0.73640630821E+02  0.81706011107E+02  0.47000000000E+01 0.  1.
         13    1    6    6    0    0 -0.13476355263E+02 -0.62329831300E+01 -0.26074610333E+02  0.30005791672E+02  0.00000000000E+00 0. -1.
        -14    1    6    6    0    0  0.81956088432E+00 -0.52228579317E+02  0.50262134492E+02  0.72489849919E+02  0.00000000000E+00 0.  1.
</event>
<event>
12    1  0.8133506E-002  0.2201311E+03  0.7818608E-02  0.1133797E+00
         21   -1    0    0  503  502  0.00000000000E+00  0.00000000000E+00  0.20616220729E+03  0.20616220729E+03  0.00000000000E+00 0. -1.
         21   -1    0    0  501  503 -0.00000000000E+00 -0.00000000000E+00 -0.26601461797E+03  0.26601461797E+03  0.00000000000E+00 0. -1.
          6    2    1    2  501    0 -0.38140315566E+02 -0.13207483385E+03 -0.11057248083E+03  0.24634115644E+03  0.17192802690E+03 0.  0.
         24    2    3    3    0    0 -0.16063944753E+02 -0.12903372558E+03 -0.21054649112E+02  0.15397153653E+03  0.79725674376E+02 0.  0.
         -6    2    1    2    0  502  0.38140315566E+02  0.13207483385E+03  0.50720070144E+02  0.22583566882E+03  0.17184521636E+03 0.  0.
        -24    2    5    5    0    0  0.52598844364E+02  0.10538111664E+03 -0.22809313051E+02  0.14614712644E+03  0.83467955713E+02 0.  0.
          5    1    3    3  501    0 -0.22076370813E+02 -0.30411082773E+01 -0.89517831717E+02  0.92369619915E+02  0.47000000000E+01 0. -1.
        -13    1    4    4    0    0  0.31775478326E+02 -0.49596853597E+02 -0.16315870495E+02  0.61120671950E+02  0.00000000000E+00 0.  1.
         14    1    4    4    0    0 -0.47839423079E+02 -0.79436871979E+02 -0.47387786169E+01  0.92850864579E+02  0.00000000000E+00 0. -1.
         -5    1    5    5    0  502 -0.14458528797E+02  0.26693717210E+02  0.73529383194E+02  0.79688542379E+02  0.47000000000E+01 0.  1.
         13    1    6    6    0    0  0.19491521932E+02  0.10150032388E+03  0.39060405169E+01  0.10342868233E+03  0.00000000000E+00 0. -1.
        -14    1    6    6    0    0  0.33107322431E+02  0.38807927618E+01 -0.26715353568E+02  0.42718444111E+02  0.00000000000E+00 0.  1.
</event>
<event>
12    1  0.8133506E-002  0.1733296E+03  0.7818608E-02  0.1174451E+00
         21   -1    0    0  503  502  0.00000000000E+00  0.00000000000E+00  0.68399624988E+03  0.68399624988E+03  0.00000000000E+00 0.  1.
         21   -1    0    0  501  503 -0.00000000000E+00 -0.00000000000E+00 -0.17423152597E+03  0.17423152597E+03  0.00000000000E+00 0.  1.
          6    2    1    2  501    0 -0.17876496710E+02 -0.72456494184E+00 -0.11628996754E+03  0.20862202901E+03  0.17227797395E+03 0.  0.
         24    2    3    3    0    0 -0.14101632614E+02  0.61116885517E+02 -0.85768773920E+02  0.13939596561E+03  0.90226508912E+02 0.  0.
         -6    2    1    2    0  502  0.17876496710E+02  0.72456494184E+00  0.62605469144E+03  0.64960574684E+03  0.17240375727E+03 0.  0.
        -24    2    5    5    0    0 -0.51025301095E+02 -0.15020843787E+02  0.27123148477E+03  0.28778124016E+03  0.80139358370E+02 0.  0.
          5    1    3    3  501    0 -0.37748640958E+01 -0.61841450458E+02 -0.30521193623E+02  0.69226063400E+02  0.47000000000E+01 0. -1.
        -11    1    4    4    0    0  0.28196440854E+02 -0.70654019300E+01 -0.29355513973E+02  0.41312290930E+02  0.00000000000E+00 0.  1.
         12    1    4    4    0    0 -0.42298073468E+02  0.68182287447E+02 -0.56413259948E+02  0.98083674679E+02  0.00000000000E+00 0. -1.
         -5    1    5    5    0  502  0.68901797805E+02  0.15745408728E+02  0.35482320667E+03  0.36182450668E+03  0.47000000000E+01 0.  1.
         11    1    6    6    0    0 -0.29124262064E+01  0.20911149928E+02  0.18685122824E+02  0.28193833239E+02  0.00000000000E+00 0. -1.
        -12    1    6    6    0    0 -0.48112874889E+02 -0.35931993715E+02  0.25254636195E+03  0.25958740693E+03  0.00000000000E+00 0.  1.
</event>
<event>
12    1  0.8133506E-002  0.1761738E+03  0.7818608E-02  0.1171733E+00
         21   -1    0    0  501  502  0.00000000000E+00  0.00000000000E+00  0.31370592113E+02  0.31370592113E+02  0.00000000000E+00 0.  1.
         21   -1    0    0  502  503 -0.00000000000E+00 -0.00000000000E+00 -0.13846705989E+04  0.13846705989E+04  0.00000000000E+00 0.  1.
         -6    2    1    2    0  503  0.30013280478E+02  0.95282453411E+01 -0.10577875328E+04  0.10723579944E+04  0.17333672158E+03 0.  0.
        -24    2    3    3    0    0  0.20887409792E+02  0.69351104990E+02 -0.53962711715E+03  0.55065466640E+03  0.82324215243E+02 0.  0.
          6    2    1    2  501    0 -0.30013280478E+02 -0.95282453411E+01 -0.29551247400E+03  0.34368319667E+03  0.17262367427E+03 0.  0.
         24    2    5    5    0    0  0.14966634064E+02 -0.54663554443E+02 -0.11489086726E+03  0.15209341703E+03  0.81977995860E+02 0.  0.
          5    1    5    5  501    0 -0.44979914542E+02  0.45135309102E+02 -0.18062160674E+03  0.19158977964E+03  0.47000000000E+01 0. -1.
        -11    1    6    6    0    0  0.42251810520E+01  0.11587368851E+00  0.12399758956E+02  0.13100366553E+02  0.00000000000E+00 0.  1.
         12    1    6    6    0    0  0.10741453012E+02 -0.54779428132E+02 -0.12729062621E+03  0.13899305048E+03  0.00000000000E+00 0. -1.
         -5    1    3    3    0  503  0.91258706855E+01 -0.59822859649E+02 -0.51816041564E+03  0.52170332795E+03  0.47000000000E+01 0.  1.
         13    1    4    4    0    0 -0.64698312672E+01 -0.13895277618E+02 -0.31545297555E+02  0.35071972492E+02  0.00000000000E+00 0. -1.
        -14    1    4    4    0    0  0.27357241060E+02  0.83246382607E+02 -0.50808181960E+03  0.51558269391E+03  0.00000000000E+00 0.  1.
</event>
<event>
12    1  0.8133506E-002  0.1936330E+03  0.7818608E-02  0.1155506E+00
         21   -1    0    0  503  502  0.00000000000E+00  0.00000000000E+00  0.40299801051E+02  0.40299801051E+02  0.00000000000E+00 0. -1.
         21   -1    0    0  501  503 -0.00000000000E+00 -0.00000000000E+00 -0.10437010438E+04  0.10437010438E+04  0.00000000000E+00 0. -1.
          6    2    1    2  501    0 -0.55154452158E+02  0.67463802636E+02 -0.68358823784E+03  0.71013712337E+03  0.17148899911E+03 0.  0.
         24    2    3    3    0    0 -0.51335048248E+02 -0.14518365552E+02 -0.49349792915E+03  0.50303309346E+03  0.81584415932E+02 0.  0.
         -6    2    1    2    0  502  0.55154452158E+02 -0.67463802636E+02 -0.31981300487E+03  0.37386372144E+03  0.17291716476E+03 0.  0.
        -24    2    5    5    0    0 -0.14512381756E+02 -0.84114344257E+02 -0.15801032929E+03  0.19685269323E+03  0.80609469269E+02 0.  0.
          5    1    3    3  501    0 -0.38194039102E+01  0.81982168188E+02 -0.19009030869E+03  0.20710402991E+03  0.47000000000E+01 0. -1.
        -13    1    4    4    0    0 -0.15167388956E+01 -0.25120944196E+02 -0.34741422450E+03  0.34832456951E+03  0.00000000000E+00 0.  1.
         14    1    4    4    0    0 -0.49818309352E+02  0.10602578644E+02 -0.14608370465E+03  0.15470852396E+03  0.00000000000E+00 0. -1.
         -5    1    5    5    0  502  0.69666833914E+02  0.16650541621E+02 -0.16180267558E+03  0.17701102821E+03  0.47000000000E+01 0.  1.
         11    1    6    6    0    0 -0.29203020447E+02 -0.56602123101E+02 -0.15238604284E+03  0.16516089971E+03  0.00000000000E+00 0. -1.
        -12    1    6    6    0    0  0.14690638691E+02 -0.27512221156E+02 -0.56242864498E+01  0.31691793514E+02  0.00000000000E+00 0.  1.
</event>
<event>
12    1  0.8133506E-002  0.2293882E+03  0.7818608E-02  0.1127961E+00
         21   -1    0    0  501  502  0.00000000000E+00  0.00000000000E+00  0.10574528323E+04  0.10574528323E+04  0.00000000000E+00 0.  1.
         21   -1    0    0  502  503 -0.00000000000E+00 -0.00000000000E+00 -0.48695374928E+02  0.48695374928E+02  0.00000000000E+00 0. -1.
         -6    2    1    2    0  503  0.83032498440E+02  0.12759244736E+03  0.51787404127E+03  0.56640309769E+03  0.17159463287E+03 0.  0.
        -24    2    3    3    0    0  0.37884128481E+02  0.12396025349E+03  0.48995160631E+03  0.51298661600E+03  0.79380980264E+02 0.  0.
          6    2    1    2  501    0 -0.83032498440E+02 -0.12759244736E+03  0.49088341607E+03  0.53974510950E+03  0.16487579156E+03 0.  0.
         24    2    5    5    0    0 -0.45991019224E+02 -0.23940354329E+02  0.33768563252E+03  0.35104567003E+03  0.80704161144E+02 0.  0.
          5    1    5    5  501    0 -0.37041479216E+02 -0.10365209303E+03  0.15319778355E+03  0.18869943947E+03  0.47000000000E+01 0. -1.
        -11    1    6    6    0    0 -0.53768783628E+02  0.86637685543E+01  0.13440611467E+03  0.14502119375E+03  0.00000000000E+00 0.  1.
         12    1    6    6    0    0  0.77777644041E+01 -0.32604122884E+02  0.20327951785E+03  0.20602447628E+03  0.00000000000E+00 0. -1.
         -5    1    3    3    0  503  0.45148369958E+02  0.36321938635E+01  0.27922434953E+02  0.53416481687E+02  0.47000000000E+01 0.  1.
         13    1    4    4    0    0  0.10984079811E+02  0.11473589130E+03  0.30866304971E+03  0.32948118766E+03  0.00000000000E+00 0. -1.
        -14    1    4    4    0    0  0.26900048670E+02  0.92243621911E+01  0.18128855660E+03  0.18350542834E+03  0.00000000000E+00 0.  1.
</event>
<event>
12    1  0.8133506E-002  0.2101453E+03  0.7818608E-02  0.1141498E+00
         21   -1    0    0  501  502  0.00000000000E+00  0.00000000000E+00  0.13522984612E+03  0.13522984612E+03  0.00000000000E+00 0. -1.
         21   -1    0    0  502  503 -0.00000000000E+00 -0.00000000000E+00 -0.36538870291E+03  0.36538870291E+03  0.00000000000E+00 0. -1.
         -6    2    1    2    0  503 -0.10713699411E+03  0.55631165287E+02 -0.19711402056E+03  0.28812320533E+03  0.17201128534E+03 0.  0.
        -24    2    3    3    0    0 -0.49957278381E+02  0.92583981575E+02 -0.16810974682E+03  0.21397222139E+03  0.80347378584E+02 0.  0.
          6    2    1    2  501    0  0.10713699411E+03 -0.55631165287E+02 -0.33044836220E+02  0.21249534370E+03  0.17172404560E+03 0.  0.
         24    2    5    5    0    0  0.54743305918E+02 -0.40183980676E+02  0.48594965329E+02  0.11415480643E+03  0.77834872192E+02 0.  0.
          5    1    5    5  501    0  0.52393688192E+02 -0.15447184611E+02 -0.81639801550E+02  0.98340537277E+02  0.47000000000E+01 0. -1.
        -11    1    6    6    0    0  0.31899278783E+02  0.18449900327E+02  0.40824779665E+01  0.37075995405E+02  0.00000000000E+00 0.  1.
         12    1    6    6    0    0  0.22844027136E+02 -0.58633881003E+02  0.44512487363E+02  0.77078811021E+02  0.00000000000E+00 0. -1.
         -5    1    3    3    0  503 -0.57179715730E+02 -0.36952816288E+02 -0.29004273745E+02  0.74150983932E+02  0.47000000000E+01 0.  1.
         13    1    4    4    0    0 -0.20638759751E+02  0.52972263274E+01 -0.92220994957E+02  0.94650572749E+02  0.00000000000E+00 0. -1.
        -14    1    4    4    0    0 -0.29318518630E+02  0.87286755247E+02 -0.75888751862E+02  0.11932164865E+03  0.00000000000E+00 0.  1.
</event>
<event>
12    1  0.8133506E-002  0.1876943E+03  0.7818608E-02  0.1160733E+00
         21   -1    0    0  503  502  0.00000000000E+00  0.00000000000E+00  0.14285210455E+03  0.14285210455E+03  0.00000000000E+00 0.  1.
         21   -1    0    0  501  503 -0.00000000000E+00 -0.00000000000E+00 -0.24610701529E+03  0.24610701529E+03  0.00000000000E+00 0.  1.
          6    2    1    2  501    0  0.33975656699E+02  0.66824535791E+02 -0.60289554303E+02  0.19640994145E+03  0.17123717736E+03 0.  0.
         24    2    3    3    0    0 -0.15030650878E+02  0.33887800175E+02 -0.93805809765E+02  0.12835205347E+03  0.79375161217E+02 0.  0.
         -6    2    1    2    0  502 -0.33975656699E+02 -0.66824535791E+02 -0.42965356443E+02  0.19254917840E+03  0.17207353200E+03 0.  0.
        -24    2    5    5    0    0 -0.80785503873E+02 -0.14131623482E+02 -0.23269367213E+02  0.11921619270E+03  0.83336886984E+02 0.  0.
          5    1    3    3  501    0  0.49006307577E+02  0.32936735617E+02  0.33516255463E+02  0.68057887975E+02  0.47000000000E+01 0. -1.
        -13    1    4    4    0    0 -0.13598475992E+02 -0.80111453996E+01  0.84022884437E+01  0.17880029391E+02  0.00000000000E+00 0.  1.
         14    1    4    4    0    0 -0.14321748861E+01  0.41898945574E+02 -0.10220809821E+03  0.11047202408E+03  0.00000000000E+00 0. -1.
         -5    1    5    5    0  502  0.46809847173E+02 -0.52692912310E+02 -0.19695989230E+02  0.73332985701E+02  0.47000000000E+01 0.  1.
         13    1    6    6    0    0 -0.36848330159E+02 -0.46268478367E+02 -0.26221631000E+02  0.64700428578E+02  0.00000000000E+00 0. -1.
        -14    1    6    6    0    0 -0.43937173714E+02  0.32136854885E+02  0.29522637870E+01  0.54515764118E+02  0.00000000000E+00 0.  1.
</event>
<event>
12    1  0.8133506E-002  0.1893700E+03  0.7818608E-02  0.1159415E+00
         21   -1    0    0  503  502  0.00000000000E+00  0.00000000000E+00  0.56861292976E+03  0.56861292976E+03  0.00000000000E+00 0.  1.
         21   -1    0    0  501  503 -0.00000000000E+00 -0.00000000000E+00 -0.28375541707E+03  0.28375541707E+03  0.00000000000E+00 0.  1.
          6    2    1    2  501    0  0.64419023504E+02 -0.35995440739E+02 -0.23403849947E+03  0.29999702207E+03  0.17256509401E+03 0.  0.
         24    2    3    3    0    0  0.86205117711E+02 -0.15041115444E+02 -0.79223894017E+02  0.14218900671E+03  0.79269986581E+02 0.  0.
         -6    2    1    2    0  502 -0.64419023504E+02  0.35995440739E+02  0.51889601216E+03  0.55237132476E+03  0.17440047774E+03 0.  0.
        -24    2    5    5    0    0 -0.58658552470E+02 -0.18251286893E+02  0.46107479872E+03  0.47273921309E+03  0.84370956648E+02 0.  0.
          5    1    3    3  501    0 -0.21786094206E+02 -0.20954325295E+02 -0.15481460545E+03  0.15780801536E+03  0.47000000000E+01 0. -1.
        -11    1    4    4    0    0  0.76769283611E+02 -0.25189953105E+02 -0.92624386775E+02  0.12291189393E+03  0.00000000000E+00 0.  1.
         12    1    4    4    0    0  0.94358340991E+01  0.10148837661E+02  0.13400492758E+02  0.19277112781E+02  0.00000000000E+00 0. -1.
         -5    1    5    5    0  502 -0.57604710343E+01  0.54246727631E+02  0.57821213440E+02  0.79632111670E+02  0.47000000000E+01 0.  1.
         13    1    6    6    0    0 -0.86716793195E+01 -0.40124855391E+02  0.29714712605E+03  0.29996935937E+03  0.00000000000E+00 0. -1.
        -14    1    6    6    0    0 -0.49986873151E+02  0.21873568498E+02  0.16392767268E+03  0.17276985372E+03  0.00000000000E+00 0.  1.
</event>
<event>
12    1  0.8133506E-002  0.1878331E+03  0.7818608E-02  0.1160439E+00
         21   -1    0    0  503  502  0.00000000000E+00  0.00000000000E+00  0.19850508499E+03  0.19850508499E+03  0.00000000000E+00 0.  1.
         21   -1    0    0  501  503 -0.00000000000E+00 -0.00000000000E+00 -0.24825503281E+03  0.24825503281E+03  0.00000000000E+00 0.  1.
          6    2    1    2  501    0 -0.48117716075E+02  0.51194270603E+02 -0.14396054209E+03  0.23662465292E+03  0.17415631124E+03 0.  0.
         24    2    3    3    0    0  0.15845118298E+02 -0.16750314092E+01 -0.99380719045E+01  0.78920753818E+02  0.76654071033E+02 0.  0.
         -6    2    1    2    0  502  0.48117716075E+02 -0.51194270603E+02  0.94210594274E+02  0.21013546489E+03  0.17419847757E+03 0.  0.
        -24    2    5    5    0    0 -0.16284532265E+02 -0.33230255602E+01  0.44942876209E+01  0.89676295987E+02  0.88008016401E+02 0.  0.
          5    1    3    3  501    0 -0.63962834373E+02  0.52869302012E+02 -0.13402247019E+03  0.15770389910E+03  0.47000000000E+01 0. -1.
        -11    1    4    4    0    0  0.16041642049E+02  0.35262252641E+02 -0.15190373870E+02  0.41611395065E+02  0.00000000000E+00 0.  1.
         12    1    4    4    0    0 -0.19652375048E+00 -0.36937284050E+02  0.52523019659E+01  0.37309358753E+02  0.00000000000E+00 0. -1.
         -5    1    5    5    0  502  0.64402248340E+02 -0.47871245043E+02  0.89716306653E+02  0.12045916890E+03  0.47000000000E+01 0.  1.
         13    1    6    6    0    0 -0.29199031385E+02 -0.18875422057E+02 -0.32452412589E+02  0.47560740895E+02  0.00000000000E+00 0. -1.
        -14    1    6    6    0    0  0.12914499120E+02  0.15552396497E+02  0.36946700210E+02  0.42115555092E+02  0.00000000000E+00 0.  1.
</event>
<event>
12    1  0.8133506E-002  0.2937071E+03  0.7818608E-02  0.1088827E+00
         21   -1    0    0  501  502  0.00000000000E+00  0.00000000000E+00  0.64834280020E+02  0.64834280020E+02  0.00000000000E+00 0.  1.
         21   -1    0    0  502  503 -0.00000000000E+00 -0.00000000000E+00 -0.13567242483E+04  0.13567242483E+04  0.00000000000E+00 0.  1.
         -6    2    1    2    0  503  0.22627520937E+03  0.72593482357E+02 -0.76484349745E+03  0.81819974223E+03  0.16731694039E+03 0.  0.
        -24    2    3    3    0    0  0.13600389976E+03  0.30101786018E+02 -0.63485947373E+03  0.65427173969E+03  0.74978528220E+02 0.  0.
          6    2    1    2  501    0 -0.22627520937E+03 -0.72593482357E+02 -0.52704647087E+03  0.60335878612E+03  0.17260810608E+03 0.  0.
         24    2    5    5    0    0 -0.14888245594E+03  0.42340861140E+00 -0.41859087171E+03  0.45135282690E+03  0.79592031715E+02 0.  0.
          5    1    5    5  501    0 -0.77392753433E+02 -0.73016890969E+02 -0.10845559916E+03  0.15200595922E+03  0.47000000000E+01 0. -1.
        -11    1    6    6    0    0 -0.80082171727E+02  0.15891528510E+01 -0.32773398612E+03  0.33737997169E+03  0.00000000000E+00 0.  1.
         12    1    6    6    0    0 -0.68800284213E+02 -0.11657442396E+01 -0.90856885584E+02  0.11397285521E+03  0.00000000000E+00 0. -1.
         -5    1    3    3    0  503  0.90271309611E+02  0.42491696340E+02 -0.12998402372E+03  0.16392800255E+03  0.47000000000E+01 0.  1.
         13    1    4    4    0    0  0.74265103623E+02 -0.14909584176E+01 -0.46342952283E+03  0.46934470403E+03  0.00000000000E+00 0. -1.
        -14    1    4    4    0    0  0.61738796138E+02  0.31592744435E+02 -0.17142995090E+03  0.18492703565E+03  0.00000000000E+00 0.  1.
</event>
<event>
12    1  0.8133506E-002  0.1961244E+03  0.7818608E-02  0.1153242E+00
         21   -1    0    0  503  502  0.00000000000E+00  0.00000000000E+00  0.47890811747E+03  0.47890811747E+03  0.00000000000E+00 0.  1.
         21   -1    0    0  501  503 -0.00000000000E+00 -0.00000000000E+00 -0.87019282469E+02  0.87019282469E+02  0.00000000000E+00 0.  1.
          6    2    1    2  501    0  0.82603347210E+01 -0.92502681177E+02  0.11573998571E+03  0.22772903683E+03  0.17274197743E+03 0.  0.
         24    2    3    3    0    0 -0.28109821318E+02 -0.10577530439E+03  0.12917959704E+03  0.18647780739E+03  0.78153869279E+02 0.  0.
         -6    2    1    2    0  502 -0.82603347210E+01  0.92502681177E+02  0.27614884929E+03  0.33819836311E+03  0.17174098722E+03 0.  0.
        -24    2    5    5    0    0 -0.37218217693E+02  0.12054889231E+03  0.24511357676E+03  0.28710602429E+03  0.80199579237E+02 0.  0.
          5    1    3    3  501    0  0.36370156039E+02  0.13272623217E+02 -0.13439611331E+02  0.41251229437E+02  0.47000000000E+01 0. -1.
        -11    1    4    4    0    0 -0.19933850416E+02 -0.70865309347E+02  0.27369628654E+02  0.78538825009E+02  0.00000000000E+00 0.  1.
         12    1    4    4    0    0 -0.81759709020E+01 -0.34909995047E+02  0.10180996839E+03  0.10793898238E+03  0.00000000000E+00 0. -1.
         -5    1    5    5    0  502  0.28957882972E+02 -0.28046211128E+02  0.31035272533E+02  0.51092338819E+02  0.47000000000E+01 0.  1.
         13    1    6    6    0    0  0.30700328321E+01 -0.66324704798E+01  0.51280973230E+02  0.51799160048E+02  0.00000000000E+00 0. -1.
        -14    1    6    6    0    0 -0.40288250525E+02  0.12718136278E+03  0.19383260353E+03  0.23530686425E+03  0.00000000000E+00 0.  1.
</event>
<event>
12    1  0.8133506E-002  0.2046833E+03  0.7818608E-02  0.1146417E+00
         21   -1    0    0  501  502  0.00000000000E+00  0.00000000000E+00  0.76776793066E+02  0.76776793066E+02  0.00000000000E+00 0.  1.
         21   -1    0    0  502  503 -0.00000000000E+00 -0.00000000000E+00 -0.97735778704E+03  0.97735778704E+03  0.00000000000E+00 0.  1.
         -6    2    1    2    0  503 -0.83837788918E+02 -0.51826147400E+02 -0.80522861266E+03  0.83083593845E+03  0.17938927942E+03 0.  0.
        -24    2    3    3    0    0 -0.82949657029E+02 -0.10092584012E+03 -0.65018758707E+03  0.66813566734E+03  0.81207763083E+02 0.  0.
          6    2    1    2  501    0  0.83837788918E+02  0.51826147400E+02 -0.95352381320E+02  0.22329864166E+03  0.17622565744E+03 0.  0.
         24    2    5    5    0    0  0.56827208504E+02 -0.24854972799E+02 -0.98059831725E+02  0.14181866905E+03  0.81545711068E+02 0.  0.
          5    1    5    5  501    0  0.27010580413E+02  0.76681120199E+02  0.27074504047E+01  0.81479972613E+02  0.47000000000E+01 0. -1.
        -11    1    6    6    0    0  0.40138777687E+02 -0.26596461143E+02 -0.63278467713E+01  0.48564749194E+02  0.00000000000E+00 0.  1.
         12    1    6    6    0    0  0.16688430817E+02  0.17414883431E+01 -0.91731984953E+02  0.93253919855E+02  0.00000000000E+00 0. -1.
         -5    1    3    3    0  503 -0.88813188902E+00  0.49099692724E+02 -0.15504102558E+03  0.16270027111E+03  0.47000000000E+01 0.  1.
         13    1    4    4    0    0 -0.81939740532E+01 -0.15466469049E+02 -0.15523147618E+02  0.23394892340E+02  0.00000000000E+00 0. -1.
        -14    1    4    4    0    0 -0.74755682975E+02 -0.85459371075E+02 -0.63466443946E+03  0.64474077500E+03  0.00000000000E+00 0.  1.
</event>
<event>
12    1  0.8133506E-002  0.2682614E+03  0.7818608E-02  0.1102507E+00
         21   -1    0    0  501  502  0.00000000000E+00  0.00000000000E+00  0.69315440645E+03  0.69315440645E+03  0.00000000000E+00 0.  1.
         21   -1    0    0  502  503 -0.00000000000E+00 -0.00000000000E+00 -0.12415034446E+03  0.12415034446E+03  0.00000000000E+00 0.  1.
         -6    2    1    2    0  503  0.15640993184E+03  0.13286486878E+03  0.11598054546E+03  0.29081214676E+03  0.17030289969E+03 0.  0.
        -24    2    3    3    0    0  0.25704809796E+02  0.10892425032E+03  0.40875021214E+02  0.13810356182E+03  0.69832634749E+02 0.  0.
          6    2    1    2  501    0 -0.15640993184E+03 -0.13286486878E+03  0.45302351652E+03  0.52649260415E+03  0.17276288828E+03 0.  0.
         24    2    5    5    0    0 -0.16307078810E+03 -0.62574573831E+02  0.37340635097E+03  0.41997464500E+03  0.80241761444E+02 0.  0.
          5    1    5    5  501    0  0.66608562584E+01 -0.70290294948E+02  0.79617165556E+02  0.10651795915E+03  0.47000000000E+01 0. -1.
        -13    1    6    6    0    0 -0.11886953550E+03 -0.54917162707E+02  0.18726415629E+03  0.22850322856E+03  0.00000000000E+00 0.  1.
         14    1    6    6    0    0 -0.44201252599E+02 -0.76574111234E+01  0.18614219467E+03  0.19147141644E+03  0.00000000000E+00 0. -1.
         -5    1    3    3    0  503  0.13070512204E+03  0.23940618462E+02  0.75105524249E+02  0.15270858493E+03  0.47000000000E+01 0.  1.
         13    1    4    4    0    0 -0.13742899370E+02  0.15020816242E+02  0.29181721658E+02  0.35581808310E+02  0.00000000000E+00 0. -1.
        -14    1    4    4    0    0  0.39447709166E+02  0.93903434074E+02  0.11693299556E+02  0.10252175352E+03  0.00000000000E+00 0.  1.
</event>
<event>
12    1  0.8133506E-002  0.2014725E+03  0.7818608E-02  0.1148882E+00
         21   -1    0    0  503  502  0.00000000000E+00  0.00000000000E+00  0.17064954101E+03  0.17064954101E+03  0.00000000000E+00 0.  1.
         21   -1    0    0  501  503 -0.00000000000E+00 -0.00000000000E+00 -0.43236480732E+03  0.43236480732E+03  0.00000000000E+00 0.  1.
          6    2    1    2  501    0  0.91802304745E+02 -0.41188470068E+02 -0.33386396948E+03  0.38901289798E+03  0.17245791212E+03 0.  0.
         24    2    3    3    0    0 -0.10598165117E+02 -0.41227944037E+02 -0.20646243404E+03  0.22549195431E+03  0.80048862050E+02 0.  0.
         -6    2    1    2    0  502 -0.91802304745E+02  0.41188470068E+02  0.72148703180E+02  0.21400145035E+03  0.17454807979E+03 0.  0.
        -24    2    5    5    0    0 -0.94661356126E+02 -0.74835036386E+01  0.10137925607E+03  0.15696067177E+03  0.73089833423E+02 0.  0.
          5    1    3    3  501    0  0.10240046986E+03  0.39473968957E-01 -0.12740153545E+03  0.16352094367E+03  0.47000000000E+01 0. -1.
        -13    1    4    4    0    0 -0.41357804533E+02 -0.62104653566E+01 -0.12275020725E+03  0.12967903167E+03  0.00000000000E+00 0.  1.
         14    1    4    4    0    0  0.30759639416E+02 -0.35017478680E+02 -0.83712226790E+02  0.95812922637E+02  0.00000000000E+00 0. -1.
         -5    1    5    5    0  502  0.28590513808E+01  0.48671973707E+02 -0.29230552887E+02  0.57040778583E+02  0.47000000000E+01 0.  1.
         11    1    6    6    0    0 -0.10160958245E+02 -0.10182693831E+02 -0.97130490870E+01  0.17357293818E+02  0.00000000000E+00 0. -1.
        -12    1    6    6    0    0 -0.84500397882E+02  0.26991901924E+01  0.11109230515E+03  0.13960337795E+03  0.00000000000E+00 0.  1.
</event>
<event>
12    1  0.8133506E-002  0.2103222E+03  0.7818608E-02  0.1144610E+00
         21   -1    0    0  503  502  0.00000000000E+00  0.00000000000E+00  0.48507442562E+03  0.48507442562E+03  0.00000000000E+00 0. -1.
         21   -1    0    0  501  503 -0.00000000000E+00 -0.00000000000E+00 -0.96185892432E+02  0.96185892432E+02  0.00000000000E+00 0. -1.
          6    2    1    2  501    0  0.51366785082E+02 -0.75088697752E+02  0.99462866753E+02  0.23265484641E+03  0.18962741510E+03 0.  0.
         24    2    3    3    0    0 -0.95340198011E-01 -0.41432041580E+02  0.13515836917E+03  0.16139911166E+03  0.77879813361E+02 0.  0.
         -6    2    1    2    0  502 -0.51366785082E+02  0.75088697752E+02  0.28942566643E+03  0.34860547163E+03  0.17170235678E+03 0.  0.
        -24    2    5    5    0    0 -0.53046044231E+02  0.10489099747E+02  0.67283091974E+02  0.11720680837E+03  0.79287561703E+02 0.  0.
          5    1    3    3  501    0  0.51462125280E+02 -0.33656656172E+02 -0.35695502413E+02  0.71255734756E+02  0.47000000000E+01 0. -1.
        -13    1    4    4    0    0 -0.20531029032E+02 -0.83697934630E+01  0.15204492568E+01  0.22223599206E+02  0.00000000000E+00 0.  1.
         14    1    4    4    0    0  0.20435688834E+02 -0.33062248117E+02  0.13363791991E+03  0.13917551245E+03  0.00000000000E+00 0. -1.
         -5    1    5    5    0  502  0.16792591496E+01  0.64599598005E+02  0.22214257446E+03  0.23139866326E+03  0.47000000000E+01 0.  1.
         11    1    6    6    0    0 -0.20737659553E+02 -0.25268387470E+02  0.60193243699E+02  0.68496485428E+02  0.00000000000E+00 0. -1.
        -12    1    6    6    0    0 -0.32308384679E+02  0.35757487217E+02  0.70898482757E+01  0.48710322943E+02  0.00000000000E+00 0.  1.
</event>
<event>
12    1  0.8133506E-002  0.2072387E+03  0.7818608E-02  0.1144143E+00
         21   -1    0    0  503  502  0.00000000000E+00  0.00000000000E+00  0.14094175831E+03  0.14094175831E+03  0.00000000000E+00 0. -1.
         21   -1    0    0  501  503 -0.00000000000E+00 -0.00000000000E+00 -0.30459755007E+03  0.30459755007E+03  0.00000000000E+00 0. -1.
          6    2    1    2  501    0 -0.40017196669E+02 -0.10447333802E+03 -0.10265398358E+03  0.23126980130E+03  0.17444720193E+03 0.  0.
         24    2    3    3    0    0 -0.84640127327E+02 -0.71555560556E+02 -0.10862916656E+03  0.17530035584E+03  0.81521589343E+02 0.  0.
         -6    2    1    2    0  502  0.40017196669E+02  0.10447333802E+03 -0.61001808184E+02  0.21426950708E+03  0.17226185497E+03 0.  0.
        -24    2    5    5    0    0  0.91963599418E+02  0.89681976037E+02 -0.39048554767E+02  0.15577806768E+03  0.79005419408E+02 0.  0.
          5    1    3    3  501    0  0.44622930658E+02 -0.32917777465E+02  0.59751829743E+01  0.55969445462E+02  0.47000000000E+01 0. -1.
        -11    1    4    4    0    0 -0.54386823791E+02 -0.61334896238E+02 -0.11646311986E+03  0.14242034400E+03  0.00000000000E+00 0.  1.
         12    1    4    4    0    0 -0.30253303536E+02 -0.10220664318E+02  0.78339533001E+01  0.32880011835E+02  0.00000000000E+00 0. -1.
         -5    1    5    5    0  502 -0.51946402749E+02  0.14791361983E+02 -0.21953253417E+02  0.58491439403E+02  0.47000000000E+01 0.  1.
         11    1    6    6    0    0  0.65629268723E+02  0.18270534069E+02 -0.41238274688E+02  0.79634217692E+02  0.00000000000E+00 0. -1.
        -12    1    6    6    0    0  0.26334330695E+02  0.71411441968E+02  0.21897199204E+01  0.76143849985E+02  0.00000000000E+00 0.  1.
</event>
<event>
12    1  0.8133506E-002  0.2410174E+03  0.7818608E-02  0.1121785E+00
         21   -1    0    0  503  502  0.00000000000E+00  0.00000000000E+00  0.46894685299E+03  0.46894685299E+03  0.00000000000E+00 0.  1.
         21   -1    0    0  501  503 -0.00000000000E+00 -0.00000000000E+00 -0.34467567390E+03  0.34467567390E+03  0.00000000000E+00 0. -1.
          6    2    1    2  501    0  0.74748522922E+02  0.12570488460E+03 -0.26984976421E+03  0.35164775494E+03  0.17160474532E+03 0.  0.
         24    2    3    3    0    0 -0.10153741554E+01  0.48937795652E+01 -0.12313633047E+03  0.14699582399E+03  0.80126377215E+02 0.  0.
         -6    2    1    2    0  502 -0.74748522922E+02 -0.12570488460E+03  0.39412094330E+03  0.46197477196E+03  0.19157325566E+03 0.  0.
        -24    2    5    5    0    0  0.33099092551E+02 -0.83650824385E+02  0.25319235955E+03  0.27953955643E+03  0.77090740887E+02 0.  0.
          5    1    3    3  501    0  0.75763897077E+02  0.12081110504E+03 -0.14671343374E+03  0.20465193095E+03  0.47000000000E+01 0. -1.
        -13    1    4    4    0    0  0.60038471271E+01  0.67198725179E+00 -0.13358371256E+03  0.13372025280E+03  0.00000000000E+00 0.  1.
         14    1    4    4    0    0 -0.70192212825E+01  0.42217923135E+01  0.10447382093E+02  0.13275571188E+02  0.00000000000E+00 0. -1.
         -5    1    5    5    0  502 -0.10784761547E+03 -0.42054060217E+02  0.14092858375E+03  0.18243521552E+03  0.47000000000E+01 0.  1.
         13    1    6    6    0    0  0.30244640894E+02 -0.70263529735E+01  0.28584531494E+02  0.42204068283E+02  0.00000000000E+00 0. -1.
        -14    1    6    6    0    0  0.28544516575E+01 -0.76624471411E+02  0.22460782805E+03  0.23733548815E+03  0.00000000000E+00 0.  1.
</event>
<event>
12    1  0.8133506E-002  0.1843541E+03  0.7818608E-02  0.1163760E+00
         21   -1    0    0  501  502  0.00000000000E+00  0.00000000000E+00  0.10350448167E+04  0.10350448167E+04  0.00000000000E+00 0. -1.
         21   -1    0    0  502  503 -0.00000000000E+00 -0.00000000000E+00 -0.44843041469E+02  0.44843041469E+02  0.00000000000E+00 0. -1.
         -6    2    1    2    0  503  0.63516773222E+02  0.11351195039E+02  0.21521284937E+03  0.28337785158E+03  0.17269396667E+03 0.  0.
        -24    2    3    3    0    0  0.10999764406E+03 -0.27696658235E+01  0.16315956647E+03  0.21202307370E+03  0.78902388460E+02 0.  0.
          6    2    1    2  501    0 -0.63516773222E+02 -0.11351195039E+02  0.77498892582E+03  0.79651000655E+03  0.17221244226E+03 0.  0.
         24    2    5    5    0    0 -0.51932920894E+02  0.61615875878E+01  0.76791131836E+03  0.77385905254E+03  0.80218744001E+02 0.  0.
          5    1    5    5  501    0 -0.11583852328E+02 -0.17512782627E+02  0.70776074589E+01  0.22650954007E+02  0.47000000000E+01 0. -1.
        -11    1    6    6    0    0 -0.56862086432E+00  0.30539413677E+02  0.13564389483E+03  0.13904044491E+03  0.00000000000E+00 0.  1.
         12    1    6    6    0    0 -0.51364300030E+02 -0.24377826089E+02  0.63226742353E+03  0.63481860762E+03  0.00000000000E+00 0. -1.
         -5    1    3    3    0  503 -0.46480870840E+02  0.14120860863E+02  0.52053282901E+02  0.71354777880E+02  0.47000000000E+01 0.  1.
         11    1    4    4    0    0  0.66144914753E+02 -0.80450349200E+01  0.32570751664E+02  0.74166880739E+02  0.00000000000E+00 0. -1.
        -12    1    4    4    0    0  0.43852729309E+02  0.52753690965E+01  0.13058881480E+03  0.13785619296E+03  0.00000000000E+00 0.  1.
</event>
<event>
12    1  0.8133506E-002  0.3573692E+03  0.7818608E-02  0.1060389E+00
         21   -1    0    0  503  502  0.00000000000E+00  0.00000000000E+00  0.15719395953E+03  0.15719395953E+03  0.00000000000E+00 0. -1.
         21   -1    0    0  501  503 -0.00000000000E+00 -0.00000000000E+00 -0.11235846272E+04  0.11235846272E+04  0.00000000000E+00 0.  1.
          6    2    1    2  501    0  0.47157531977E+01  0.30690224296E+03 -0.82561094438E+03  0.89668005583E+03  0.16790016675E+03 0.  0.
         24    2    3    3    0    0 -0.21322197424E+02  0.28702323562E+03 -0.80319386205E+03  0.85670799828E+03  0.77403103223E+02 0.  0.
         -6    2    1    2    0  502 -0.47157531977E+01 -0.30690224296E+03 -0.14077972334E+03  0.38409853094E+03  0.18303422059E+03 0.  0.
        -24    2    5    5    0    0 -0.74649029400E+02 -0.15441031115E+03 -0.74358691013E+02  0.20360394398E+03  0.80686611629E+02 0.  0.
          5    1    3    3  501    0  0.26037950622E+02  0.19879007334E+02 -0.22417082329E+02  0.39972057557E+02  0.47000000000E+01 0. -1.
        -13    1    4    4    0    0  0.13038576370E+02  0.50543519472E+01 -0.38337145322E+02  0.40807936223E+02  0.00000000000E+00 0.  1.
         14    1    4    4    0    0 -0.34360773794E+02  0.28196888368E+03 -0.76485671673E+03  0.81590006205E+03  0.00000000000E+00 0. -1.
         -5    1    5    5    0  502  0.69933276202E+02 -0.15249193181E+03 -0.66421032322E+02  0.18049458696E+03  0.47000000000E+01 0.  1.
         13    1    6    6    0    0 -0.66758771930E+02 -0.57925154243E+02 -0.13909720964E+02  0.89473669094E+02  0.00000000000E+00 0. -1.
        -14    1    6    6    0    0 -0.78902574693E+01 -0.96485156905E+02 -0.60448970049E+02  0.11413027489E+03  0.00000000000E+00 0.  1.
</event>
<event>
12    1  0.8133506E-002  0.2869167E+03  0.7818608E-02  0.1091975E+00
         21   -1    0    0  501  502  0.00000000000E+00  0.00000000000E+00  0.70655996538E+03  0.70655996538E+03  0.00000000000E+00 0.  1.
         21   -1    0    0  502  503 -0.00000000000E+00 -0.00000000000E+00 -0.19768495047E+03  0.19768495047E+03  0.00000000000E+00 0. -1.
         -6    2    1    2    0  503  0.19569507463E+03  0.11984529571E+03 -0.35301187149E+02  0.28908019242E+03  0.17222580148E+03 0.  0.
        -24    2    3    3    0    0  0.72378255293E+02  0.83919667503E+02  0.36308945518E+02  0.14194831350E+03  0.80931216149E+02 0.  0.
          6    2    1    2  501    0 -0.19569507463E+03 -0.11984529571E+03  0.54417620205E+03  0.61516472343E+03  0.17216399427E+03 0.  0.
         24    2    5    5    0    0 -0.19268193359E+03 -0.49737234684E+02  0.43887053767E+03  0.48853300468E+03  0.80355633189E+02 0.  0.
          5    1    5    5  501    0 -0.30131410471E+01 -0.70108061029E+02  0.10530566438E+03  0.12663171874E+03  0.47000000000E+01 0. -1.
        -13    1    6    6    0    0 -0.92879616224E+02 -0.25807721580E+01  0.28051340090E+03  0.29550135630E+03  0.00000000000E+00 0.  1.
         14    1    6    6    0    0 -0.99802317363E+02 -0.47156462526E+02  0.15835713677E+03  0.19303164838E+03  0.00000000000E+00 0. -1.
         -5    1    3    3    0  503  0.12331681934E+03  0.35925628210E+02 -0.71610132666E+02  0.14713187892E+03  0.47000000000E+01 0.  1.
         13    1    4    4    0    0  0.80669736604E+02  0.83111388038E+02  0.12228283513E+02  0.11646733509E+03  0.00000000000E+00 0. -1.
        -14    1    4    4    0    0 -0.82914813117E+01  0.80827946457E+00  0.24080662004E+02  0.25480978407E+02  0.00000000000E+00 0.  1.
</event>
<event>
12    1  0.8133506E-002  0.1780670E+03  0.7818608E-02  0.1170065E+00
         21   -1    0    0  503  502  0.00000000000E+00  0.00000000000E+00  0.18989389292E+03  0.18989389292E+03  0.00000000000E+00 0.  1.
         21   -1    0    0  501  503 -0.00000000000E+00 -0.00000000000E+00 -0.16556852360E+03  0.16556852360E+03  0.00000000000E+00 0.  1.
          6    2    1    2  501    0  0.41173227475E+02  0.14081273792E+01  0.14418482541E+02  0.17712006302E+03  0.17165781835E+03 0.  0.
         24    2    3    3    0    0 -0.20017007889E+02 -0.23936659334E+02 -0.37684186189E+02  0.92719937391E+02  0.78760679506E+02 0.  0.
         -6    2    1    2    0  502 -0.41173227475E+02 -0.14081273792E+01  0.99068867814E+01  0.17834235350E+03  0.17323576757E+03 0.  0.
        -24    2    5    5    0    0  0.26931508605E+02  0.45868795169E+02  0.70084887610E+01  0.95252924615E+02  0.78706722757E+02 0.  0.
          5    1    3    3  501    0  0.61190235363E+02  0.25344786713E+02  0.52102668730E+02  0.84400125629E+02  0.47000000000E+01 0. -1.
        -13    1    4    4    0    0  0.25055907855E+02  0.96485687708E+01 -0.20999379972E+02  0.34086175453E+02  0.00000000000E+00 0.  1.
         14    1    4    4    0    0 -0.45072915744E+02 -0.33585228105E+02 -0.16684806217E+02  0.58633761938E+02  0.00000000000E+00 0. -1.
         -5    1    5    5    0  502 -0.68104736079E+02 -0.47276922548E+02  0.28983980203E+01  0.83089428889E+02  0.47000000000E+01 0.  1.
         13    1    6    6    0    0  0.40477061898E+02  0.68725735823E+01 -0.20254970893E+02  0.45780876504E+02  0.00000000000E+00 0. -1.
        -14    1    6    6    0    0 -0.13545553294E+02  0.38996221587E+02  0.27263459654E+02  0.49472048112E+02  0.00000000000E+00 0.  1.
</event>
<event>
12    1  0.8133506E-002  0.1754064E+03  0.7818608E-02  0.1172578E+00
         21   -1    0    0  503  502  0.00000000000E+00  0.00000000000E+00  0.90037229215E+03  0.90037229215E+03  0.00000000000E+00 0. -1.
         21   -1    0    0  501  503 -0.00000000000E+00 -0.00000000000E+00 -0.36229068444E+02  0.36229068444E+02  0.00000000000E+00 0. -1.
          6    2    1    2  501    0 -0.29245147511E+02 -0.87926444811E+01  0.55004824034E+03  0.57733912195E+03  0.17272754783E+03 0.  0.
         24    2    3    3    0    0 -0.36175504498E+02 -0.54731464483E+02  0.49334571117E+03  0.50388388493E+03  0.78770415965E+02 0.  0.
         -6    2    1    2    0  502  0.29245147511E+02  0.87926444811E+01  0.31409498337E+03  0.35926223865E+03  0.17170063568E+03 0.  0.
        -24    2    5    5    0    0  0.48079080877E+01  0.10504095840E+02  0.51854838281E+02  0.95838451888E+02  0.79766111836E+02 0.  0.
          5    1    3    3  501    0  0.69303569867E+01  0.45938820002E+02  0.56702529169E+02  0.73455237018E+02  0.47000000000E+01 0. -1.
        -13    1    4    4    0    0 -0.92917067077E+01 -0.13189545587E+02  0.12268515556E+02  0.20268606274E+02  0.00000000000E+00 0.  1.
         14    1    4    4    0    0 -0.26883797790E+02 -0.41541918897E+02  0.48107719562E+03  0.48361527866E+03  0.00000000000E+00 0. -1.
         -5    1    5    5    0  502  0.24437239424E+02 -0.17114513592E+01  0.26224014509E+03  0.26342378676E+03  0.47000000000E+01 0.  1.
         11    1    6    6    0    0 -0.98088926480E+01  0.35508794515E+02  0.55534521547E+02  0.66642118411E+02  0.00000000000E+00 0. -1.
        -12    1    6    6    0    0  0.14616800736E+02 -0.25004698674E+02 -0.36796832659E+01  0.29196333477E+02  0.00000000000E+00 0.  1.
</event>
<event>
12    1  0.8133506E-002  0.2256566E+03  0.7818608E-02  0.1131453E+00
         21   -1    0    0  503  502  0.00000000000E+00  0.00000000000E+00  0.63817311071E+03  0.63817311071E+03  0.00000000000E+00 0.  1.
         21   -1    0    0  501  503 -0.00000000000E+00 -0.00000000000E+00 -0.76539379930E+02  0.76539379930E+02  0.00000000000E+00 0.  1.
          6    2    1    2  501    0  0.11305303684E+03  0.65560701314E+02  0.28340161208E+03  0.36226701679E+03  0.18396119979E+03 0.  0.
         24    2    3    3    0    0 -0.18111014884E+01  0.27277132918E+02  0.19408895195E+03  0.21174046384E+03  0.80101065483E+02 0.  0.
         -6    2    1    2    0  502 -0.11305303684E+03 -0.65560701314E+02  0.27823211869E+03  0.35244547384E+03  0.17241086238E+03 0.  0.
        -24    2    5    5    0    0 -0.80945053202E+02 -0.11057003707E+03  0.21459986680E+03  0.26801848527E+03  0.83683755190E+02 0.  0.
          5    1    3    3  501    0  0.11486413833E+03  0.38283568396E+02  0.89312660137E+02  0.15052655295E+03  0.47000000000E+01 0. -1.
        -11    1    4    4    0    0 -0.25531315772E+02 -0.18957227090E+02  0.88898402316E+02  0.94414778919E+02  0.00000000000E+00 0.  1.
         12    1    4    4    0    0  0.23720214284E+02  0.46234360008E+02  0.10519054963E+03  0.11732568492E+03  0.00000000000E+00 0. -1.
         -5    1    5    5    0  502 -0.32107983635E+02  0.45009335754E+02  0.63632251897E+02  0.84426988573E+02  0.47000000000E+01 0.  1.
         13    1    6    6    0    0 -0.25915498911E+02 -0.76723150672E+02  0.17344320828E+03  0.19141734883E+03  0.00000000000E+00 0. -1.
        -14    1    6    6    0    0 -0.55029554291E+02 -0.33846886396E+02  0.41156658510E+02  0.76601136440E+02  0.00000000000E+00 0.  1.
</event>
<event>
12    1  0.8133506E-002  0.1990502E+03  0.7818608E-02  0.1151080E+00
         21   -1    0    0  501  502  0.00000000000E+00  0.00000000000E+00  0.17373042765E+04  0.17373042765E+04  0.00000000000E+00 0.  1.
         21   -1    0    0  502  503 -0.00000000000E+00 -0.00000000000E+00 -0.23222526338E+02  0.23222526338E+02  0.00000000000E+00 0.  1.
         -6    2    1    2    0  503 -0.21476840484E+02 -0.97299843319E+02  0.10050040918E+04  0.10240404842E+04  0.16940240457E+03 0.  0.
        -24    2    3    3    0    0  0.64245302935E+01  0.12346672455E+02  0.33896823307E+03  0.34844689339E+03  0.79511380120E+02 0.  0.
          6    2    1    2  501    0  0.21476840484E+02  0.97299843319E+02  0.70907765836E+03  0.73648631858E+03  0.17231499552E+03 0.  0.
         24    2    5    5    0    0 -0.39747977423E+02  0.91778499576E+02  0.35993544149E+03  0.38194246916E+03  0.79519387633E+02 0.  0.
          5    1    5    5  501    0  0.61224817907E+02  0.55213437431E+01  0.34914221687E+03  0.35454384942E+03  0.47000000000E+01 0. -1.
        -11    1    6    6    0    0  0.18758756616E+02  0.13203094945E+02  0.29969570750E+02  0.37741063006E+02  0.00000000000E+00 0.  1.
         12    1    6    6    0    0 -0.58506734039E+02  0.78575404630E+02  0.32996587074E+03  0.34420140615E+03  0.00000000000E+00 0. -1.
         -5    1    3    3    0  503 -0.27901370778E+02 -0.10964651577E+03  0.66603585868E+03  0.67559359082E+03  0.47000000000E+01 0.  1.
         11    1    4    4    0    0  0.33855294861E+02  0.83939570917E+01  0.29072424613E+03  0.29280919861E+03  0.00000000000E+00 0. -1.
        -12    1    4    4    0    0 -0.27430764567E+02  0.39527153629E+01  0.48243986947E+02  0.55637694777E+02  0.00000000000E+00 0.  1.
</event>
<event>
12    1  0.8133506E-002  0.1979742E+03  0.7818608E-02  0.1151563E+00
         21   -1    0    0  503  502  0.00000000000E+00  0.00000000000E+00  0.93758282271E+02  0.93758282271E+02  0.00000000000E+00 0.  1.
         21   -1    0    0  501  503 -0.00000000000E+00 -0.00000000000E+00 -0.66062240789E+03  0.66062240789E+03  0.00000000000E+00 0.  1.
          6    2    1    2  501    0  0.89800210138E+02  0.35221612613E+02 -0.51226552453E+03  0.54901568541E+03  0.17232996104E+03 0.  0.
         24    2    3    3    0    0  0.69268555672E+01  0.11017424773E+02 -0.11384257692E+03  0.14131877497E+03  0.82713353583E+02 0.  0.
         -6    2    1    2    0  502 -0.89800210138E+02 -0.35221612613E+02 -0.54598601096E+02  0.20536500476E+03  0.17288475410E+03 0.  0.
        -24    2    5    5    0    0 -0.23176109570E+02  0.43566867241E+02 -0.38899703403E+02  0.10089041108E+03  0.78933415912E+02 0.  0.
          5    1    3    3  501    0  0.82873354571E+02  0.24204187840E+02 -0.39842294760E+03  0.40769691044E+03  0.47000000000E+01 0. -1.
        -11    1    4    4    0    0  0.72503875353E+01  0.22276449242E+02 -0.12397460619E+03  0.12616858282E+03  0.00000000000E+00 0.  1.
         12    1    4    4    0    0 -0.32353196804E+00 -0.11259024468E+02  0.10132029270E+02  0.15150192146E+02  0.00000000000E+00 0. -1.
         -5    1    5    5    0  502 -0.66624100568E+02 -0.78788479854E+02 -0.15698897692E+02  0.10447459367E+03  0.47000000000E+01 0.  1.
         13    1    6    6    0    0  0.23480214940E+02  0.37613000075E+02 -0.92635758181E+01  0.45297594917E+02  0.00000000000E+00 0. -1.
        -14    1    6    6    0    0 -0.46656324510E+02  0.59538671659E+01 -0.29636127585E+02  0.55592816166E+02  0.00000000000E+00 0.  1.
</event>
<event>
12    1  0.8133506E-002  0.2005098E+03  0.7818608E-02  0.1149352E+00
         21   -1    0    0  501  502  0.00000000000E+00  0.00000000000E+00  0.19098253723E+03  0.19098253723E+03  0.00000000000E+00 0.  1.
         21   -1    0    0  502  503 -0.00000000000E+00 -0.00000000000E+00 -0.21035591057E+03  0.21035591057E+03  0.00000000000E+00 0. -1.
         -6    2    1    2    0  503 -0.75368363398E+02 -0.70034675301E+02 -0.64340530107E+01  0.20061297939E+03  0.17210149481E+03 0.  0.
        -24    2    3    3    0    0 -0.10371040631E+03 -0.83965318621E+02 -0.33254633457E+02  0.15891444519E+03  0.79636091914E+02 0.  0.
          6    2    1    2  501    0  0.75368363398E+02  0.70034675301E+02 -0.12939320324E+02  0.20072546841E+03  0.17186634840E+03 0.  0.
         24    2    5    5    0    0  0.33794863896E+02  0.24236591558E+02  0.58534704919E+02  0.10608696346E+03  0.78093706145E+02 0.  0.
          5    1    5    5  501    0  0.41573499502E+02  0.45798083743E+02 -0.71474025243E+02  0.94638504953E+02  0.47000000000E+01 0. -1.
        -13    1    6    6    0    0  0.41801711635E+02 -0.29915104118E+00 -0.33945333921E+00  0.41804160265E+02  0.00000000000E+00 0.  1.
         14    1    6    6    0    0 -0.80068477383E+01  0.24535742599E+02  0.58874158258E+02  0.64282803192E+02  0.00000000000E+00 0. -1.
         -5    1    3    3    0  503  0.28342042907E+02  0.13930643320E+02  0.26820580446E+02  0.41698534206E+02  0.47000000000E+01 0.  1.
         13    1    4    4    0    0 -0.50450480129E+02 -0.88508397113E+02 -0.19616407237E+02  0.10374869029E+03  0.00000000000E+00 0. -1.
        -14    1    4    4    0    0 -0.53259926176E+02  0.45430784917E+01 -0.13638226219E+02  0.55165754893E+02  0.00000000000E+00 0.  1.
</event>
<event>
12    1  0.8133506E-002  0.2438853E+03  0.7818608E-02  0.1117322E+00
         21   -1    0    0  501  502  0.00000000000E+00  0.00000000000E+00  0.55350633216E+02  0.55350633216E+02  0.00000000000E+00 0.  1.
         21   -1    0    0  502  503 -0.00000000000E+00 -0.00000000000E+00 -0.15436012711E+04  0.15436012711E+04  0.00000000000E+00 0.  1.
         -6    2    1    2    0  503  0.17195336794E+03 -0.21277428207E+02 -0.11865454189E+04  0.12113505166E+04  0.17163727236E+03 0.  0.
        -24    2    3    3    0    0  0.37309204623E+02  0.44895638990E+01 -0.71079613017E+03  0.71622178150E+03  0.79563614146E+02 0.  0.
          6    2    1    2  501    0 -0.17195336794E+03  0.21277428207E+02 -0.30170521897E+03  0.38760138770E+03  0.17084527180E+03 0.  0.
         24    2    5    5    0    0 -0.11764107669E+03  0.70013871080E+02 -0.12332188433E+03  0.19481194318E+03  0.63261686503E+02 0.  0.
          5    1    5    5  501    0 -0.54312291245E+02 -0.48736442873E+02 -0.17838333463E+03  0.19278944452E+03  0.47000000000E+01 0. -1.
        -13    1    6    6    0    0 -0.92642034100E+02  0.43648619135E+02 -0.12083421898E+03  0.15839399266E+03  0.00000000000E+00 0.  1.
         14    1    6    6    0    0 -0.24999042593E+02  0.26365251945E+02 -0.24876653517E+01  0.36417950513E+02  0.00000000000E+00 0. -1.
         -5    1    3    3    0  503  0.13464416331E+03 -0.25766992106E+02 -0.47574928872E+03  0.49512873509E+03  0.47000000000E+01 0.  1.
         11    1    4    4    0    0  0.45611339094E+02  0.32856267170E+02 -0.38414095844E+03  0.38823215284E+03  0.00000000000E+00 0. -1.
        -12    1    4    4    0    0 -0.83021344712E+01 -0.28366703271E+02 -0.32665517173E+03  0.32798962866E+03  0.00000000000E+00 0.  1.
</event>
<event>
12    1  0.8133506E-002  0.1904331E+03  0.7818608E-02  0.1158716E+00
         21   -1    0    0  503  502  0.00000000000E+00  0.00000000000E+00  0.77812064297E+02  0.77812064297E+02  0.00000000000E+00 0. -1.
         21   -1    0    0  501  503 -0.00000000000E+00 -0.00000000000E+00 -0.80888653942E+03  0.80888653942E+03  0.00000000000E+00 0.  1.
          6    2    1    2  501    0 -0.75706383170E+02 -0.34589873358E+01 -0.65550673978E+03  0.68181999789E+03  0.17159837580E+03 0.  0.
         24    2    3    3    0    0 -0.72277868546E+01 -0.14005086549E+02 -0.54446120991E+03  0.55084771813E+03  0.82139004849E+02 0.  0.
         -6    2    1    2    0  502  0.75706383170E+02  0.34589873358E+01 -0.75567735339E+02  0.20487860582E+03  0.17470357596E+03 0.  0.
        -24    2    5    5    0    0 -0.17174105889E+02  0.43599043728E+02 -0.30784118737E+02  0.94128112863E+02  0.75608287494E+02 0.  0.
          5    1    3    3  501    0 -0.68478596315E+02  0.10546099213E+02 -0.11104552987E+03  0.13097227976E+03  0.47000000000E+01 0. -1.
        -13    1    4    4    0    0  0.56010705495E+01 -0.45456177251E+02 -0.39094641554E+03  0.39362003997E+03  0.00000000000E+00 0.  1.
         14    1    4    4    0    0 -0.12828857404E+02  0.31451090702E+02 -0.15351479437E+03  0.15722767816E+03  0.00000000000E+00 0. -1.
         -5    1    5    5    0  502  0.92880489058E+02 -0.40140056392E+02 -0.44783616602E+02  0.11075049296E+03  0.47000000000E+01 0.  1.
         11    1    6    6    0    0 -0.13115054917E+02 -0.19664697183E+02 -0.17363945793E+02  0.29329364028E+02  0.00000000000E+00 0. -1.
        -12    1    6    6    0    0 -0.40590509713E+01  0.63263740911E+02 -0.13420172944E+02  0.64798748836E+02  0.00000000000E+00 0.  1.
</event>
<event>
12    1  0.8133506E-002  0.2035302E+03  0.7818608E-02  0.1147031E+00
         21   -1    0    0  503  502  0.00000000000E+00  0.00000000000E+00  0.83294625436E+03  0.83294625436E+03  0.00000000000E+00 0.  1.
         21   -1    0    0  501  503 -0.00000000000E+00 -0.00000000000E+00 -0.50109020469E+02  0.50109020469E+02  0.00000000000E+00 0. -1.
          6    2    1    2  501    0  0.29095048171E+02  0.96127642437E+02  0.44085728130E+03  0.48509194050E+03  0.17570430500E+03 0.  0.
         24    2    3    3    0    0  0.60877285114E+02  0.12136603316E+03  0.30775474936E+03  0.34586025963E+03  0.80439888007E+02 0.  0.
         -6    2    1    2    0  502 -0.29095048171E+02 -0.96127642437E+02  0.34197995259E+03  0.39796333433E+03  0.17702395891E+03 0.  0.
        -24    2    5    5    0    0  0.36360116714E+02 -0.41387284176E+01  0.18198711730E+03  0.20209057906E+03  0.79888072458E+02 0.  0.
          5    1    3    3  501    0 -0.31782236942E+02 -0.25238390727E+02  0.13310253193E+03  0.13923168087E+03  0.47000000000E+01 0. -1.
        -11    1    4    4    0    0  0.27508203289E+02  0.39750155071E+02  0.20423899978E+03  0.20988174077E+03  0.00000000000E+00 0.  1.
         12    1    4    4    0    0  0.33369081825E+02  0.81615878093E+02  0.10351574959E+03  0.13597851886E+03  0.00000000000E+00 0. -1.
         -5    1    5    5    0  502 -0.65455164886E+02 -0.91988914019E+02  0.15999283529E+03  0.19587275527E+03  0.47000000000E+01 0.  1.
         13    1    6    6    0    0  0.10946290282E+02 -0.39236503770E+02  0.11781369393E+03  0.12465709356E+03  0.00000000000E+00 0. -1.
        -14    1    6    6    0    0  0.25413826432E+02  0.35097775353E+02  0.64173423373E+02  0.77433485496E+02  0.00000000000E+00 0.  1.
</event>
<event>
12    1  0.8133506E-002  0.1846681E+03  0.7818608E-02  0.1163461E+00
         21   -1    0    0  501  502  0.00000000000E+00  0.00000000000E+00  0.50037564551E+02  0.50037564551E+02  0.00000000000E+00 0.  1.
         21   -1    0    0  502  503 -0.00000000000E+00 -0.00000000000E+00 -0.68039273499E+03  0.68039273499E+03  0.00000000000E+00 0.  1.
         -6    2    1    2    0  503  0.24354058736E+01 -0.63078698984E+02 -0.32422370838E+03  0.37291277213E+03  0.17308399427E+03 0.  0.
        -24    2    3    3    0    0  0.83230795080E+01 -0.67673195743E+02 -0.33930869393E+03  0.35543647703E+03  0.80967674697E+02 0.  0.
          6    2    1    2  501    0 -0.24354058736E+01  0.63078698984E+02 -0.30613146206E+03  0.35751752741E+03  0.17354381832E+03 0.  0.
         24    2    5    5    0    0 -0.63645747198E+02  0.48206693213E+02 -0.24532672000E+03  0.26984091082E+03  0.79083823868E+02 0.  0.
          5    1    5    5  501    0  0.61210341325E+02  0.14872005771E+02 -0.60804742057E+02  0.87676616594E+02  0.47000000000E+01 0. -1.
        -13    1    6    6    0    0 -0.30175760452E+02  0.60986020297E+02 -0.20450344552E+03  0.21552617108E+03  0.00000000000E+00 0.  1.
         14    1    6    6    0    0 -0.33469986746E+02 -0.12779327083E+02 -0.40823274478E+02  0.54314739736E+02  0.00000000000E+00 0. -1.
         -5    1    3    3    0  503 -0.58876736344E+01  0.45944967592E+01  0.15084985556E+02  0.17476295103E+02  0.47000000000E+01 0.  1.
         13    1    4    4    0    0 -0.35881072967E+02 -0.34023499418E+02 -0.18238732743E+03  0.18897139232E+03  0.00000000000E+00 0. -1.
        -14    1    4    4    0    0  0.44204152475E+02 -0.33649696325E+02 -0.15692136651E+03  0.16646508471E+03  0.00000000000E+00 0.  1.
</event>
<event>
12    1  0.8133506E-002  0.1728957E+03  0.7818608E-02  0.1175277E+00
         21   -1    0    0  501  502  0.00000000000E+00  0.00000000000E+00  0.63515086010E+02  0.63515086010E+02  0.00000000000E+00 0.  1.
         21   -1    0    0  502  503 -0.00000000000E+00 -0.00000000000E+00 -0.53110631297E+03  0.53110631297E+03  0.00000000000E+00 0.  1.
         -6    2    1    2    0  503  0.38689232975E+01  0.37690479712E+01 -0.33867079204E+03  0.38025101888E+03  0.17281133553E+03 0.  0.
        -24    2    3    3    0    0  0.35581328097E+02 -0.53573162579E+02 -0.25006376403E+03  0.26994643538E+03  0.78759616778E+02 0.  0.
          6    2    1    2  501    0 -0.38689232975E+01 -0.37690479712E+01 -0.12892043493E+03  0.21437038011E+03  0.17118705277E+03 0.  0.
         24    2    5    5    0    0  0.36676353116E+02 -0.36218578845E+02 -0.13210586539E+03  0.16212931905E+03  0.78593995275E+02 0.  0.
          5    1    5    5  501    0 -0.40545276414E+02  0.32449530874E+02  0.31854304605E+01  0.52241061060E+02  0.47000000000E+01 0. -1.
        -13    1    6    6    0    0 -0.23784808249E+01  0.32814990087E+01  0.93323432523E+01  0.10174381424E+02  0.00000000000E+00 0.  1.
         14    1    6    6    0    0  0.39054833941E+02 -0.39500077854E+02 -0.14143820864E+03  0.15195493762E+03  0.00000000000E+00 0. -1.
         -5    1    3    3    0  503 -0.31712404799E+02  0.57342210550E+02 -0.88607028010E+02  0.11030458350E+03  0.47000000000E+01 0.  1.
         11    1    4    4    0    0 -0.66195682241E+01 -0.50071161012E+02 -0.79360702719E+02  0.94069447668E+02  0.00000000000E+00 0. -1.
        -12    1    4    4    0    0  0.42200896321E+02 -0.35020015672E+01 -0.17070306131E+03  0.17587698771E+03  0.00000000000E+00 0.  1.
</event>
<event>
12    1  0.8133506E-002  0.2046434E+03  0.7818608E-02  0.1145910E+00
         21   -1    0    0  503  502  0.00000000000E+00  0.00000000000E+00  0.33023635293E+03  0.33023635293E+03  0.00000000000E+00 0.  1.
         21   -1    0    0  501  503 -0.00000000000E+00 -0.00000000000E+00 -0.24322241994E+03  0.24322241994E+03  0.00000000000E+00 0. -1.
          6    2    1    2  501    0  0.10224403407E+03  0.46079589304E+02 -0.15492549905E+03  0.25667260639E+03  0.17117752644E+03 0.  0.
         24    2    3    3    0    0  0.97668587228E+02 -0.17261132801E+02 -0.14381179884E+03  0.19203062217E+03  0.79729710456E+02 0.  0.
         -6    2    1    2    0  502 -0.10224403407E+03 -0.46079589304E+02  0.24193943204E+03  0.31678616648E+03  0.17100179953E+03 0.  0.
        -24    2    5    5    0    0 -0.25426713517E+02  0.17034530150E+02  0.47647634996E+02  0.98484345116E+02  0.80574041319E+02 0.  0.
          5    1    3    3  501    0  0.45754468427E+01  0.63340722105E+02 -0.11113700213E+02  0.64641984214E+02  0.47000000000E+01 0. -1.
        -11    1    4    4    0    0 -0.11584198878E+02 -0.41011236464E+01 -0.35742259286E+02  0.37795793122E+02  0.00000000000E+00 0.  1.
         12    1    4    4    0    0  0.10925278611E+03 -0.13160009155E+02 -0.10806953955E+03  0.15423482905E+03  0.00000000000E+00 0. -1.
         -5    1    5    5    0  502 -0.76817320554E+02 -0.63114119455E+02  0.19429179705E+03  0.21830182137E+03  0.47000000000E+01 0.  1.
         11    1    6    6    0    0 -0.22882648240E+02  0.48478812009E+02  0.22490280267E+02  0.58134529419E+02  0.00000000000E+00 0. -1.
        -12    1    6    6    0    0 -0.25440652768E+01 -0.31444281859E+02  0.25157354729E+02  0.40349815697E+02  0.00000000000E+00 0.  1.
</event>
<event>
12    1  0.8133506E-002  0.1960416E+03  0.7818608E-02  0.1153711E+00
         21   -1    0    0  501  502  0.00000000000E+00  0.00000000000E+00  0.81736040542E+03  0.81736040542E+03  0.00000000000E+00 0. -1.
         21   -1    0    0  502  503 -0.00000000000E+00 -0.00000000000E+00 -0.47084445027E+02  0.47084445027E+02  0.00000000000E+00 0. -1.
         -6    2    1    2    0  503  0.15678303428E+02 -0.87631192091E+02  0.44084144259E+03  0.48246606392E+03  0.17466336280E+03 0.  0.
        -24    2    3    3    0    0  0.80412814715E+01  0.15409488332E+02  0.11637279530E+03  0.14191107717E+03  0.79334808243E+02 0.  0.
          6    2    1    2  501    0 -0.15678303428E+02  0.87631192091E+02  0.32943451780E+03  0.38197878653E+03  0.17162650381E+03 0.  0.
         24    2    5    5    0    0  0.74292885063E+01  0.54928530983E+02  0.32729208912E+03  0.34160422957E+03  0.80628780346E+02 0.  0.
          5    1    5    5  501    0 -0.23107591934E+02  0.32702661108E+02  0.21424286852E+01  0.40374556954E+02  0.47000000000E+01 0. -1.
        -13    1    6    6    0    0 -0.33778671644E+02  0.70042312653E+01  0.12448033155E+03  0.12917202040E+03  0.00000000000E+00 0.  1.
         14    1    6    6    0    0  0.41207960150E+02  0.47924299718E+02  0.20281175757E+03  0.21243220917E+03  0.00000000000E+00 0. -1.
         -5    1    3    3    0  503  0.76370219560E+01 -0.10304068042E+03  0.32446864729E+03  0.34055498675E+03  0.47000000000E+01 0.  1.
         11    1    4    4    0    0  0.43475335624E+01 -0.38655230168E+01 -0.11315491779E+02  0.12723351385E+02  0.00000000000E+00 0. -1.
        -12    1    4    4    0    0  0.36937479091E+01  0.19275011349E+02  0.12768828708E+03  0.12918772579E+03  0.00000000000E+00 0.  1.
</event>
<event>
12    1  0.8133506E-002  0.1839882E+03  0.7818608E-02  0.1165035E+00
         21   -1    0    0  501  502  0.00000000000E+00  0.00000000000E+00  0.41635933497E+03  0.41635933497E+03  0.00000000000E+00 0.  1.
         21   -1    0    0  502  503 -0.00000000000E+00 -0.00000000000E+00 -0.17736193941E+03  0.17736193941E+03  0.00000000000E+00 0.  1.
         -6    2    1    2    0  503  0.50136597641E+02 -0.31898808871E+02 -0.10048680160E+03  0.20964076591E+03  0.17412765722E+03 0.  0.
        -24    2    3    3    0    0  0.45198469251E+02  0.36162289576E+02 -0.10125267769E+03  0.14123481003E+03  0.79652708774E+02 0.  0.
          6    2    1    2  501    0 -0.50136597641E+02  0.31898808871E+02  0.33948419716E+03  0.38408050846E+03  0.16952021835E+03 0.  0.
         24    2    5    5    0    0 -0.49076940610E+00 -0.41337439668E+02  0.15745115510E+03  0.18162958907E+03  0.80556915352E+02 0.  0.
          5    1    5    5  501    0 -0.49645828235E+02  0.73236248539E+02  0.18203304206E+03  0.20245091939E+03  0.47000000000E+01 0. -1.
        -11    1    6    6    0    0 -0.37920326832E+02 -0.49418722671E+01  0.62445512589E+02  0.73224417587E+02  0.00000000000E+00 0.  1.
         12    1    6    6    0    0  0.37429557426E+02 -0.36395567401E+02  0.95005642507E+02  0.10840517148E+03  0.00000000000E+00 0. -1.
         -5    1    3    3    0  503  0.49381283904E+01 -0.68061098447E+02  0.76587609593E+00  0.68405955881E+02  0.47000000000E+01 0.  1.
         11    1    4    4    0    0  0.30404949086E+02  0.49819000251E+02 -0.27011090104E+02  0.64311684036E+02  0.00000000000E+00 0. -1.
        -12    1    4    4    0    0  0.14793520164E+02 -0.13656710675E+02 -0.74241587590E+02  0.76923125998E+02  0.00000000000E+00 0.  1.
</event>
<event>
12    1  0.8133506E-002  0.2052669E+03  0.7818608E-02  0.1145827E+00
         21   -1    0    0  503  502  0.00000000000E+00  0.00000000000E+00  0.37931970971E+03  0.37931970971E+03  0.00000000000E+00 0. -1.
         21   -1    0    0  501  503 -0.00000000000E+00 -0.00000000000E+00 -0.14685796289E+03  0.14685796289E+03  0.00000000000E+00 0. -1.
          6    2    1    2  501    0 -0.10591565653E+03  0.43360013006E+02 -0.15313876183E+02  0.20583733630E+03  0.17040034385E+03 0.  0.
         24    2    3    3    0    0 -0.36763351173E+02  0.23892933062E+02  0.56767063316E+02  0.10396113507E+03  0.75252919465E+02 0.  0.
         -6    2    1    2    0  502  0.10591565653E+03 -0.43360013006E+02  0.24777562301E+03  0.32034033630E+03  0.16771092593E+03 0.  0.
        -24    2    5    5    0    0  0.46689174551E+02 -0.48160709207E+02  0.23819751078E+03  0.25996937403E+03  0.79666105455E+02 0.  0.
          5    1    3    3  501    0 -0.69152305356E+02  0.19467079945E+02 -0.72080939498E+02  0.10187620123E+03  0.47000000000E+01 0. -1.
        -11    1    4    4    0    0 -0.29785944924E+02 -0.16873198587E+02  0.52099134131E+02  0.62339611186E+02  0.00000000000E+00 0.  1.
         12    1    4    4    0    0 -0.69774062482E+01  0.40766131649E+02  0.46679291842E+01  0.41621523884E+02  0.00000000000E+00 0. -1.
         -5    1    5    5    0  502  0.59226481978E+02  0.48006962004E+01  0.95781122235E+01  0.60370962269E+02  0.47000000000E+01 0.  1.
         11    1    6    6    0    0  0.62244507868E+02 -0.55789919108E+02  0.16773951045E+03  0.18741247878E+03  0.00000000000E+00 0. -1.
        -12    1    6    6    0    0 -0.15555333317E+02  0.76292099010E+01  0.70458000332E+02  0.72556895255E+02  0.00000000000E+00 0.  1.
</event>
<event>
12    1  0.8133506E-002  0.1756444E+03  0.7818608E-02  0.1172528E+00
         21   -1    0    0  503  502  0.00000000000E+00  0.00000000000E+00  0.11904188483E+02  0.11904188483E+02  0.00000000000E+00 0. -1.
         21   -1    0    0  501  503 -0.00000000000E+00 -0.00000000000E+00 -0.26348869413E+04  0.26348869413E+04  0.00000000000E+00 0. -1.
          6    2    1    2  501    0 -0.22242337795E+02  0.19696198465E+02 -0.10906850530E+04  0.11044593918E+04  0.17133009491E+03 0.  0.
         24    2    3    3    0    0 -0.43769420929E+01 -0.30047695930E+02 -0.29418963563E+03  0.30619836475E+03  0.79296123520E+02 0.  0.
         -6    2    1    2    0  502  0.22242337795E+02 -0.19696198465E+02 -0.15322976998E+04  0.15423317380E+04  0.17311351008E+03 0.  0.
        -24    2    5    5    0    0 -0.11160049396E+02 -0.67537551221E+02 -0.68736167230E+03  0.69537040766E+03  0.79925388812E+02 0.  0.
          5    1    3    3  501    0 -0.17865395702E+02  0.49743894396E+02 -0.79649541736E+03  0.79826102702E+03  0.47000000000E+01 0. -1.
        -11    1    4    4    0    0 -0.37202976040E+02 -0.14824340615E+02 -0.85743628284E+02  0.94635047906E+02  0.00000000000E+00 0.  1.
         12    1    4    4    0    0  0.32826033947E+02 -0.15223355316E+02 -0.20844600735E+03  0.21156331684E+03  0.00000000000E+00 0. -1.
         -5    1    5    5    0  502  0.33402387191E+02  0.47841352756E+02 -0.84493602749E+03  0.84696133032E+03  0.47000000000E+01 0.  1.
         11    1    6    6    0    0 -0.30986631515E+02 -0.12647129866E+02 -0.10775473730E+03  0.11283263994E+03  0.00000000000E+00 0. -1.
        -12    1    6    6    0    0  0.19826582119E+02 -0.54890421355E+02 -0.57960693500E+03  0.58253776772E+03  0.00000000000E+00 0.  1.
</event>
<event>
12    1  0.8133506E-002  0.2710143E+03  0.7818608E-02  0.1100756E+00
         21   -1    0    0  501  502  0.00000000000E+00  0.00000000000E+00  0.13394119420E+04  0.13394119420E+04  0.00000000000E+00 0.  1.
         21   -1    0    0  502  503 -0.00000000000E+00 -0.00000000000E+00 -0.56261614460E+02  0.56261614460E+02  0.00000000000E+00 0.  1.
         -6    2    1    2    0  503 -0.45789573240E+02 -0.20386628696E+03  0.75612086505E+03  0.80322318893E+03  0.17259948055E+03 0.  0.
        -24    2    3    3    0    0 -0.79295280241E+02 -0.20767018451E+03  0.67957668093E+03  0.71944846624E+03  0.79793378874E+02 0.  0.
          6    2    1    2  501    0  0.45789573240E+02  0.20386628696E+03  0.52702946249E+03  0.59245036753E+03  0.17198614967E+03 0.  0.
         24    2    5    5    0    0  0.17040721737E+02  0.85592983689E+02  0.12448353762E+03  0.17187887258E+03  0.80185102416E+02 0.  0.
          5    1    5    5  501    0  0.28748851503E+02  0.11827330328E+03  0.40254592487E+03  0.42057149495E+03  0.47000000000E+01 0. -1.
        -11    1    6    6    0    0  0.45758379509E+02  0.26935377234E+02  0.52168885844E+02  0.74437466992E+02  0.00000000000E+00 0.  1.
         12    1    6    6    0    0 -0.28717657772E+02  0.58657606455E+02  0.72314651772E+02  0.97441405593E+02  0.00000000000E+00 0. -1.
         -5    1    3    3    0  503  0.33505707001E+02  0.38038975443E+01  0.76544184123E+02  0.83774722687E+02  0.47000000000E+01 0.  1.
         13    1    4    4    0    0  0.70875136695E+01 -0.11927474887E+02  0.11249109184E+03  0.11334347467E+03  0.00000000000E+00 0. -1.
        -14    1    4    4    0    0 -0.86382793910E+02 -0.19574270962E+03  0.56708558909E+03  0.60610499157E+03  0.00000000000E+00 0.  1.
</event>
<event>
12    1  0.8133506E-002  0.1861138E+03  0.7818608E-02  0.1162357E+00
         21   -1    0    0  501  502  0.00000000000E+00  0.00000000000E+00  0.52379276045E+02  0.52379276045E+02  0.00000000000E+00 0. -1.
         21   -1    0    0  502  503 -0.00000000000E+00 -0.00000000000E+00 -0.65884419189E+03  0.65884419189E+03  0.00000000000E+00 0.  1.
         -6    2    1    2    0  503 -0.39815953417E+02  0.54267964792E+02 -0.32748935296E+03  0.37667973620E+03  0.17351664245E+03 0.  0.
        -24    2    3    3    0    0 -0.84272723605E+01  0.23916139042E+02 -0.32159655435E+03  0.33237062088E+03  0.80018030651E+02 0.  0.
          6    2    1    2  501    0  0.39815953417E+02 -0.54267964792E+02 -0.27897556289E+03  0.33454373174E+03  0.17193551585E+03 0.  0.
         24    2    5    5    0    0 -0.91211044355E+01 -0.71482040780E+02 -0.25666397643E+03  0.27787754311E+03  0.78400608868E+02 0.  0.
          5    1    5    5  501    0  0.48937057852E+02  0.17214075988E+02 -0.22311586459E+02  0.56666188628E+02  0.47000000000E+01 0. -1.
        -11    1    6    6    0    0  0.24313567729E+02  0.33284967914E+01 -0.58037709139E+02  0.63012730053E+02  0.00000000000E+00 0.  1.
         12    1    6    6    0    0 -0.33434672165E+02 -0.74810537571E+02 -0.19862626729E+03  0.21486481306E+03  0.00000000000E+00 0. -1.
         -5    1    3    3    0  503 -0.31388681056E+02  0.30351825749E+02 -0.58927986157E+01  0.44309115319E+02  0.47000000000E+01 0.  1.
         13    1    4    4    0    0  0.14793396160E+02  0.36511660114E+02 -0.78376093408E+02  0.87719769221E+02  0.00000000000E+00 0. -1.
        -14    1    4    4    0    0 -0.23220668521E+02 -0.12595521071E+02 -0.24322046094E+03  0.24465085166E+03  0.00000000000E+00 0.  1.
</event>
<event>
12    1  0.8133506E-002  0.1870175E+03  0.7818608E-02  0.1162048E+00
         21   -1    0    0  503  502  0.00000000000E+00  0.00000000000E+00  0.31813895190E+03  0.31813895190E+03  0.00000000000E+00 0.  1.
         21   -1    0    0  501  503 -0.00000000000E+00 -0.00000000000E+00 -0.28002719233E+03  0.28002719233E+03  0.00000000000E+00 0.  1.
          6    2    1    2  501    0  0.61417943233E+02 -0.79472347186E+01 -0.21545101706E+03  0.28529752636E+03  0.17646590466E+03 0.  0.
         24    2    3    3    0    0  0.44666904746E+02  0.64964243720E+02 -0.12386569040E+03  0.16694786208E+03  0.79456869120E+02 0.  0.
         -6    2    1    2    0  502 -0.61417943233E+02  0.79472347186E+01  0.25356277663E+03  0.31286861786E+03  0.17250324073E+03 0.  0.
        -24    2    5    5    0    0 -0.12712241598E+02  0.50106770510E+02  0.62378364904E+02  0.11106861510E+03  0.75979519047E+02 0.  0.
          5    1    3    3  501    0  0.16751038486E+02 -0.72911478439E+02 -0.91585326654E+02  0.11834966429E+03  0.47000000000E+01 0. -1.
        -13    1    4    4    0    0  0.56542083094E+02  0.12197126275E+02 -0.63407942866E+02  0.85827409773E+02  0.00000000000E+00 0.  1.
         14    1    4    4    0    0 -0.11875178347E+02  0.52767117445E+02 -0.60457747539E+02  0.81120452302E+02  0.00000000000E+00 0. -1.
         -5    1    5    5    0  502 -0.48705701635E+02 -0.42159535792E+02  0.19118441172E+03  0.20180000276E+03  0.47000000000E+01 0.  1.
         13    1    6    6    0    0 -0.40637305281E+02  0.47581815812E+02  0.34168558403E+02  0.71294531065E+02  0.00000000000E+00 0. -1.
        -14    1    6    6    0    0  0.27925063683E+02  0.25249546988E+01  0.28209806501E+02  0.39774084035E+02  0.00000000000E+00 0.  1.
</event>
<event>
12    1  0.8133506E-002  0.1996290E+03  0.7818608E-02  0.1150535E+00
         21   -1    0    0  503  502  0.00000000000E+00  0.00000000000E+00  0.19011775814E+03  0.19011775814E+03  0.00000000000E+00 0. -1.
         21   -1    0    0  501  503 -0.00000000000E+00 -0.00000000000E+00 -0.28627611949E+03  0.28627611949E+03  0.00000000000E+00 0. -1.
          6    2    1    2  501    0  0.22208066371E+02 -0.98138243760E+02 -0.17343519258E+03  0.26444566971E+03  0.17241645254E+03 0.  0.
         24    2    3    3    0    0 -0.38974628771E+02 -0.51563533895E+02 -0.42432517604E+02  0.11247094605E+03  0.81678488225E+02 0.  0.
         -6    2    1    2    0  502 -0.22208066371E+02  0.98138243760E+02  0.77276831227E+02  0.21194820792E+03  0.16978227556E+03 0.  0.
        -24    2    5    5    0    0 -0.60525455468E+02  0.43400760067E+02 -0.16351333972E+01  0.10844167387E+03  0.78803339000E+02 0.  0.
          5    1    3    3  501    0  0.61182695142E+02 -0.46574709865E+02 -0.13100267497E+03  0.15197472367E+03  0.47000000000E+01 0. -1.
        -11    1    4    4    0    0 -0.10673153730E+02 -0.12733159392E+02 -0.59271447635E+02  0.61556105005E+02  0.00000000000E+00 0.  1.
         12    1    4    4    0    0 -0.28301475041E+02 -0.38830374503E+02  0.16838930032E+02  0.50914841041E+02  0.00000000000E+00 0. -1.
         -5    1    5    5    0  502  0.38317389097E+02  0.54737483693E+02  0.78911964624E+02  0.10350653404E+03  0.47000000000E+01 0.  1.
         13    1    6    6    0    0 -0.77359452396E+02  0.46640433449E+02 -0.66617962248E+01  0.90577008320E+02  0.00000000000E+00 0. -1.
        -14    1    6    6    0    0  0.16833996928E+02 -0.32396733822E+01  0.50266628275E+01  0.17864665554E+02  0.00000000000E+00 0.  1.
</event>
<event>
12    1  0.8133506E-002  0.1838912E+03  0.7818608E-02  0.1164111E+00
         21   -1    0    0  503  502  0.00000000000E+00  0.00000000000E+00  0.87864062928E+03  0.87864062928E+03  0.00000000000E+00 0.  1.
         21   -1    0    0  501  503 -0.00000000000E+00 -0.00000000000E+00 -0.38886303006E+02  0.38886303006E+02  0.00000000000E+00 0. -1.
          6    2    1    2  501    0 -0.34572015860E+02  0.54858616605E+02  0.37216975942E+03  0.41508162472E+03  0.17198178175E+03 0.  0.
         24    2    3    3    0    0  0.14409997355E+02  0.76852953023E+02  0.32479546455E+03  0.34332228896E+03  0.79145915227E+02 0.  0.
         -6    2    1    2    0  502  0.34572015860E+02 -0.54858616605E+02  0.46758456685E+03  0.50244530756E+03  0.17207924872E+03 0.  0.
        -24    2    5    5    0    0  0.40858962631E+02 -0.92770421464E+02  0.25071036206E+03  0.28214246747E+03  0.80454212965E+02 0.  0.
          5    1    3    3  501    0 -0.48982013216E+02 -0.21994336418E+02  0.47374294874E+02  0.71759335754E+02  0.47000000000E+01 0. -1.
        -11    1    4    4    0    0 -0.73129228082E+00 -0.12375751451E+02  0.10470859506E+02  0.16227535585E+02  0.00000000000E+00 0.  1.
         12    1    4    4    0    0  0.15141289636E+02  0.89228704474E+02  0.31432460504E+03  0.32709475338E+03  0.00000000000E+00 0. -1.
         -5    1    5    5    0  502 -0.62869467710E+01  0.37911804859E+02  0.21687420479E+03  0.22030284009E+03  0.47000000000E+01 0.  1.
         13    1    6    6    0    0 -0.80476924802E+01 -0.41490188194E+02  0.16796534484E+03  0.17320091841E+03  0.00000000000E+00 0. -1.
        -14    1    6    6    0    0  0.48906655112E+02 -0.51280233270E+02  0.82745017216E+02  0.10894154906E+03  0.00000000000E+00 0.  1.
</event>
<event>
12    1  0.8133506E-002  0.2079777E+03  0.7818608E-02  0.1143197E+00
         21   -1    0    0  503  502  0.00000000000E+00  0.00000000000E+00  0.45267880645E+03  0.45267880645E+03  0.00000000000E+00 0. -1.
         21   -1    0    0  501  503 -0.00000000000E+00 -0.00000000000E+00 -0.13538857005E+03  0.13538857005E+03  0.00000000000E+00 0. -1.
          6    2    1    2  501    0  0.33780069231E+02  0.11176291250E+03  0.31820169682E+03  0.38008772625E+03  0.17199511068E+03 0.  0.
         24    2    3    3    0    0 -0.71588726494E+01  0.91978584134E+02  0.30981946551E+03  0.33361441764E+03  0.82457073999E+02 0.  0.
         -6    2    1    2    0  502 -0.33780069231E+02 -0.11176291250E+03 -0.91146041737E+00  0.20797965025E+03  0.17211235421E+03 0.  0.
        -24    2    5    5    0    0  0.38507644107E+02 -0.58088333624E+02  0.34428628579E+02  0.11114223079E+03  0.79436590067E+02 0.  0.
          5    1    3    3  501    0  0.40938941880E+02  0.19784328363E+02  0.83822313072E+01  0.46473308606E+02  0.47000000000E+01 0. -1.
        -13    1    4    4    0    0 -0.36114805405E+02  0.11771048000E+02  0.82417900168E+02  0.90749914648E+02  0.00000000000E+00 0.  1.
         14    1    4    4    0    0  0.28955932755E+02  0.80207536134E+02  0.22740156534E+03  0.24286450299E+03  0.00000000000E+00 0. -1.
         -5    1    5    5    0  502 -0.72287713338E+02 -0.53674578873E+02 -0.35340088997E+02  0.96837419457E+02  0.47000000000E+01 0.  1.
         13    1    6    6    0    0  0.31637203365E+02 -0.21863285230E+02 -0.21571767510E+02  0.44093730068E+02  0.00000000000E+00 0. -1.
        -14    1    6    6    0    0  0.68704407422E+01 -0.36225048394E+02  0.56000396089E+02  0.67048500723E+02  0.00000000000E+00 0.  1.
</event>
<event>
12    1  0.8133506E-002  0.1859514E+03  0.7818608E-02  0.1162320E+00
         21   -1    0    0  501  502  0.00000000000E+00  0.00000000000E+00  0.36975485003E+03  0.36975485003E+03  0.00000000000E+00 0. -1.
         21   -1    0    0  502  503 -0.00000000000E+00 -0.00000000000E+00 -0.14153305512E+03  0.14153305512E+03  0.00000000000E+00 0. -1.
         -6    2    1    2    0  503 -0.54290315376E+02  0.44687051011E+02 -0.35177319772E+02  0.18924948082E+03  0.17214398419E+03 0.  0.
        -24    2    3    3    0    0 -0.48693660596E+02 -0.23982115996E+02 -0.63556701250E+02  0.11458853832E+03  0.78389185295E+02 0.  0.
          6    2    1    2  501    0  0.54290315376E+02 -0.44687051011E+02  0.26339911468E+03  0.32203842433E+03  0.17142135882E+03 0.  0.
         24    2    5    5    0    0  0.65870307459E+02  0.76394826792E+01  0.24429870051E+03  0.26495008782E+03  0.78226816779E+02 0.  0.
          5    1    5    5  501    0 -0.11579992083E+02 -0.52326533690E+02  0.19100414170E+02  0.57088336516E+02  0.47000000000E+01 0. -1.
        -11    1    6    6    0    0 -0.17573233080E+02  0.53046676849E+01  0.57219420705E+02  0.60091764211E+02  0.00000000000E+00 0.  1.
         12    1    6    6    0    0  0.83443540539E+02  0.23348149943E+01  0.18707927980E+03  0.20485832361E+03  0.00000000000E+00 0. -1.
         -5    1    3    3    0  503 -0.55966547807E+01  0.68669167007E+02  0.28379381478E+02  0.74660942502E+02  0.47000000000E+01 0.  1.
         11    1    4    4    0    0 -0.80211991670E+00 -0.31092415537E+02  0.41218611993E+01  0.31374694262E+02  0.00000000000E+00 0. -1.
        -12    1    4    4    0    0 -0.47891540679E+02  0.71102995408E+01 -0.67678562449E+02  0.83213844061E+02  0.00000000000E+00 0.  1.
</event>
<event>
12    1  0.8133506E-002  0.2460372E+03  0.7818608E-02  0.1115974E+00
         21   -1    0    0  501  502  0.00000000000E+00  0.00000000000E+00  0.10466886286E+04  0.10466886286E+04  0.00000000000E+00 0. -1.
         21   -1    0    0  502  503 -0.00000000000E+00 -0.00000000000E+00 -0.10647676143E+03  0.10647676143E+03  0.00000000000E+00 0.  1.
         -6    2    1    2    0  503 -0.13913555577E+03 -0.10673369055E+03  0.80032771849E+02  0.25872679965E+03  0.17257905062E+03 0.  0.
        -24    2    3    3    0    0 -0.68650408511E+02  0.13220584127E+02  0.35931185653E+02  0.11269863832E+03  0.80760575431E+02 0.  0.
          6    2    1    2  501    0  0.13913555577E+03  0.10673369055E+03  0.86017909535E+03  0.89443859040E+03  0.17135207134E+03 0.  0.
         24    2    5    5    0    0  0.44807915723E+02  0.79285644711E+02  0.27032821311E+03  0.29644423242E+03  0.80671416043E+02 0.  0.
          5    1    5    5  501    0  0.94327640050E+02  0.27448045834E+02  0.58985088224E+03  0.59799435798E+03  0.47000000000E+01 0. -1.
        -11    1    6    6    0    0  0.34380843891E+02  0.90536091178E+02  0.26124415486E+03  0.27861682412E+03  0.00000000000E+00 0.  1.
         12    1    6    6    0    0  0.10427071832E+02 -0.11250446467E+02  0.90840582488E+01  0.17827408307E+02  0.00000000000E+00 0. -1.
         -5    1    3    3    0  503 -0.70485147262E+02 -0.11995427467E+03  0.44101586196E+02  0.14602816133E+03  0.47000000000E+01 0.  1.
         13    1    4    4    0    0 -0.60259435937E+02 -0.22582831190E+02  0.39890058375E+02  0.75712618771E+02  0.00000000000E+00 0. -1.
        -14    1    4    4    0    0 -0.83909725739E+01  0.35803415316E+02 -0.39588727218E+01  0.36986019552E+02  0.00000000000E+00 0.  1.
</event>
<event>
12    1  0.8133506E-002  0.1923874E+03  0.7818608E-02  0.1156868E+00
         21   -1    0    0  501  502  0.00000000000E+00  0.00000000000E+00  0.79131130108E+03  0.79131130108E+03  0.00000000000E+00 0.  1.
         21   -1    0    0  502  503 -0.00000000000E+00 -0.00000000000E+00 -0.75675205572E+02  0.75675205572E+02  0.00000000000E+00 0.  1.
         -6    2    1    2    0  503 -0.74000975477E+02  0.35414309218E+02  0.85825384981E+02  0.20844688584E+03  0.17132947745E+03 0.  0.
        -24    2    3    3    0    0  0.12423816091E+02 -0.15482049137E+00  0.81074082517E+02  0.11475018120E+03  0.80250994099E+02 0.  0.
          6    2    1    2  501    0  0.74000975477E+02 -0.35414309218E+02  0.62981071053E+03  0.65853962081E+03  0.17401891682E+03 0.  0.
         24    2    5    5    0    0  0.53188358614E+02  0.46783724354E+02  0.33852514803E+03  0.35512727653E+03  0.80612581693E+02 0.  0.
          5    1    5    5  501    0  0.20812616864E+02 -0.82198033572E+02  0.29128556250E+03  0.30341234428E+03  0.47000000000E+01 0. -1.
        -13    1    6    6    0    0  0.70935299996E+01  0.59124588531E+02  0.19309746218E+03  0.20207094060E+03  0.00000000000E+00 0.  1.
         14    1    6    6    0    0  0.46094828614E+02 -0.12340864177E+02  0.14542768585E+03  0.15305633592E+03  0.00000000000E+00 0. -1.
         -5    1    3    3    0  503 -0.86424791568E+02  0.35569129709E+02  0.47513024647E+01  0.93696704643E+02  0.47000000000E+01 0.  1.
         11    1    4    4    0    0 -0.23833636715E+02 -0.24848583356E+02  0.51109285411E+02  0.61625103562E+02  0.00000000000E+00 0. -1.
        -12    1    4    4    0    0  0.36257452807E+02  0.24693762865E+02  0.29964797106E+02  0.53125077638E+02  0.00000000000E+00 0.  1.
</event>
<event>
12    1  0.8133506E-002  0.1997302E+03  0.7818608E-02  0.1150143E+00
         21   -1    0    0  501  502  0.00000000000E+00  0.00000000000E+00  0.24953478360E+03  0.24953478360E+03  0.00000000000E+00 0.  1.
         21   -1    0    0  502  503 -0.00000000000E+00 -0.00000000000E+00 -0.20857979551E+03  0.20857979551E+03  0.00000000000E+00 0. -1.
         -6    2    1    2    0  503  0.72847451870E+01 -0.10106691150E+03 -0.91005694039E+02  0.21872836375E+03  0.17115043865E+03 0.  0.
        -24    2    3    3    0    0  0.37298348271E+02 -0.12464858033E+03 -0.44292446360E+02  0.15822109986E+03  0.78381504666E+02 0.  0.
          6    2    1    2  501    0 -0.72847451870E+01  0.10106691150E+03  0.13196068213E+03  0.23938621535E+03  0.17211783859E+03 0.  0.
         24    2    5    5    0    0  0.17475909128E+01  0.12746502179E+03  0.14486943522E+03  0.20828687085E+03  0.78395672435E+02 0.  0.
          5    1    5    5  501    0 -0.90323360998E+01 -0.26398110284E+02 -0.12908753090E+02  0.31099344500E+02  0.47000000000E+01 0. -1.
        -11    1    6    6    0    0  0.77506074978E+01  0.10576376668E+03  0.15139708932E+03  0.18484351467E+03  0.00000000000E+00 0.  1.
         12    1    6    6    0    0 -0.60030165850E+01  0.21701255106E+02 -0.65276541024E+01  0.23443356189E+02  0.00000000000E+00 0. -1.
         -5    1    3    3    0  503 -0.30013603084E+02  0.23581668829E+02 -0.46713247679E+02  0.60507263891E+02  0.47000000000E+01 0.  1.
         11    1    4    4    0    0  0.29010559177E+02 -0.44110697077E+02 -0.55366937121E+02  0.76504012094E+02  0.00000000000E+00 0. -1.
        -12    1    4    4    0    0  0.82877890939E+01 -0.80537883256E+02  0.11074490761E+02  0.81717087767E+02  0.00000000000E+00 0.  1.
</event>
<event>
12    1  0.8133506E-002  0.2073999E+03  0.7818608E-02  0.1147331E+00
         21   -1    0    0  501  502  0.00000000000E+00  0.00000000000E+00  0.28511262196E+02  0.28511262196E+02  0.00000000000E+00 0.  1.
         21   -1    0    0  502  503 -0.00000000000E+00 -0.00000000000E+00 -0.14336373204E+04  0.14336373204E+04  0.00000000000E+00 0.  1.
         -6    2    1    2    0  503  0.29796479782E+02 -0.70895951754E+02 -0.80845623328E+03  0.83046069673E+03  0.17363588768E+03 0.  0.
        -24    2    3    3    0    0 -0.43172528822E+02 -0.39806555585E+01 -0.39969967561E+03  0.40985857295E+03  0.79652409116E+02 0.  0.
          6    2    1    2  501    0 -0.29796479782E+02  0.70895951754E+02 -0.59666982491E+03  0.63168788585E+03  0.19261526159E+03 0.  0.
         24    2    5    5    0    0  0.21701640681E+02  0.74009950498E+02 -0.18153243488E+03  0.21333050754E+03  0.81286201469E+02 0.  0.
          5    1    5    5  501    0 -0.51498120463E+02 -0.31139987445E+01 -0.41513739002E+03  0.41835737832E+03  0.47000000000E+01 0. -1.
        -11    1    6    6    0    0 -0.25764034945E+02  0.41737931372E+02 -0.11756607145E+03  0.12738768217E+03  0.00000000000E+00 0.  1.
         12    1    6    6    0    0  0.47465675626E+02  0.32272019126E+02 -0.63966363434E+02  0.85942825368E+02  0.00000000000E+00 0. -1.
         -5    1    3    3    0  503  0.72969008604E+02 -0.66915296195E+02 -0.40875655767E+03  0.42060212377E+03  0.47000000000E+01 0.  1.
         11    1    4    4    0    0 -0.55823181472E+02 -0.27088414166E+02 -0.23442983249E+03  0.24250228068E+03  0.00000000000E+00 0. -1.
        -12    1    4    4    0    0  0.12650652650E+02  0.23107758607E+02 -0.16526984312E+03  0.16735629228E+03  0.00000000000E+00 0.  1.
</event>
<event>
12    1  0.8133506E-002  0.2047954E+03  0.7818608E-02  0.1146062E+00
         21   -1    0    0  501  502  0.00000000000E+00  0.00000000000E+00  0.11293665911E+03  0.11293665911E+03  0.00000000000E+00 0.  1.
         21   -1    0    0  502  503 -0.00000000000E+00 -0.00000000000E+00 -0.43497681780E+03  0.43497681780E+03  0.00000000000E+00 0.  1.
         -6    2    1    2    0  503 -0.97552316918E+02  0.53825053726E+02 -0.26748893694E+03  0.33597716134E+03  0.17004920055E+03 0.  0.
        -24    2    3    3    0    0 -0.67317614778E+01  0.54954563840E+01 -0.19332170781E+03  0.20906383994E+03  0.79113145609E+02 0.  0.
          6    2    1    2  501    0  0.97552316918E+02 -0.53825053726E+02 -0.54551221753E+02  0.21193631558E+03  0.17183589590E+03 0.  0.
         24    2    5    5    0    0  0.50181794756E+02 -0.32044929538E+02  0.36904445955E+02  0.10655809517E+03  0.80296945656E+02 0.  0.
          5    1    5    5  501    0  0.47370522161E+02 -0.21780124188E+02 -0.91455667707E+02  0.10537822040E+03  0.47000000000E+01 0. -1.
        -13    1    6    6    0    0  0.55154932348E+02 -0.47682522072E+02  0.80339396384E+01  0.73350076071E+02  0.00000000000E+00 0.  1.
         14    1    6    6    0    0 -0.49731375916E+01  0.15637592534E+02  0.28870506316E+02  0.33208019103E+02  0.00000000000E+00 0. -1.
         -5    1    3    3    0  503 -0.90820555440E+02  0.48329597342E+02 -0.74167229137E+02  0.12691332140E+03  0.47000000000E+01 0.  1.
         13    1    4    4    0    0  0.32326144890E+02  0.95704914690E+01 -0.13206718862E+03  0.13630229734E+03  0.00000000000E+00 0. -1.
        -14    1    4    4    0    0 -0.39057906368E+02 -0.40750350850E+01 -0.61254519187E+02  0.72761542601E+02  0.00000000000E+00 0.  1.
</event>
<event>
12    1  0.8133506E-002  0.2142279E+03  0.7818608E-02  0.1138801E+00
         21   -1    0    0  503  502  0.00000000000E+00  0.00000000000E+00  0.30506587837E+02  0.30506587837E+02  0.00000000000E+00 0.  1.
         21   -1    0    0  501  503 -0.00000000000E+00 -0.00000000000E+00 -0.15699686546E+04  0.15699686546E+04  0.00000000000E+00 0. -1.
          6    2    1    2  501    0 -0.10862609664E+03 -0.66519697855E+02 -0.96074491176E+03  0.98433956966E+03  0.17224721725E+03 0.  0.
         24    2    3    3    0    0 -0.12938420963E+03 -0.31017085511E+02 -0.54664709918E+03  0.56817803477E+03  0.79378176212E+02 0.  0.
         -6    2    1    2    0  502  0.10862609664E+03  0.66519697855E+02 -0.57871715497E+03  0.61613567275E+03  0.16877536165E+03 0.  0.
        -24    2    5    5    0    0  0.10961804926E+03  0.71540507526E+02 -0.58618365288E+03  0.60593610948E+03  0.80082038748E+02 0.  0.
          5    1    3    3  501    0  0.20758112990E+02 -0.35502612345E+02 -0.41409781258E+03  0.41616153488E+03  0.47000000000E+01 0. -1.
        -11    1    4    4    0    0 -0.35367157023E+02  0.25738705403E+02 -0.12370409785E+03  0.13120983415E+03  0.00000000000E+00 0.  1.
         12    1    4    4    0    0 -0.94017052602E+02 -0.56755790914E+02 -0.42294300133E+03  0.43696820062E+03  0.00000000000E+00 0. -1.
         -5    1    5    5    0  502 -0.99195262682E+00 -0.50208096709E+01  0.74664979085E+01  0.10199563264E+02  0.47000000000E+01 0.  1.
         11    1    6    6    0    0  0.83493924789E+02  0.12790739674E+02 -0.40410620029E+03  0.41283975053E+03  0.00000000000E+00 0. -1.
        -12    1    6    6    0    0  0.26124124473E+02  0.58749767852E+02 -0.18207745259E+03  0.19309635896E+03  0.00000000000E+00 0.  1.
</event>
<event>
12    1  0.8133506E-002  0.1880930E+03  0.7818608E-02  0.1160603E+00
         21   -1    0    0  501  502  0.00000000000E+00  0.00000000000E+00  0.32360311897E+03  0.32360311897E+03  0.00000000000E+00 0. -1.
         21   -1    0    0  502  503 -0.00000000000E+00 -0.00000000000E+00 -0.11109138587E+03  0.11109138587E+03  0.00000000000E+00 0. -1.
         -6    2    1    2    0  503 -0.26290083137E+02  0.66729749233E+02  0.72254777755E+02  0.20149370939E+03  0.17388195453E+03 0.  0.
        -24    2    3    3    0    0 -0.61746560069E+02  0.11828975452E+01  0.75711914769E+02  0.12674350324E+03  0.80731559192E+02 0.  0.
          6    2    1    2  501    0  0.26290083137E+02 -0.66729749233E+02  0.14025695534E+03  0.23320079545E+03  0.17194932268E+03 0.  0.
         24    2    5    5    0    0  0.83312173652E+02 -0.57151104039E+02  0.96145411171E+02  0.16032290045E+03  0.79071646919E+02 0.  0.
          5    1    5    5  501    0 -0.57022090516E+02 -0.95786451944E+01  0.44111544174E+02  0.72877895002E+02  0.47000000000E+01 0. -1.
        -11    1    6    6    0    0  0.14491201627E+02  0.74472015009E+01 -0.93341183831E+01  0.18777153692E+02  0.00000000000E+00 0.  1.
         12    1    6    6    0    0  0.68820972026E+02 -0.64598305539E+02  0.10547952955E+03  0.14154574675E+03  0.00000000000E+00 0. -1.
         -5    1    3    3    0  503  0.35456476933E+02  0.65546851688E+02 -0.34571370143E+01  0.74750206147E+02  0.47000000000E+01 0.  1.
         13    1    4    4    0    0 -0.18013206471E+02  0.37749397534E+02  0.17723549486E+02  0.45427049518E+02  0.00000000000E+00 0. -1.
        -14    1    4    4    0    0 -0.43733353598E+02 -0.36566499989E+02  0.57988365283E+02  0.81316453726E+02  0.00000000000E+00 0.  1.
</event>
<event>
12    1  0.8133506E-002  0.2371574E+03  0.7818608E-02  0.1121706E+00
         21   -1    0    0  503  502  0.00000000000E+00  0.00000000000E+00  0.14255295197E+04  0.14255295197E+04  0.00000000000E+00 0.  1.
         21   -1    0    0  501  503 -0.00000000000E+00 -0.00000000000E+00 -0.78746417688E+02  0.78746417688E+02  0.00000000000E+00 0. -1.
          6    2    1    2  501    0 -0.13965820379E+03  0.83816517512E+02  0.12047393050E+04  0.12278601079E+04  0.17237757697E+03 0.  0.
         24    2    3    3    0    0 -0.50793261511E+02 -0.23644568194E+02  0.56207537077E+03  0.57022503791E+03  0.78031086201E+02 0.  0.
         -6    2    1    2    0  502  0.13965820379E+03 -0.83816517512E+02  0.14204379707E+03  0.27641582955E+03  0.17233585828E+03 0.  0.
        -24    2    5    5    0    0  0.19404066547E+02 -0.79161942652E+02  0.59221976398E+02  0.13025062655E+03  0.82552118474E+02 0.  0.
          5    1    3    3  501    0 -0.88864942275E+02  0.10746108571E+03  0.64266393421E+03  0.65763506996E+03  0.47000000000E+01 0. -1.
        -11    1    4    4    0    0 -0.39590384420E+02  0.23275373098E+02  0.33077667430E+03  0.33394962164E+03  0.00000000000E+00 0.  1.
         12    1    4    4    0    0 -0.11202877091E+02 -0.46919941292E+02  0.23129869647E+03  0.23627541628E+03  0.00000000000E+00 0. -1.
         -5    1    5    5    0  502  0.12025413724E+03 -0.46545748607E+01  0.82821820668E+02  0.14616520300E+03  0.47000000000E+01 0.  1.
         11    1    6    6    0    0  0.49745657761E+02 -0.54474749532E+02  0.23897499479E+02  0.77544950087E+02  0.00000000000E+00 0. -1.
        -12    1    6    6    0    0 -0.30341591214E+02 -0.24687193120E+02  0.35324476919E+02  0.52705676461E+02  0.00000000000E+00 0.  1.
</event>
<event>
12    1  0.8133506E-002  0.1812004E+03  0.7818608E-02  0.1166746E+00
         21   -1    0    0  501  502  0.00000000000E+00  0.00000000000E+00  0.50924287579E+02  0.50924287579E+02  0.00000000000E+00 0. -1.
         21   -1    0    0  502  503 -0.00000000000E+00 -0.00000000000E+00 -0.80834057414E+03  0.80834057414E+03  0.00000000000E+00 0. -1.
         -6    2    1    2    0  503 -0.10750539648E+02 -0.55064201542E+02 -0.57250657650E+03  0.60037266056E+03  0.17186014958E+03 0.  0.
        -24    2    3    3    0    0 -0.65442282239E+02  0.15062466207E+01 -0.31464798001E+03  0.33073485145E+03  0.78084758816E+02 0.  0.
          6    2    1    2  501    0  0.10750539648E+02  0.55064201542E+02 -0.18490971006E+03  0.25889220116E+03  0.17229605495E+03 0.  0.
         24    2    5    5    0    0 -0.19619479015E+02  0.93049304215E+02 -0.10718831224E+03  0.16708854253E+03  0.85942712271E+02 0.  0.
          5    1    5    5  501    0  0.30370018664E+02 -0.37985102674E+02 -0.77721397813E+02  0.91803658624E+02  0.47000000000E+01 0. -1.
        -13    1    6    6    0    0  0.14879779463E+02 -0.34926782562E+01 -0.44189651408E+02  0.46758228471E+02  0.00000000000E+00 0.  1.
         14    1    6    6    0    0 -0.34499258478E+02  0.96541982472E+02 -0.62998660835E+02  0.12033031406E+03  0.00000000000E+00 0. -1.
         -5    1    3    3    0  503  0.54691742590E+02 -0.56570448162E+02 -0.25785859650E+03  0.26963780911E+03  0.47000000000E+01 0.  1.
         11    1    4    4    0    0 -0.48277570652E+02 -0.14661369259E+02 -0.29706924641E+03  0.30132344207E+03  0.00000000000E+00 0. -1.
        -12    1    4    4    0    0 -0.17164711586E+02  0.16167615880E+02 -0.17578733594E+02  0.29411409382E+02  0.00000000000E+00 0.  1.
</event>
<event>
12    1  0.8133506E-002  0.2200631E+03  0.7818608E-02  0.1133872E+00
         21   -1    0    0  503  502  0.00000000000E+00  0.00000000000E+00  0.11324828749E+03  0.11324828749E+03  0.00000000000E+00 0.  1.
         21   -1    0    0  501  503 -0.00000000000E+00 -0.00000000000E+00 -0.56094669172E+03  0.56094669172E+03  0.00000000000E+00 0.  1.
          6    2    1    2  501    0 -0.10070628007E+03 -0.93532810767E+02 -0.38849359661E+03  0.44649191542E+03  0.17186510522E+03 0.  0.
         24    2    3    3    0    0 -0.10038320000E+03 -0.30521178658E+01 -0.25497646791E+03  0.28513586866E+03  0.78761425479E+02 0.  0.
         -6    2    1    2    0  502  0.10070628007E+03  0.93532810767E+02 -0.59204807617E+02  0.22770306379E+03  0.17161973802E+03 0.  0.
        -24    2    5    5    0    0  0.41654610055E+02  0.78214073874E+02  0.18254874702E+02  0.12899209268E+03  0.91941131348E+02 0.  0.
          5    1    3    3  501    0 -0.32308007101E+00 -0.90480692901E+02 -0.13351712870E+03  0.16135604676E+03  0.47000000000E+01 0. -1.
        -11    1    4    4    0    0 -0.38632106799E+02  0.17626970421E+02 -0.18389333695E+03  0.18873237437E+03  0.00000000000E+00 0.  1.
         12    1    4    4    0    0 -0.61751093202E+02 -0.20679088287E+02 -0.71083130963E+02  0.96403494291E+02  0.00000000000E+00 0. -1.
         -5    1    5    5    0  502  0.59051670017E+02  0.15318736893E+02 -0.77459682319E+02  0.98710971107E+02  0.47000000000E+01 0.  1.
         13    1    6    6    0    0  0.14347105937E+02  0.73175108696E+01 -0.33428028798E+02  0.37105505298E+02  0.00000000000E+00 0. -1.
        -14    1    6    6    0    0  0.27307504118E+02  0.70896563005E+02  0.51682903501E+02  0.91886587385E+02  0.00000000000E+00 0.  1.
</event>
<event>
12    1  0.8133506E-002  0.3234149E+03  0.7818608E-02  0.1074194E+00
         21   -1    0    0  501  502  0.00000000000E+00  0.00000000000E+00  0.17118713017E+03  0.17118713017E+03  0.00000000000E+00 0. -1.
         21   -1    0    0  502  503 -0.00000000000E+00 -0.00000000000E+00 -0.15648239748E+04  0.15648239748E+04  0.00000000000E+00 0.  1.
         -6    2    1    2    0  503 -0.26942782903E+03 -0.49568665688E+02 -0.13755084749E+04  0.14130183156E+04  0.17189760908E+03 0.  0.
        -24    2    3    3    0    0 -0.26798699878E+03 -0.67888582631E+02 -0.11044875338E+04  0.11413344260E+04  0.79534071276E+02 0.  0.
          6    2    1    2  501    0  0.26942782903E+03  0.49568665688E+02 -0.18128369777E+02  0.32299278943E+03  0.17013905066E+03 0.  0.
         24    2    5    5    0    0  0.23437346642E+03  0.86787222582E+02 -0.43397119461E+02  0.26576841503E+03  0.79288061418E+02 0.  0.
          5    1    5    5  501    0  0.35054362605E+02 -0.37218556894E+02  0.25268749684E+02  0.57224374400E+02  0.47000000000E+01 0. -1.
        -13    1    6    6    0    0  0.80443425740E+02  0.47625864006E+02 -0.51494149995E+02  0.10672869882E+03  0.00000000000E+00 0.  1.
         14    1    6    6    0    0  0.15393004068E+03  0.39161358576E+02  0.80970305342E+01  0.15903971621E+03  0.00000000000E+00 0. -1.
         -5    1    3    3    0  503 -0.14408302516E+01  0.18319916943E+02 -0.27102094111E+03  0.27168388960E+03  0.47000000000E+01 0.  1.
         11    1    4    4    0    0 -0.24707716374E+02 -0.16773798090E+02 -0.52744341935E+02  0.60611856570E+02  0.00000000000E+00 0. -1.
        -12    1    4    4    0    0 -0.24327928240E+03 -0.51114784542E+02 -0.10517431919E+04  0.10807225694E+04  0.00000000000E+00 0.  1.
</event>
<event>
12    1  0.8133506E-002  0.2249782E+03  0.7818608E-02  0.1130895E+00
         21   -1    0    0  501  502  0.00000000000E+00  0.00000000000E+00  0.11294899891E+04  0.11294899891E+04  0.00000000000E+00 0.  1.
         21   -1    0    0  502  503 -0.00000000000E+00 -0.00000000000E+00 -0.44224725952E+02  0.44224725952E+02  0.00000000000E+00 0.  1.
         -6    2    1    2    0  503 -0.33191127477E+02 -0.13792432492E+03  0.51407463897E+03  0.56114875419E+03  0.17461506108E+03 0.  0.
        -24    2    3    3    0    0  0.41245672594E+01 -0.15710218657E+03  0.33743676633E+03  0.37953576044E+03  0.74065599965E+02 0.  0.
          6    2    1    2  501    0  0.33191127477E+02  0.13792432492E+03  0.57119062415E+03  0.61256596083E+03  0.16986334773E+03 0.  0.
         24    2    5    5    0    0  0.16506711915E+02  0.38065403137E+01  0.14828251323E+03  0.16856223320E+03  0.78348972185E+02 0.  0.
          5    1    5    5  501    0  0.16684415562E+02  0.13411778460E+03  0.42290811092E+03  0.44400372763E+03  0.47000000000E+01 0. -1.
        -13    1    6    6    0    0  0.19991059719E+02  0.18907691438E+02  0.15042138688E+03  0.15291741855E+03  0.00000000000E+00 0.  1.
         14    1    6    6    0    0 -0.34843478045E+01 -0.15101151124E+02 -0.21388736496E+01  0.15644814648E+02  0.00000000000E+00 0. -1.
         -5    1    3    3    0  503 -0.37315694736E+02  0.19177861659E+02  0.17663787263E+03  0.18161299375E+03  0.47000000000E+01 0.  1.
         13    1    4    4    0    0  0.37549134783E+02 -0.79736061769E+02  0.14907313571E+03  0.17317787636E+03  0.00000000000E+00 0. -1.
        -14    1    4    4    0    0 -0.33424567524E+02 -0.77366124806E+02  0.18836363062E+03  0.20635788408E+03  0.00000000000E+00 0.  1.
</event>
<event>
12    1  0.8133506E-002  0.2573765E+03  0.7818608E-02  0.1109188E+00
         21   -1    0    0  501  502  0.00000000000E+00  0.00000000000E+00  0.14274280940E+03  0.14274280940E+03  0.00000000000E+00 0.  1.
         21   -1    0    0  502  503 -0.00000000000E+00 -0.00000000000E+00 -0.49178724277E+03  0.49178724277E+03  0.00000000000E+00 0.  1.
         -6    2    1    2    0  503  0.18270840596E+03 -0.38277505917E+02 -0.25776995125E+03  0.36426365541E+03  0.17718672021E+03 0.  0.
        -24    2    3    3    0    0  0.16071425450E+03 -0.85567832157E+02 -0.23387996419E+03  0.30670551840E+03  0.78851200814E+02 0.  0.
          6    2    1    2  501    0 -0.18270840596E+03  0.38277505917E+02 -0.91274482109E+02  0.27026639676E+03  0.17281598614E+03 0.  0.
         24    2    5    5    0    0 -0.16180164873E+03 -0.23394952128E+02 -0.38384869858E+02  0.18624267592E+03  0.80534705454E+02 0.  0.
          5    1    5    5  501    0 -0.20906757226E+02  0.61672458045E+02 -0.52889612251E+02  0.84023720836E+02  0.47000000000E+01 0. -1.
        -13    1    6    6    0    0 -0.46119773871E+02  0.29634564088E+02 -0.15225642839E+02  0.56895176689E+02  0.00000000000E+00 0.  1.
         14    1    6    6    0    0 -0.11568187486E+03 -0.53029516216E+02 -0.23159227019E+02  0.12934749923E+03  0.00000000000E+00 0. -1.
         -5    1    3    3    0  503  0.21994151458E+02  0.47290326240E+02 -0.23889987066E+02  0.57558137012E+02  0.47000000000E+01 0.  1.
         13    1    4    4    0    0  0.38668241967E+02 -0.57107550983E+02 -0.11425114645E+03  0.13345347422E+03  0.00000000000E+00 0. -1.
        -14    1    4    4    0    0  0.12204601253E+03 -0.28460281174E+02 -0.11962881773E+03  0.17325204418E+03  0.00000000000E+00 0.  1.
</event>
<event>
12    1  0.8133506E-002  0.1927903E+03  0.7818608E-02  0.1156395E+00
         21   -1    0    0  501  502  0.00000000000E+00  0.00000000000E+00  0.31584986490E+03  0.31584986490E+03  0.00000000000E+00 0.  1.
         21   -1    0    0  502  503 -0.00000000000E+00 -0.00000000000E+00 -0.19677919144E+03  0.19677919144E+03  0.00000000000E+00 0.  1.
         -6    2    1    2    0  503  0.65712285076E+02 -0.50230854527E+02 -0.10399201092E+03  0.21904890369E+03  0.17414603273E+03 0.  0.
        -24    2    3    3    0    0  0.10914048268E+03 -0.48829888325E+02 -0.69309425767E+02  0.16325515165E+03  0.86904804745E+02 0.  0.
          6    2    1    2  501    0 -0.65712285076E+02  0.50230854527E+02  0.22306268439E+03  0.29358015265E+03  0.17202064326E+03 0.  0.
         24    2    5    5    0    0 -0.41850349693E+02  0.89503009649E+02  0.99513811411E+02  0.16167826433E+03  0.80465035828E+02 0.  0.
          5    1    5    5  501    0 -0.23861935383E+02 -0.39272155122E+02  0.12354887298E+03  0.13190188832E+03  0.47000000000E+01 0. -1.
        -11    1    6    6    0    0 -0.43241233029E+02  0.10411869326E+03  0.88284615132E+02  0.14319455223E+03  0.00000000000E+00 0.  1.
         12    1    6    6    0    0  0.13908833362E+01 -0.14615683613E+02  0.11229196279E+02  0.18483712100E+02  0.00000000000E+00 0. -1.
         -5    1    3    3    0  503 -0.43428197603E+02 -0.14009662023E+01 -0.34682585158E+02  0.55793752039E+02  0.47000000000E+01 0.  1.
         11    1    4    4    0    0 -0.53768737486E+01  0.15014638789E+02 -0.26372123057E+01  0.16164932354E+02  0.00000000000E+00 0. -1.
        -12    1    4    4    0    0  0.11451735643E+03 -0.63844527114E+02 -0.66672213461E+02  0.14709021930E+03  0.00000000000E+00 0.  1.
</event>
<event>
12    1  0.8133506E-002  0.1833486E+03  0.7818608E-02  0.1164868E+00
         21   -1    0    0  501  502  0.00000000000E+00  0.00000000000E+00  0.11946733810E+03  0.11946733810E+03  0.00000000000E+00 0. -1.
         21   -1    0    0  502  503 -0.00000000000E+00 -0.00000000000E+00 -0.80224429399E+03  0.80224429399E+03  0.00000000000E+00 0. -1.
         -6    2    1    2    0  503 -0.59953450737E+02  0.12495450277E+00 -0.71370971550E+03  0.73688415730E+03  0.17326936084E+03 0.  0.
        -24    2    3    3    0    0 -0.15468604530E+02  0.37099053875E+00 -0.14680304145E+03  0.16821533526E+03  0.80658853679E+02 0.  0.
          6    2    1    2  501    0  0.59953450737E+02 -0.12495450277E+00  0.30932759615E+02  0.18482747480E+03  0.17207535545E+03 0.  0.
         24    2    5    5    0    0  0.12199235116E+02 -0.33994949523E+02 -0.37348363620E+02  0.94760591524E+02  0.79247659337E+02 0.  0.
          5    1    5    5  501    0  0.47754215621E+02  0.33869995020E+02  0.68281123234E+02  0.90066883272E+02  0.47000000000E+01 0. -1.
        -13    1    6    6    0    0 -0.13258553925E+02  0.10189420221E+01 -0.48307583619E+02  0.50104392324E+02  0.00000000000E+00 0.  1.
         14    1    6    6    0    0  0.25457789041E+02 -0.35013891545E+02  0.10959220000E+02  0.44656199200E+02  0.00000000000E+00 0. -1.
         -5    1    3    3    0  503 -0.44484846207E+02 -0.24603603598E+00 -0.56690667405E+03  0.56866882204E+03  0.47000000000E+01 0.  1.
         13    1    4    4    0    0  0.53294018322E+01  0.37730691461E+02 -0.54621341976E+02  0.66599539047E+02  0.00000000000E+00 0. -1.
        -14    1    4    4    0    0 -0.20798006362E+02 -0.37359700922E+02 -0.92181699473E+02  0.10161579621E+03  0.00000000000E+00 0.  1.
</event>
<event>
12    1  0.8133506E-002  0.1854388E+03  0.7818608E-02  0.1162763E+00
         21   -1    0    0  503  502  0.00000000000E+00  0.00000000000E+00  0.24733786532E+02  0.24733786532E+02  0.00000000000E+00 0.  1.
         21   -1    0    0  501  503 -0.00000000000E+00 -0.00000000000E+00 -0.14467817146E+04  0.14467817146E+04  0.00000000000E+00 0. -1.
          6    2    1    2  501    0 -0.56682268635E+02 -0.42133985148E+02 -0.86040219602E+03  0.88004827410E+03  0.17089433447E+03 0.  0.
         24    2    3    3    0    0 -0.96959335355E+02 -0.37464976854E+02 -0.76632756356E+03  0.77749990398E+03  0.80270971206E+02 0.  0.
         -6    2    1    2    0  502  0.56682268635E+02  0.42133985148E+02 -0.56164573202E+03  0.59146722700E+03  0.17146253246E+03 0.  0.
        -24    2    5    5    0    0  0.30696743431E+02 -0.43173183383E+02 -0.29266534897E+03  0.30805040148E+03  0.80223622098E+02 0.  0.
          5    1    3    3  501    0  0.40277066720E+02 -0.46690082939E+01 -0.94074632460E+02  0.10254837012E+03  0.47000000000E+01 0. -1.
        -11    1    4    4    0    0 -0.75333470841E+02 -0.54475658532E+01 -0.29231562263E+03  0.30191593372E+03  0.00000000000E+00 0.  1.
         12    1    4    4    0    0 -0.21625864514E+02 -0.32017411001E+02 -0.47401194093E+03  0.47558397026E+03  0.00000000000E+00 0. -1.
         -5    1    5    5    0  502  0.25985525204E+02  0.85307168531E+02 -0.26898038305E+03  0.28341682553E+03  0.47000000000E+01 0.  1.
         13    1    6    6    0    0 -0.15293994566E+02 -0.13210094232E+02 -0.19477753742E+03  0.19582313945E+03  0.00000000000E+00 0. -1.
        -14    1    6    6    0    0  0.45990737997E+02 -0.29963089151E+02 -0.97887811547E+02  0.11222726203E+03  0.00000000000E+00 0.  1.
</event>
<event>
12    1  0.8133506E-002  0.1809960E+03  0.7818608E-02  0.1166846E+00
         21   -1    0    0  503  502  0.00000000000E+00  0.00000000000E+00  0.44924875493E+03  0.44924875493E+03  0.00000000000E+00 0.  1.
         21   -1    0    0  501  503 -0.00000000000E+00 -0.00000000000E+00 -0.11541587592E+03  0.11541587592E+03  0.00000000000E+00 0.  1.
          6    2    1    2  501    0 -0.55287548854E+02  0.17256931074E+02 -0.44132858288E+01  0.18103717013E+03  0.17146563839E+03 0.  0.
         24    2    3    3    0    0 -0.52422159072E+02  0.60442432920E+02 -0.54368524956E+02  0.11477395300E+03  0.61771784183E+02 0.  0.
         -6    2    1    2    0  502  0.55287548854E+02 -0.17256931074E+02  0.33824616484E+03  0.38362746072E+03  0.17147899540E+03 0.  0.
        -24    2    5    5    0    0 -0.21783997905E+02 -0.71529572119E+01  0.26151807464E+03  0.27430498621E+03  0.79534990625E+02 0.  0.
          5    1    3    3  501    0 -0.28653897822E+01 -0.43185501845E+02  0.49955239127E+02  0.66263217131E+02  0.47000000000E+01 0. -1.
        -11    1    4    4    0    0 -0.27436913757E+02 -0.64690969965E+01 -0.69218408386E+01  0.29026631446E+02  0.00000000000E+00 0.  1.
         12    1    4    4    0    0 -0.24985245315E+02  0.66911529916E+02 -0.47446684117E+02  0.85747321550E+02  0.00000000000E+00 0. -1.
         -5    1    5    5    0  502  0.77071546759E+02 -0.10103973863E+02  0.76728090194E+02  0.10932247451E+03  0.47000000000E+01 0.  1.
         13    1    6    6    0    0 -0.18149922463E+02  0.25990501839E+02  0.43909605700E+02  0.54156987952E+02  0.00000000000E+00 0. -1.
        -14    1    6    6    0    0 -0.36340754420E+01 -0.33143459051E+02  0.21760846894E+03  0.22014799826E+03  0.00000000000E+00 0.  1.
</event>
<event>
12    1  0.8133506E-002  0.1891968E+03  0.7818608E-02  0.1159707E+00
         21   -1    0    0  503  502  0.00000000000E+00  0.00000000000E+00  0.30122489047E+03  0.30122489047E+03  0.00000000000E+00 0. -1.
         21   -1    0    0  501  503 -0.00000000000E+00 -0.00000000000E+00 -0.20925678819E+03  0.20925678819E+03  0.00000000000E+00 0. -1.
          6    2    1    2  501    0  0.21627407302E+02 -0.70151164669E+02 -0.12327223106E+03  0.22390914671E+03  0.17190210115E+03 0.  0.
         24    2    3    3    0    0  0.32327950070E+02 -0.58334182886E+02 -0.15645975227E+02  0.11500715583E+03  0.92378980842E+02 0.  0.
         -6    2    1    2    0  502 -0.21627407302E+02  0.70151164669E+02  0.21524033335E+03  0.28657253195E+03  0.17437455180E+03 0.  0.
        -24    2    5    5    0    0  0.44463776490E+00  0.26797562519E+02  0.22214458268E+03  0.23721193378E+03  0.78758992206E+02 0.  0.
          5    1    3    3  501    0 -0.10700542767E+02 -0.11816981783E+02 -0.10762625584E+03  0.10890199089E+03  0.47000000000E+01 0. -1.
        -11    1    4    4    0    0 -0.12105528783E+02 -0.11187046558E+01  0.27935039158E+02  0.30465746995E+02  0.00000000000E+00 0.  1.
         12    1    4    4    0    0  0.44433478853E+02 -0.57215478230E+02 -0.43581014385E+02  0.84541408830E+02  0.00000000000E+00 0. -1.
         -5    1    5    5    0  502 -0.22072045067E+02  0.43353602150E+02 -0.69042493298E+01  0.49360598169E+02  0.47000000000E+01 0.  1.
         13    1    6    6    0    0 -0.11703154046E+02 -0.17659542285E+02  0.15076995206E+03  0.15225111393E+03  0.00000000000E+00 0. -1.
        -14    1    6    6    0    0  0.12147791811E+02  0.44457104805E+02  0.71374630618E+02  0.84960819849E+02  0.00000000000E+00 0.  1.
</event>
<event>
12    1  0.8133506E-002  0.1916973E+03  0.7818608E-02  0.1157881E+00
         21   -1    0    0  503  502  0.00000000000E+00  0.00000000000E+00  0.10538266182E+04  0.10538266182E+04  0.00000000000E+00 0.  1.
         21   -1    0    0  501  503 -0.00000000000E+00 -0.00000000000E+00 -0.72871909622E+02  0.72871909622E+02  0.00000000000E+00 0.  1.
          6    2    1    2  501    0 -0.80476200027E+02 -0.10370195468E+01  0.82180520608E+02  0.20857012825E+03  0.17398381031E+03 0.  0.
         24    2    3    3    0    0  0.17565918816E+01  0.13328701774E+02 -0.13245851045E+02  0.81696614777E+02  0.79486756067E+02 0.  0.
         -6    2    1    2    0  502  0.80476200027E+02  0.10370195468E+01  0.89877418800E+03  0.91812839961E+03  0.16937302903E+03 0.  0.
        -24    2    5    5    0    0  0.21549897307E+02 -0.18857679749E+02  0.77634706613E+03  0.78072898773E+03  0.77478868357E+02 0.  0.
          5    1    3    3  501    0 -0.82232791909E+02 -0.14365721321E+02  0.95426371653E+02  0.12687351347E+03  0.47000000000E+01 0. -1.
        -13    1    4    4    0    0 -0.61966309319E+01  0.46052322814E+02 -0.12025824771E+02  0.47998282604E+02  0.00000000000E+00 0.  1.
         14    1    4    4    0    0  0.79532228135E+01 -0.32723621040E+02 -0.12200262736E+01  0.33698332173E+02  0.00000000000E+00 0. -1.
         -5    1    5    5    0  502  0.58926302720E+02  0.19894699296E+02  0.12242712188E+03  0.13739941187E+03  0.47000000000E+01 0.  1.
         13    1    6    6    0    0  0.35451341503E+02  0.14965679138E+02  0.23331672878E+03  0.23646874021E+03  0.00000000000E+00 0. -1.
        -14    1    6    6    0    0 -0.13901444196E+02 -0.33823358887E+02  0.54303033734E+03  0.54426024752E+03  0.00000000000E+00 0.  1.
</event>
<event>
12    1  0.8133506E-002  0.1877594E+03  0.7818608E-02  0.1160786E+00
         21   -1    0    0  501  502  0.00000000000E+00  0.00000000000E+00  0.29767691056E+03  0.29767691056E+03  0.00000000000E+00 0. -1.
         21   -1    0    0  502  503 -0.00000000000E+00 -0.00000000000E+00 -0.12467708251E+03  0.12467708251E+03  0.00000000000E+00 0. -1.
         -6    2    1    2    0  503 -0.25525782519E+02 -0.69586550525E+02  0.36597007189E+02  0.19129281881E+03  0.17251013884E+03 0.  0.
        -24    2    3    3    0    0  0.27803001414E+01  0.19531573667E+02 -0.19318857825E+02  0.82242608648E+02  0.77468806437E+02 0.  0.
          6    2    1    2  501    0  0.25525782519E+02  0.69586550525E+02  0.13640282086E+03  0.23106117425E+03  0.17114228911E+03 0.  0.
         24    2    5    5    0    0 -0.35526458140E+02  0.75108152898E+00  0.97809674064E+02  0.13117514490E+03  0.79859207024E+02 0.  0.
          5    1    5    5  501    0  0.61052240659E+02  0.68835468996E+02  0.38593146797E+02  0.99886029359E+02  0.47000000000E+01 0. -1.
        -13    1    6    6    0    0 -0.39788867987E+02 -0.21076117343E+02  0.18281581986E+02  0.48596018127E+02  0.00000000000E+00 0.  1.
         14    1    6    6    0    0  0.42624098470E+01  0.21827198872E+02  0.79528092078E+02  0.82579126768E+02  0.00000000000E+00 0. -1.
         -5    1    3    3    0  503 -0.28306082661E+02 -0.89118124193E+02  0.55915865014E+02  0.10905021016E+03  0.47000000000E+01 0.  1.
         13    1    4    4    0    0 -0.12066574527E+01 -0.21661240098E+02 -0.32264219076E+02  0.38879881396E+02  0.00000000000E+00 0. -1.
        -14    1    4    4    0    0  0.39869575941E+01  0.41192813766E+02  0.12945361251E+02  0.43362727252E+02  0.00000000000E+00 0.  1.
</event>
<event>
12    1  0.8133506E-002  0.2300134E+03  0.7818608E-02  0.1126866E+00
         21   -1    0    0  503  502  0.00000000000E+00  0.00000000000E+00  0.15879637770E+03  0.15879637770E+03  0.00000000000E+00 0. -1.
         21   -1    0    0  501  503 -0.00000000000E+00 -0.00000000000E+00 -0.33366433660E+03  0.33366433660E+03  0.00000000000E+00 0.  1.
          6    2    1    2  501    0 -0.12487769139E+03  0.85223293296E+02 -0.10816868483E+03  0.25297177190E+03  0.17157157536E+03 0.  0.
         24    2    3    3    0    0 -0.78382180562E+02  0.87447626029E+00 -0.44023579557E+01  0.11131692357E+03  0.78914800758E+02 0.  0.
         -6    2    1    2    0  502  0.12487769139E+03 -0.85223293296E+02 -0.66699274073E+02  0.23948894240E+03  0.17334564558E+03 0.  0.
        -24    2    5    5    0    0  0.52962861221E+02 -0.38373335866E+02  0.32492151219E+02  0.10823464662E+03  0.79883798503E+02 0.  0.
          5    1    3    3  501    0 -0.46495510827E+02  0.84348817035E+02 -0.10376632687E+03  0.14165484833E+03  0.47000000000E+01 0. -1.
        -13    1    4    4    0    0 -0.62317924505E+02  0.33253368024E+02 -0.17673788929E+02  0.72812588298E+02  0.00000000000E+00 0.  1.
         14    1    4    4    0    0 -0.16064256057E+02 -0.32378891764E+02  0.13271430973E+02  0.38504335270E+02  0.00000000000E+00 0. -1.
         -5    1    5    5    0  502  0.71914830168E+02 -0.46849957430E+02 -0.99191425292E+02  0.13125429578E+03  0.47000000000E+01 0.  1.
         11    1    6    6    0    0  0.38508199627E+01 -0.51123586067E+02  0.79865670109E+01  0.51886752831E+02  0.00000000000E+00 0. -1.
        -12    1    6    6    0    0  0.49112041259E+02  0.12750250201E+02  0.24505584208E+02  0.56347893786E+02  0.00000000000E+00 0.  1.
</event>
<event>
12    1  0.8133506E-002  0.1886674E+03  0.7818608E-02  0.1160687E+00
         21   -1    0    0  503  502  0.00000000000E+00  0.00000000000E+00  0.28991397532E+04  0.28991397532E+04  0.00000000000E+00 0.  1.
         21   -1    0    0  501  503 -0.00000000000E+00 -0.00000000000E+00 -0.14528067849E+02  0.14528067849E+02  0.00000000000E+00 0. -1.
          6    2    1    2  501    0  0.51474416786E+02  0.61063920027E+02  0.84777882680E+03  0.86851845920E+03  0.17092968401E+03 0.  0.
         24    2    3    3    0    0 -0.31369527893E+02  0.42425656070E+02  0.56874540561E+03  0.57681270986E+03  0.80359083371E+02 0.  0.
         -6    2    1    2    0  502 -0.51474416786E+02 -0.61063920027E+02  0.20368328586E+04  0.20451493619E+04  0.16604035869E+03 0.  0.
        -24    2    5    5    0    0 -0.50283056675E+02 -0.84380631982E+02  0.19716384220E+04  0.19757411998E+04  0.80911957493E+02 0.  0.
          5    1    3    3  501    0  0.82843944679E+02  0.18638263957E+02  0.27903342119E+03  0.29170574934E+03  0.47000000000E+01 0. -1.
        -11    1    4    4    0    0 -0.42168740802E+02  0.13954775532E+02  0.13755941661E+03  0.14455286770E+03  0.00000000000E+00 0.  1.
         12    1    4    4    0    0  0.10799212909E+02  0.28470880538E+02  0.43118598900E+03  0.43225984216E+03  0.00000000000E+00 0. -1.
         -5    1    5    5    0  502 -0.11913601102E+01  0.23316711955E+02  0.65194436612E+02  0.69408162060E+02  0.47000000000E+01 0.  1.
         13    1    6    6    0    0 -0.69235532502E+02 -0.43845213240E+02  0.11840393589E+04  0.11868720088E+04  0.00000000000E+00 0. -1.
        -14    1    6    6    0    0  0.18952475827E+02 -0.40535418742E+02  0.78759906306E+03  0.78886919109E+03  0.00000000000E+00 0.  1.
</event>
<event>
12    1  0.8133506E-002  0.2110932E+03  0.7818608E-02  0.1140740E+00
         21   -1    0    0  501  502  0.00000000000E+00  0.00000000000E+00  0.21912481889E+03  0.21912481889E+03  0.00000000000E+00 0.  1.
         21   -1    0    0  502  503 -0.00000000000E+00 -0.00000000000E+00 -0.30584997267E+03  0.30584997267E+03  0.00000000000E+00 0.  1.
         -6    2    1    2    0  503 -0.62648202917E+02  0.10560650201E+03 -0.19546150191E+03  0.28769000739E+03  0.17170559406E+03 0.  0.
        -24    2    3    3    0    0  0.18601853789E+01  0.75645955027E+02 -0.40103267886E+02  0.11675950276E+03  0.79364592785E+02 0.  0.
          6    2    1    2  501    0  0.62648202917E+02 -0.10560650201E+03  0.10873634812E+03  0.23728478417E+03  0.17147286899E+03 0.  0.
         24    2    5    5    0    0  0.95380770296E+02 -0.71605582852E+02  0.12409939858E+03  0.18742902432E+03  0.74189807865E+02 0.  0.
          5    1    5    5  501    0 -0.32732567378E+02 -0.34000919156E+02 -0.15363050460E+02  0.49855759848E+02  0.47000000000E+01 0. -1.
        -11    1    6    6    0    0  0.11040256503E+02 -0.31418619483E+02  0.74611101274E+02  0.81705773035E+02  0.00000000000E+00 0.  1.
         12    1    6    6    0    0  0.84340513793E+02 -0.40186963369E+02  0.49488297306E+02  0.10572325128E+03  0.00000000000E+00 0. -1.
         -5    1    3    3    0  503 -0.64508388296E+02  0.29960546981E+02 -0.15535823402E+03  0.17093050463E+03  0.47000000000E+01 0.  1.
         11    1    4    4    0    0 -0.33170202379E+02  0.40152765529E+02  0.10659977116E+01  0.52092641098E+02  0.00000000000E+00 0. -1.
        -12    1    4    4    0    0  0.35030387758E+02  0.35493189498E+02 -0.41169265597E+02  0.64666861661E+02  0.00000000000E+00 0.  1.
</event>
<event>
12    1  0.8133506E-002  0.4596952E+03  0.7818608E-02  0.1024919E+00
         21   -1    0    0  501  502  0.00000000000E+00  0.00000000000E+00  0.32178326198E+03  0.32178326198E+03  0.00000000000E+00 0. -1.
         21   -1    0    0  502  503 -0.00000000000E+00 -0.00000000000E+00 -0.65650657768E+03  0.65650657768E+03  0.00000000000E+00 0.  1.
         -6    2    1    2    0  503  0.20426701710E+03 -0.37342993012E+03 -0.18396968642E+03  0.49450644976E+03  0.17180470411E+03 0.  0.
        -24    2    3    3    0    0  0.17569915468E+03 -0.24840929360E+03 -0.68368140550E+02  0.32178676436E+03  0.79341974844E+02 0.  0.
          6    2    1    2  501    0 -0.20426701710E+03  0.37342993012E+03 -0.15075362928E+03  0.48378338991E+03  0.17362253490E+03 0.  0.
         24    2    5    5    0    0 -0.52985833267E+02  0.23601243233E+03 -0.82175396380E+02  0.26815725673E+03  0.81523934068E+02 0.  0.
          5    1    5    5  501    0 -0.15128118383E+03  0.13741749779E+03 -0.68578232902E+02  0.21562613318E+03  0.47000000000E+01 0. -1.
        -11    1    6    6    0    0  0.17870260643E+02  0.65019160748E+02 -0.39715303717E+02  0.78256902757E+02  0.00000000000E+00 0.  1.
         12    1    6    6    0    0 -0.70856093909E+02  0.17099327158E+03 -0.42460092663E+02  0.18990035397E+03  0.00000000000E+00 0. -1.
         -5    1    3    3    0  503  0.28567862418E+02 -0.12502063652E+03 -0.11560154587E+03  0.17271968540E+03  0.47000000000E+01 0.  1.
         13    1    4    4    0    0  0.42656168949E+02 -0.16953478038E+02 -0.21689291061E+02  0.50768046188E+02  0.00000000000E+00 0. -1.
        -14    1    4    4    0    0  0.13304298573E+03 -0.23145581556E+03 -0.46678849488E+02  0.27101871817E+03  0.00000000000E+00 0.  1.
</event>
<event>
12    1  0.8133506E-002  0.2516533E+03  0.7818608E-02  0.1113006E+00
         21   -1    0    0  501  502  0.00000000000E+00  0.00000000000E+00  0.91821345912E+03  0.91821345912E+03  0.00000000000E+00 0.  1.
         21   -1    0    0  502  503 -0.00000000000E+00 -0.00000000000E+00 -0.70193318075E+02  0.70193318075E+02  0.00000000000E+00 0.  1.
         -6    2    1    2    0  503 -0.42438420105E+02  0.17166627457E+03  0.32689158458E+03  0.40969756419E+03  0.17240550080E+03 0.  0.
        -24    2    3    3    0    0  0.43187848250E+01  0.30802720426E+02  0.19141780126E+03  0.20869006914E+03  0.77092871461E+02 0.  0.
          6    2    1    2  501    0  0.42438420105E+02 -0.17166627457E+03  0.52112855647E+03  0.57870921301E+03  0.17905041616E+03 0.  0.
         24    2    5    5    0    0 -0.35288711019E+02 -0.12187142638E+03  0.39158057348E+03  0.41956838319E+03  0.81267120973E+02 0.  0.
          5    1    5    5  501    0  0.77727131124E+02 -0.49794848191E+02  0.12954798299E+03  0.15914082982E+03  0.47000000000E+01 0. -1.
        -11    1    6    6    0    0  0.70539540977E+01 -0.60028832842E+02  0.27047912045E+03  0.27715009226E+03  0.00000000000E+00 0.  1.
         12    1    6    6    0    0 -0.42342665117E+02 -0.61842593541E+02  0.12110145303E+03  0.14241829093E+03  0.00000000000E+00 0. -1.
         -5    1    3    3    0  503 -0.46757204930E+02  0.14086355415E+03  0.13547378332E+03  0.20100749505E+03  0.47000000000E+01 0.  1.
         11    1    4    4    0    0  0.10930846653E+02 -0.22113043001E+02  0.98647528149E+02  0.10168483117E+03  0.00000000000E+00 0. -1.
        -12    1    4    4    0    0 -0.66120618277E+01  0.52915763427E+02  0.92770273110E+02  0.10700523797E+03  0.00000000000E+00 0.  1.
</event>
<event>
12    1  0.8133506E-002  0.2709682E+03  0.7818608E-02  0.1102330E+00
         21   -1    0    0  501  502  0.00000000000E+00  0.00000000000E+00  0.21738956689E+03  0.21738956689E+03  0.00000000000E+00 0. -1.
         21   -1    0    0  502  503 -0.00000000000E+00 -0.00000000000E+00 -0.35856367737E+03  0.35856367737E+03  0.00000000000E+00 0.  1.
         -6    2    1    2    0  503 -0.17032088928E+03  0.87696993176E+02 -0.15844083377E+03  0.30443543326E+03  0.17571985454E+03 0.  0.
        -24    2    3    3    0    0 -0.10117157008E+03  0.83298383246E+01 -0.21900854760E+02  0.13196506049E+03  0.81425161663E+02 0.  0.
          6    2    1    2  501    0  0.17032088928E+03 -0.87696993176E+02  0.17266723292E+02  0.27151781100E+03  0.19163458460E+03 0.  0.
         24    2    5    5    0    0  0.19945643295E+03 -0.53141114561E+02 -0.30837886166E+01  0.22172602466E+03  0.80907808985E+02 0.  0.
          5    1    5    5  501    0 -0.29135543671E+02 -0.34555878615E+02  0.20350511908E+02  0.49791786339E+02  0.47000000000E+01 0. -1.
        -13    1    6    6    0    0  0.12398998859E+03 -0.56821397340E+01  0.28134906112E+02  0.12726891578E+03  0.00000000000E+00 0.  1.
         14    1    6    6    0    0  0.75466444365E+02 -0.47458974827E+02 -0.31218694729E+02  0.94457108876E+02  0.00000000000E+00 0. -1.
         -5    1    3    3    0  503 -0.69149319203E+02  0.79367154851E+02 -0.13653997901E+03  0.17247037277E+03  0.47000000000E+01 0.  1.
         13    1    4    4    0    0  0.37282148441E+01  0.22867676294E+02  0.24511856987E+01  0.23298895174E+02  0.00000000000E+00 0. -1.
        -14    1    4    4    0    0 -0.10489978492E+03 -0.14537837969E+02 -0.24352040458E+02  0.10866616532E+03  0.00000000000E+00 0.  1.
</event>
<event>
12    1  0.8133506E-002  0.1775949E+03  0.7818608E-02  0.1170356E+00
         21   -1    0    0  503  502  0.00000000000E+00  0.00000000000E+00  0.40688196776E+02  0.40688196776E+02  0.00000000000E+00 0. -1.
         21   -1    0    0  501  503 -0.00000000000E+00 -0.00000000000E+00 -0.97445146011E+03  0.97445146011E+03  0.00000000000E+00 0. -1.
          6    2    1    2  501    0  0.91304740254E+01  0.39702568609E+02 -0.69936138820E+03  0.72155824668E+03  0.17285916967E+03 0.  0.
         24    2    3    3    0    0 -0.83502063808E-01  0.18362973180E+02 -0.14753621055E+03  0.16922375348E+03  0.80824127355E+02 0.  0.
         -6    2    1    2    0  502 -0.91304740254E+01 -0.39702568609E+02 -0.23440187514E+03  0.29358141021E+03  0.17200623780E+03 0.  0.
        -24    2    5    5    0    0 -0.54769538909E+02 -0.70739083294E+02 -0.14026272919E+03  0.18435477295E+03  0.79431283583E+02 0.  0.
          5    1    3    3  501    0  0.92139760892E+01  0.21339595429E+02 -0.55182517765E+03  0.55233449320E+03  0.47000000000E+01 0. -1.
        -11    1    4    4    0    0  0.24004726963E+02 -0.83151519259E+01 -0.10391871015E+02  0.27447397896E+02  0.00000000000E+00 0.  1.
         12    1    4    4    0    0 -0.24088229026E+02  0.26678125106E+02 -0.13714433953E+03  0.14177635558E+03  0.00000000000E+00 0. -1.
         -5    1    5    5    0  502  0.45639064884E+02  0.31036514685E+02 -0.94139145952E+02  0.10922663726E+03  0.47000000000E+01 0.  1.
         11    1    6    6    0    0 -0.71792765823E+02 -0.47690734076E+02 -0.12515699257E+03  0.15196341708E+03  0.00000000000E+00 0. -1.
        -12    1    6    6    0    0  0.17023226914E+02 -0.23048349217E+02 -0.15105736619E+02  0.32391355869E+02  0.00000000000E+00 0.  1.
</event>
<event>
12    1  0.8133506E-002  0.2284236E+03  0.7818608E-02  0.1127965E+00
         21   -1    0    0  501  502  0.00000000000E+00  0.00000000000E+00  0.11521483118E+04  0.11521483118E+04  0.00000000000E+00 0.  1.
         21   -1    0    0  502  503 -0.00000000000E+00 -0.00000000000E+00 -0.11536710481E+03  0.11536710481E+03  0.00000000000E+00 0.  1.
         -6    2    1    2    0  503 -0.77783601354E+02 -0.12554077459E+03  0.24145021102E+02  0.22969611544E+03  0.17426000310E+03 0.  0.
        -24    2    3    3    0    0 -0.83869923645E+02 -0.17409704404E+02  0.33222383177E+02  0.12091256815E+03  0.78605728115E+02 0.  0.
          6    2    1    2  501    0  0.77783601354E+02  0.12554077459E+03  0.10126361858E+04  0.10378193011E+04  0.17270229350E+03 0.  0.
         24    2    5    5    0    0 -0.23167919050E+02  0.84138749792E+02  0.57421877669E+03  0.58600379478E+03  0.77827773299E+02 0.  0.
          5    1    5    5  501    0  0.10095152040E+03  0.41402024801E+02  0.43841740916E+03  0.45181550635E+03  0.47000000000E+01 0. -1.
        -13    1    6    6    0    0  0.21897885464E+02  0.32587285456E+01  0.72188066801E+02  0.75506646648E+02  0.00000000000E+00 0.  1.
         14    1    6    6    0    0 -0.45065804514E+02  0.80880021247E+02  0.50203070989E+03  0.51049714813E+03  0.00000000000E+00 0. -1.
         -5    1    3    3    0  503  0.60863222914E+01 -0.10813107019E+03 -0.90773620751E+01  0.10878354729E+03  0.47000000000E+01 0.  1.
         11    1    4    4    0    0 -0.17997892094E+02 -0.24147402040E+02  0.44510040834E+02  0.53741649400E+02  0.00000000000E+00 0. -1.
        -12    1    4    4    0    0 -0.65872031551E+02  0.67376976362E+01 -0.11287657657E+02  0.67170918749E+02  0.00000000000E+00 0.  1.
</event>
<event>
12    1  0.8133506E-002  0.1831734E+03  0.7818608E-02  0.1165429E+00
         21   -1    0    0  503  502  0.00000000000E+00  0.00000000000E+00  0.23719641682E+03  0.23719641682E+03  0.00000000000E+00 0. -1.
         21   -1    0    0  501  503 -0.00000000000E+00 -0.00000000000E+00 -0.16779326934E+03  0.16779326934E+03  0.00000000000E+00 0. -1.
          6    2    1    2  501    0  0.57030169619E+02  0.53783176159E+01 -0.48934332534E+02  0.18691572864E+03  0.17106008934E+03 0.  0.
         24    2    3    3    0    0  0.10145925123E+03  0.24065474673E+02 -0.32092516959E+02  0.13564302748E+03  0.80597608696E+02 0.  0.
         -6    2    1    2    0  502 -0.57030169619E+02 -0.53783176159E+01  0.11833748001E+03  0.21807395753E+03  0.17398599148E+03 0.  0.
        -24    2    5    5    0    0 -0.93891054926E+02  0.34606924036E+02  0.71339861853E+02  0.14604333538E+03  0.78905706587E+02 0.  0.
          5    1    3    3  501    0 -0.44429081613E+02 -0.18687157058E+02 -0.16841815575E+02  0.51272701155E+02  0.47000000000E+01 0. -1.
        -13    1    4    4    0    0 -0.12417383328E+02  0.10192690894E+02  0.14258098262E+01  0.16128090092E+02  0.00000000000E+00 0.  1.
         14    1    4    4    0    0  0.11387663456E+03  0.13872783780E+02 -0.33518326785E+02  0.11951493739E+03  0.00000000000E+00 0. -1.
         -5    1    5    5    0  502  0.36860885307E+02 -0.39985241652E+02  0.46997618156E+02  0.72030622154E+02  0.47000000000E+01 0.  1.
         13    1    6    6    0    0 -0.16566084374E+02 -0.24527544418E+02  0.22201632949E+02  0.36999298537E+02  0.00000000000E+00 0. -1.
        -14    1    6    6    0    0 -0.77324970552E+02  0.59134468453E+02  0.49138228903E+02  0.10904403684E+03  0.00000000000E+00 0.  1.
</event>
<event>
12    1  0.8133506E-002  0.2702924E+03  0.7818608E-02  0.1101358E+00
         21   -1    0    0  503  502  0.00000000000E+00  0.00000000000E+00  0.10496026187E+04  0.10496026187E+04  0.00000000000E+00 0. -1.
         21   -1    0    0  501  503 -0.00000000000E+00 -0.00000000000E+00 -0.11024185531E+03  0.11024185531E+03  0.00000000000E+00 0.  1.
          6    2    1    2  501    0 -0.17038028217E+03 -0.11870130416E+03  0.11474560392E+03  0.29206100476E+03  0.17033389773E+03 0.  0.
         24    2    3    3    0    0 -0.59051127295E+02  0.80276536020E+01  0.44118377425E+02  0.10912739772E+03  0.80067963937E+02 0.  0.
         -6    2    1    2    0  502  0.17038028217E+03  0.11870130416E+03  0.82461515942E+03  0.86778346922E+03  0.17302759356E+03 0.  0.
        -24    2    5    5    0    0  0.16218165551E+03  0.14964445368E+03  0.76030227703E+03  0.79579088055E+03  0.80791219881E+02 0.  0.
          5    1    3    3  501    0 -0.11132915488E+03 -0.12672895776E+03  0.70627226499E+02  0.18293360704E+03  0.47000000000E+01 0. -1.
        -11    1    4    4    0    0 -0.74177249135E+02 -0.59405398620E+01  0.47471316737E+02  0.88267095884E+02  0.00000000000E+00 0.  1.
         12    1    4    4    0    0  0.15126121840E+02  0.13968193464E+02 -0.33529393119E+01  0.20860301834E+02  0.00000000000E+00 0. -1.
         -5    1    5    5    0  502  0.81986266578E+01 -0.30943149518E+02  0.64312882396E+02  0.71992588669E+02  0.47000000000E+01 0.  1.
         11    1    6    6    0    0  0.14993882670E+02  0.48546269996E+02  0.25105489972E+03  0.25614472378E+03  0.00000000000E+00 0. -1.
        -12    1    6    6    0    0  0.14718777284E+03  0.10109818368E+03  0.50924737731E+03  0.53964615677E+03  0.00000000000E+00 0.  1.
</event>
<event>
12    1  0.8133506E-002  0.2549671E+03  0.7818608E-02  0.1110211E+00
         21   -1    0    0  501  502  0.00000000000E+00  0.00000000000E+00  0.10677084363E+04  0.10677084363E+04  0.00000000000E+00 0.  1.
         21   -1    0    0  502  503 -0.00000000000E+00 -0.00000000000E+00 -0.10117504061E+03  0.10117504061E+03  0.00000000000E+00 0. -1.
         -6    2    1    2    0  503  0.18612495996E+03  0.25766632706E+02  0.11443947079E+03  0.27947203322E+03  0.17234211557E+03 0.  0.
        -24    2    3    3    0    0  0.49638514683E+02 -0.33912035797E+02  0.68713967660E+02  0.12357782276E+03  0.83281814433E+02 0.  0.
          6    2    1    2  501    0 -0.18612495996E+03 -0.25766632706E+02  0.85209392487E+03  0.88941144365E+03  0.17228534245E+03 0.  0.
         24    2    5    5    0    0 -0.12572339485E+03 -0.77605196687E+02  0.46846393011E+03  0.49758284763E+03  0.79380714754E+02 0.  0.
          5    1    5    5  501    0 -0.60401565105E+02  0.51838563981E+02  0.38362999476E+03  0.39182859602E+03  0.47000000000E+01 0. -1.
        -13    1    6    6    0    0 -0.28237927175E+02 -0.55601259179E+01  0.21165420609E+03  0.21360196274E+03  0.00000000000E+00 0.  1.
         14    1    6    6    0    0 -0.97485467680E+02 -0.72045070769E+02  0.25680972402E+03  0.28398088489E+03  0.00000000000E+00 0. -1.
         -5    1    3    3    0  503  0.13648644528E+03  0.59678668503E+02  0.45725503132E+02  0.15589421046E+03  0.47000000000E+01 0.  1.
         11    1    4    4    0    0  0.63404095179E+02 -0.40199932402E+01  0.64268314978E+02  0.90369552070E+02  0.00000000000E+00 0. -1.
        -12    1    4    4    0    0 -0.13765580496E+02 -0.29892042557E+02  0.44456526816E+01  0.33208270693E+02  0.00000000000E+00 0.  1.
</event>
<event>
12    1  0.8133506E-002  0.2518421E+03  0.7818608E-02  0.1112803E+00
         21   -1    0    0  501  502  0.00000000000E+00  0.00000000000E+00  0.30171261008E+03  0.30171261008E+03  0.00000000000E+00 0. -1.
         21   -1    0    0  502  503 -0.00000000000E+00 -0.00000000000E+00 -0.32916356011E+03  0.32916356011E+03  0.00000000000E+00 0.  1.
         -6    2    1    2    0  503 -0.60682765488E+02  0.17347816245E+03 -0.20600790292E+03  0.32215781900E+03  0.16604015600E+03 0.  0.
        -24    2    3    3    0    0  0.22653219502E+02  0.65499315680E+02 -0.56788930904E+02  0.11993836061E+03  0.79730163449E+02 0.  0.
          6    2    1    2  501    0  0.60682765488E+02 -0.17347816245E+03  0.17855695289E+03  0.30871835118E+03  0.17218409932E+03 0.  0.
         24    2    5    5    0    0 -0.28898050246E+01 -0.15842459561E+03  0.97304040992E+02  0.20435261309E+03  0.84765621672E+02 0.  0.
          5    1    5    5  501    0  0.63572570513E+02 -0.15053566840E+02  0.81252911896E+02  0.10436573809E+03  0.47000000000E+01 0. -1.
        -11    1    6    6    0    0  0.36707755700E+02 -0.98042393979E+02  0.39629386905E+02  0.11193863789E+03  0.00000000000E+00 0.  1.
         12    1    6    6    0    0 -0.39597560725E+02 -0.60382201626E+02  0.57674654087E+02  0.92413975202E+02  0.00000000000E+00 0. -1.
         -5    1    3    3    0  503 -0.83335984991E+02  0.10797884677E+03 -0.14921897201E+03  0.20221945839E+03  0.47000000000E+01 0.  1.
         13    1    4    4    0    0  0.48006773744E+02  0.60470736600E+02 -0.30340758734E+02  0.82957350192E+02  0.00000000000E+00 0. -1.
        -14    1    4    4    0    0 -0.25353554242E+02  0.50285790801E+01 -0.26448172170E+02  0.36981010416E+02  0.00000000000E+00 0.  1.
</event>
<event>
12    1  0.8133506E-002  0.1977767E+03  0.7818608E-02  0.1152810E+00
         21   -1    0    0  501  502  0.00000000000E+00  0.00000000000E+00  0.19024812865E+03  0.19024812865E+03  0.00000000000E+00 0.  1.
         21   -1    0    0  502  503 -0.00000000000E+00 -0.00000000000E+00 -0.22644855128E+03  0.22644855128E+03  0.00000000000E+00 0.  1.
         -6    2    1    2    0  503 -0.71012782152E+02 -0.48302863756E+02 -0.89539897710E+02  0.21710143466E+03  0.17815627347E+03 0.  0.
        -24    2    3    3    0    0  0.22459387044E+02  0.12695349080E+01 -0.11821792941E+02  0.85736816397E+02  0.81884132237E+02 0.  0.
          6    2    1    2  501    0  0.71012782152E+02  0.48302863756E+02  0.53339475079E+02  0.19959524526E+03  0.17209642778E+03 0.  0.
         24    2    5    5    0    0  0.81720801063E+02  0.44640588392E+02  0.96975822569E+02  0.15427091678E+03  0.75658007797E+02 0.  0.
          5    1    5    5  501    0 -0.10708018911E+02  0.36622753643E+01 -0.43636347490E+02  0.45324328480E+02  0.47000000000E+01 0. -1.
        -11    1    6    6    0    0  0.51860243212E+02  0.30581293138E+02  0.10433141581E+03  0.12045640141E+03  0.00000000000E+00 0.  1.
         12    1    6    6    0    0  0.29860557851E+02  0.14059295253E+02 -0.73555932372E+01  0.33814515375E+02  0.00000000000E+00 0. -1.
         -5    1    3    3    0  503 -0.93472169196E+02 -0.49572398664E+02 -0.77718104769E+02  0.13136461827E+03  0.47000000000E+01 0.  1.
         13    1    4    4    0    0  0.31092156758E+02 -0.19235904208E+02  0.23880603866E+02  0.43669502672E+02  0.00000000000E+00 0. -1.
        -14    1    4    4    0    0 -0.86327697136E+01  0.20505439116E+02 -0.35702396807E+02  0.42067313725E+02  0.00000000000E+00 0.  1.
</event>
<event>
12    1  0.8133506E-002  0.1870616E+03  0.7818608E-02  0.1161230E+00
         21   -1    0    0  503  502  0.00000000000E+00  0.00000000000E+00  0.89337325077E+03  0.89337325077E+03  0.00000000000E+00 0.  1.
         21   -1    0    0  501  503 -0.00000000000E+00 -0.00000000000E+00 -0.40933911741E+02  0.40933911741E+02  0.00000000000E+00 0. -1.
          6    2    1    2  501    0  0.41597028213E+02  0.58878422997E+02  0.32652954705E+03  0.37611979710E+03  0.17218471250E+03 0.  0.
         24    2    3    3    0    0  0.87273926710E+02  0.58713925979E+02  0.28638476361E+03  0.31512717662E+03  0.78897662999E+02 0.  0.
         -6    2    1    2    0  502 -0.41597028213E+02 -0.58878422997E+02  0.52590979197E+03  0.55818736541E+03  0.17261241021E+03 0.  0.
        -24    2    5    5    0    0 -0.52192561061E+02 -0.24117684311E+02  0.50790170028E+03  0.51735899737E+03  0.79940408346E+02 0.  0.
          5    1    3    3  501    0 -0.45676898498E+02  0.16449701826E+00  0.40144783443E+02  0.60992620482E+02  0.47000000000E+01 0. -1.
        -13    1    4    4    0    0 -0.33239312109E+01  0.22308287713E+01 -0.40479448710E+01  0.56930636199E+01  0.00000000000E+00 0.  1.
         14    1    4    4    0    0  0.90597857921E+02  0.56483097208E+02  0.29043270848E+03  0.30943411300E+03  0.00000000000E+00 0. -1.
         -5    1    5    5    0  502  0.10595532848E+02 -0.34760738686E+02  0.18008091692E+02  0.40828368039E+02  0.47000000000E+01 0.  1.
         11    1    6    6    0    0 -0.91982390142E+01 -0.16204655624E+02  0.19378021231E+02  0.26883194968E+02  0.00000000000E+00 0. -1.
        -12    1    6    6    0    0 -0.42994322047E+02 -0.79130286873E+01  0.48852367905E+03  0.49047580240E+03  0.00000000000E+00 0.  1.
</event>
<event>
12    1  0.8133506E-002  0.1726989E+03  0.7818608E-02  0.1175442E+00
         21   -1    0    0  503  502  0.00000000000E+00  0.00000000000E+00  0.51603879764E+03  0.51603879764E+03  0.00000000000E+00 0. -1.
         21   -1    0    0  501  503 -0.00000000000E+00 -0.00000000000E+00 -0.32366175598E+03  0.32366175598E+03  0.00000000000E+00 0. -1.
          6    2    1    2  501    0  0.13331441621E+00  0.15238111400E+02 -0.28476018146E+03  0.33227090556E+03  0.17053848810E+03 0.  0.
         24    2    3    3    0    0  0.35080374276E+02  0.29285520265E+02 -0.73745806416E+02  0.11786991871E+03  0.79790973271E+02 0.  0.
         -6    2    1    2    0  502 -0.13331441621E+00 -0.15238111400E+02  0.47713722312E+03  0.50742964806E+03  0.17202528952E+03 0.  0.
        -24    2    5    5    0    0  0.40929780695E+02  0.94366415071E+01  0.13787994184E+03  0.16477440717E+03  0.79846288237E+02 0.  0.
          5    1    3    3  501    0 -0.34947059859E+02 -0.14047408865E+02 -0.21101437504E+03  0.21440098685E+03  0.47000000000E+01 0. -1.
        -11    1    4    4    0    0  0.29633466515E+02  0.53876767218E+02 -0.68670525157E+02  0.92176403753E+02  0.00000000000E+00 0.  1.
         12    1    4    4    0    0  0.54469077605E+01 -0.24591246952E+02 -0.50752812589E+01  0.25693514954E+02  0.00000000000E+00 0. -1.
         -5    1    5    5    0  502 -0.41063095112E+02 -0.24674752907E+02  0.33925728128E+03  0.34265524090E+03  0.47000000000E+01 0.  1.
         13    1    6    6    0    0  0.41247822118E+01 -0.33451187817E+02  0.51811278195E+02  0.61809419532E+02  0.00000000000E+00 0. -1.
        -14    1    6    6    0    0  0.36804998484E+02  0.42887829324E+02  0.86068663642E+02  0.10296498763E+03  0.00000000000E+00 0.  1.
</event>
<event>
12    1  0.8133506E-002  0.1768385E+03  0.7818608E-02  0.1171843E+00
         21   -1    0    0  501  502  0.00000000000E+00  0.00000000000E+00  0.25299524977E+03  0.25299524977E+03  0.00000000000E+00 0. -1.
         21   -1    0    0  502  503 -0.00000000000E+00 -0.00000000000E+00 -0.20058797592E+03  0.20058797592E+03  0.00000000000E+00 0. -1.
         -6    2    1    2    0  503  0.12258456351E+02  0.34216256334E+00 -0.11683212648E+03  0.20881018126E+03  0.17263128104E+03 0.  0.
        -24    2    3    3    0    0  0.20575753064E+01  0.56053334934E+02 -0.27351940172E+02  0.10280741506E+03  0.81700832226E+02 0.  0.
          6    2    1    2  501    0 -0.12258456351E+02 -0.34216256334E+00  0.16923940033E+03  0.24477304443E+03  0.17641281651E+03 0.  0.
         24    2    5    5    0    0 -0.14517913967E+02 -0.65934735226E+02  0.13289411396E+03  0.16960283372E+03  0.80908074666E+02 0.  0.
          5    1    5    5  501    0  0.22594576164E+01  0.65592572662E+02  0.36345286368E+02  0.75170210711E+02  0.47000000000E+01 0. -1.
        -11    1    6    6    0    0  0.19764490496E+01  0.78775580818E+01 -0.69021749988E+01  0.10658437591E+02  0.00000000000E+00 0.  1.
         12    1    6    6    0    0 -0.16494363017E+02 -0.73812293308E+02  0.13979628896E+03  0.15894439613E+03  0.00000000000E+00 0. -1.
         -5    1    3    3    0  503  0.10200881044E+02 -0.55711172370E+02 -0.89480186309E+02  0.10600276620E+03  0.47000000000E+01 0.  1.
         11    1    4    4    0    0 -0.11820208342E+02 -0.19199369304E+02 -0.50965462743E+01  0.23115100926E+02  0.00000000000E+00 0. -1.
        -12    1    4    4    0    0  0.13877783648E+02  0.75252704238E+02 -0.22255393898E+02  0.79692314132E+02  0.00000000000E+00 0.  1.
</event>
<event>
12    1  0.8133506E-002  0.2612291E+03  0.7818608E-02  0.1106835E+00
         21   -1    0    0  501  502  0.00000000000E+00  0.00000000000E+00  0.22211565742E+04  0.22211565742E+04  0.00000000000E+00 0.  1.
         21   -1    0    0  502  503 -0.00000000000E+00 -0.00000000000E+00 -0.35982151362E+02  0.35982151362E+02  0.00000000000E+00 0.  1.
         -6    2    1    2    0  503  0.15989023313E+03  0.10927593553E+03  0.65269867597E+03  0.70303356465E+03  0.17531261985E+03 0.  0.
        -24    2    3    3    0    0  0.62872739483E+02 -0.15007823085E+02  0.33303188581E+03  0.34656786720E+03  0.70857839975E+02 0.  0.
          6    2    1    2  501    0 -0.15989023313E+03 -0.10927593553E+03  0.15324757468E+04  0.15541051609E+04  0.17104040367E+03 0.  0.
         24    2    5    5    0    0 -0.13704891480E+03 -0.72760880396E+02  0.14540480133E+04  0.14645056382E+04  0.80278195136E+02 0.  0.
          5    1    5    5  501    0 -0.22841318327E+02 -0.36515055135E+02  0.78427733567E+02  0.89599522693E+02  0.47000000000E+01 0. -1.
        -13    1    6    6    0    0 -0.12396139256E+03 -0.78657821276E+02  0.10512424209E+04  0.10614443495E+04  0.00000000000E+00 0.  1.
         14    1    6    6    0    0 -0.13087522245E+02  0.58969408798E+01  0.40280559242E+03  0.40306128868E+03  0.00000000000E+00 0. -1.
         -5    1    3    3    0  503  0.97017493649E+02  0.12428375862E+03  0.31966679016E+03  0.35646569745E+03  0.47000000000E+01 0.  1.
         11    1    4    4    0    0  0.73306882736E+02 -0.26502301718E+02  0.30161129786E+03  0.31152150174E+03  0.00000000000E+00 0. -1.
        -12    1    4    4    0    0 -0.10434143254E+02  0.11494478634E+02  0.31420587950E+02  0.35046365455E+02  0.00000000000E+00 0.  1.
</event>
<event>
12    1  0.8133506E-002  0.2493491E+03  0.7818608E-02  0.1113761E+00
         21   -1    0    0  501  502  0.00000000000E+00  0.00000000000E+00  0.20073586506E+04  0.20073586506E+04  0.00000000000E+00 0. -1.
         21   -1    0    0  502  503 -0.00000000000E+00 -0.00000000000E+00 -0.40407772456E+02  0.40407772456E+02  0.00000000000E+00 0.  1.
         -6    2    1    2    0  503 -0.88054859129E+02  0.15753593753E+03  0.48740774223E+03  0.54735885074E+03  0.17165131653E+03 0.  0.
        -24    2    3    3    0    0 -0.42747798745E+02  0.56074033714E+02  0.10757548956E+03  0.15157876304E+03  0.80199525546E+02 0.  0.
          6    2    1    2  501    0  0.88054859129E+02 -0.15753593753E+03  0.14795431359E+04  0.15004075723E+04  0.17205743867E+03 0.  0.
         24    2    5    5    0    0 -0.23800138069E+01 -0.13041573427E+03  0.81487366565E+03  0.82904957067E+03  0.79310601140E+02 0.  0.
          5    1    5    5  501    0  0.90434872936E+02 -0.27120203261E+02  0.66466947023E+03  0.67135800161E+03  0.47000000000E+01 0. -1.
        -11    1    6    6    0    0  0.10610280105E+02  0.81218859077E+01  0.82445554231E+02  0.83521329533E+02  0.00000000000E+00 0.  1.
         12    1    6    6    0    0 -0.12990293912E+02 -0.13853762018E+03  0.73242811142E+03  0.74552824114E+03  0.00000000000E+00 0. -1.
         -5    1    3    3    0  503 -0.45307060384E+02  0.10146190382E+03  0.37983225267E+03  0.39578008770E+03  0.47000000000E+01 0.  1.
         11    1    4    4    0    0 -0.37075282644E+02 -0.11284638254E+02  0.45907572701E+02  0.60078489287E+02  0.00000000000E+00 0. -1.
        -12    1    4    4    0    0 -0.56725161008E+01  0.67358671968E+02  0.61667916858E+02  0.91500273758E+02  0.00000000000E+00 0.  1.
</event>
<event>
12    1  0.8133506E-002  0.2531001E+03  0.7818608E-02  0.1111488E+00
         21   -1    0    0  501  502  0.00000000000E+00  0.00000000000E+00  0.25653050150E+03  0.25653050150E+03  0.00000000000E+00 0.  1.
         21   -1    0    0  502  503 -0.00000000000E+00 -0.00000000000E+00 -0.26712592746E+03  0.26712592746E+03  0.00000000000E+00 0. -1.
         -6    2    1    2    0  503 -0.70454140648E+02  0.17008398186E+03  0.63082407944E+02  0.26005049845E+03  0.17249499914E+03 0.  0.
        -24    2    3    3    0    0 -0.18433793713E+01  0.59655294307E+02 -0.26444883158E+02  0.10212913368E+03  0.78542191936E+02 0.  0.
          6    2    1    2  501    0  0.70454140648E+02 -0.17008398186E+03 -0.73677833904E+02  0.26360593052E+03  0.17368741052E+03 0.  0.
         24    2    5    5    0    0  0.11258294151E+03 -0.14963754371E+03 -0.74794851560E+02  0.21652907395E+03  0.78893959454E+02 0.  0.
          5    1    5    5  501    0 -0.42128800866E+02 -0.20446438150E+02  0.11170176567E+01  0.47076856563E+02  0.47000000000E+01 0. -1.
        -13    1    6    6    0    0  0.28545890215E+02 -0.77633655959E+02  0.43139506927E+00  0.82716615546E+02  0.00000000000E+00 0.  1.
         14    1    6    6    0    0  0.84037051299E+02 -0.72003887754E+02 -0.75226246629E+02  0.13381245841E+03  0.00000000000E+00 0. -1.
         -5    1    3    3    0  503 -0.68610761277E+02  0.11042868756E+03  0.89527291102E+02  0.15792136477E+03  0.47000000000E+01 0.  1.
         13    1    4    4    0    0  0.34459564986E+02  0.99704294724E+01 -0.17614685457E+02  0.39964336935E+02  0.00000000000E+00 0. -1.
        -14    1    4    4    0    0 -0.36302944358E+02  0.49684864834E+02 -0.88301977014E+01  0.62164796743E+02  0.00000000000E+00 0.  1.
</event>
<event>
12    1  0.8133506E-002  0.1828873E+03  0.7818608E-02  0.1166773E+00
         21   -1    0    0  501  502  0.00000000000E+00  0.00000000000E+00  0.13907497870E+03  0.13907497870E+03  0.00000000000E+00 0.  1.
         21   -1    0    0  502  503 -0.00000000000E+00 -0.00000000000E+00 -0.23128256624E+03  0.23128256624E+03  0.00000000000E+00 0.  1.
         -6    2    1    2    0  503  0.13677520513E+02 -0.62774248166E+02 -0.49330046169E+02  0.18251122295E+03  0.16355186409E+03 0.  0.
        -24    2    3    3    0    0 -0.22783876709E+02 -0.29543128183E+02 -0.83844001179E+02  0.12212046279E+03  0.80571021078E+02 0.  0.
          6    2    1    2  501    0 -0.13677520513E+02  0.62774248166E+02 -0.42877541377E+02  0.18784632198E+03  0.17123106123E+03 0.  0.
         24    2    5    5    0    0  0.46167575923E+02  0.71549833397E+01 -0.47608936733E+02  0.10587428840E+03  0.82219919941E+02 0.  0.
          5    1    5    5  501    0 -0.59845096436E+02  0.55619264826E+02  0.47313953560E+01  0.81972033580E+02  0.47000000000E+01 0. -1.
        -11    1    6    6    0    0  0.47295524907E+02  0.24379766945E+02  0.21027585472E+01  0.53250927748E+02  0.00000000000E+00 0.  1.
         12    1    6    6    0    0 -0.11279489837E+01 -0.17224783605E+02 -0.49711695280E+02  0.52623360656E+02  0.00000000000E+00 0. -1.
         -5    1    3    3    0  503  0.36461397222E+02 -0.33231119983E+02  0.34513955010E+02  0.60390760164E+02  0.47000000000E+01 0.  1.
         13    1    4    4    0    0  0.25526602316E+02 -0.24315846110E+02 -0.16114367976E+02  0.38762619276E+02  0.00000000000E+00 0. -1.
        -14    1    4    4    0    0 -0.48310479025E+02 -0.52272820727E+01 -0.67729633203E+02  0.83357843514E+02  0.00000000000E+00 0.  1.
</event>
<event>
12    1  0.8133506E-002  0.3228936E+03  0.7818608E-02  0.1074379E+00
         21   -1    0    0  503  502  0.00000000000E+00  0.00000000000E+00  0.15134764301E+04  0.15134764301E+04  0.00000000000E+00 0.  1.
         21   -1    0    0  501  503 -0.00000000000E+00 -0.00000000000E+00 -0.72938071941E+02  0.72938071941E+02  0.00000000000E+00 0. -1.
          6    2    1    2  501    0 -0.27237162000E+03  0.17122669985E+02  0.91000892305E+03  0.96559644601E+03  0.17257106164E+03 0.  0.
         24    2    3    3    0    0 -0.28736193071E+03  0.76288913271E+01  0.79580287481E+03  0.84992470054E+03  0.80216593135E+02 0.  0.
         -6    2    1    2    0  502  0.27237162000E+03 -0.17122669985E+02  0.53052943508E+03  0.62081805600E+03  0.17168020258E+03 0.  0.
        -24    2    5    5    0    0  0.13912040126E+03  0.40032814482E+02  0.19539808548E+03  0.25563625445E+03  0.78818592316E+02 0.  0.
          5    1    3    3  501    0  0.14990310710E+02  0.94937786580E+01  0.11420604823E+03  0.11567174547E+03  0.47000000000E+01 0. -1.
        -11    1    4    4    0    0 -0.26046324771E+03  0.23603103960E+02  0.75135807536E+03  0.79557348330E+03  0.00000000000E+00 0.  1.
         12    1    4    4    0    0 -0.26898682998E+02 -0.15974212633E+02  0.44444799455E+02  0.54351217234E+02  0.00000000000E+00 0. -1.
         -5    1    5    5    0  502  0.13325121874E+03 -0.57155484467E+02  0.33513134960E+03  0.36518180155E+03  0.47000000000E+01 0.  1.
         13    1    6    6    0    0  0.82348306688E+02 -0.79961853393E+01  0.14106976299E+03  0.16354161741E+03  0.00000000000E+00 0. -1.
        -14    1    6    6    0    0  0.56772094577E+02  0.48028999821E+02  0.54328322487E+02  0.92094637036E+02  0.00000000000E+00 0.  1.
</event>
<event>
12    1  0.8133506E-002  0.2164937E+03  0.7818608E-02  0.1136792E+00
         21   -1    0    0  501  502  0.00000000000E+00  0.00000000000E+00  0.38000397062E+03  0.38000397062E+03  0.00000000000E+00 0.  1.
         21   -1    0    0  502  503 -0.00000000000E+00 -0.00000000000E+00 -0.12745993893E+03  0.12745993893E+03  0.00000000000E+00 0. -1.
         -6    2    1    2    0  503 -0.93663449270E+02  0.88080352070E+02  0.76827755716E+02  0.22972163594E+03  0.17417960794E+03 0.  0.
        -24    2    3    3    0    0 -0.18579683758E+02  0.73860842234E+02 -0.13669017965E+02  0.11118251856E+03  0.79837846395E+02 0.  0.
          6    2    1    2  501    0  0.93663449270E+02 -0.88080352070E+02  0.17571627598E+03  0.27774227361E+03  0.17243425053E+03 0.  0.
         24    2    5    5    0    0  0.79221243673E+02  0.43771965379E+01  0.55184533694E+02  0.12507608058E+03  0.79394759745E+02 0.  0.
          5    1    5    5  501    0  0.14442205597E+02 -0.92457548607E+02  0.12053174229E+03  0.15266619303E+03  0.47000000000E+01 0. -1.
        -13    1    6    6    0    0  0.62290719790E+02  0.44804403478E+01  0.75920343759E+02  0.98306188585E+02  0.00000000000E+00 0.  1.
         14    1    6    6    0    0  0.16930523883E+02 -0.10324380989E+00 -0.20735810065E+02  0.26769891993E+02  0.00000000000E+00 0. -1.
         -5    1    3    3    0  503 -0.75083765512E+02  0.14219509835E+02  0.90496773682E+02  0.11853911738E+03  0.47000000000E+01 0.  1.
         13    1    4    4    0    0 -0.33982549670E+02  0.59589067810E+02  0.20042643154E+02  0.71465923552E+02  0.00000000000E+00 0. -1.
        -14    1    4    4    0    0  0.15402865912E+02  0.14271774424E+02 -0.33711661119E+02  0.39716595007E+02  0.00000000000E+00 0.  1.
</event>
<event>
12    1  0.8133506E-002  0.2355139E+03  0.7818608E-02  0.1122822E+00
         21   -1    0    0  501  502  0.00000000000E+00  0.00000000000E+00  0.13527831832E+04  0.13527831832E+04  0.00000000000E+00 0.  1.
         21   -1    0    0  502  503 -0.00000000000E+00 -0.00000000000E+00 -0.47000036183E+02  0.47000036183E+02  0.00000000000E+00 0.  1.
         -6    2    1    2    0  503  0.98234594400E+02  0.12653913226E+03  0.40276155288E+03  0.46655504930E+03  0.17261100203E+03 0.  0.
        -24    2    3    3    0    0  0.21903340535E+01  0.38470553848E+02  0.85520585856E+02  0.12356161554E+03  0.80429603707E+02 0.  0.
          6    2    1    2  501    0 -0.98234594400E+02 -0.12653913226E+03  0.90302159416E+03  0.93322817010E+03  0.17264017615E+03 0.  0.
         24    2    5    5    0    0 -0.14938999177E+02 -0.14732489342E+02  0.19556261330E+03  0.21214621832E+03  0.79505108566E+02 0.  0.
          5    1    5    5  501    0 -0.83295595223E+02 -0.11180664292E+03  0.70745898085E+03  0.72108195177E+03  0.47000000000E+01 0. -1.
        -13    1    6    6    0    0 -0.39532927073E+02  0.15914018182E+02  0.92424660080E+02  0.10177635329E+03  0.00000000000E+00 0.  1.
         14    1    6    6    0    0  0.24593927896E+02 -0.30646507524E+02  0.10313795322E+03  0.11036986503E+03  0.00000000000E+00 0. -1.
         -5    1    3    3    0  503  0.96044260346E+02  0.88068578412E+02  0.31724096702E+03  0.34299343376E+03  0.47000000000E+01 0.  1.
         11    1    4    4    0    0 -0.20486408664E+01 -0.24176916442E+02  0.12626345920E+02  0.27352236276E+02  0.00000000000E+00 0. -1.
        -12    1    4    4    0    0  0.42389749199E+01  0.62647470289E+02  0.72894239936E+02  0.96209379261E+02  0.00000000000E+00 0.  1.
</event>
<event>
12    1  0.8133506E-002  0.1923698E+03  0.7818608E-02  0.1156542E+00
         21   -1    0    0  501  502  0.00000000000E+00  0.00000000000E+00  0.70504572586E+02  0.70504572586E+02  0.00000000000E+00 0.  1.
         21   -1    0    0  502  503 -0.00000000000E+00 -0.00000000000E+00 -0.67322566666E+03  0.67322566666E+03  0.00000000000E+00 0.  1.
         -6    2    1    2    0  503  0.64399413742E+02  0.55149262337E+02 -0.47681474094E+03  0.51382037610E+03  0.17166932194E+03 0.  0.
        -24    2    3    3    0    0  0.60132710766E+02  0.36003002506E+02 -0.48204052519E+03  0.49298332159E+03  0.75877060701E+02 0.  0.
          6    2    1    2  501    0 -0.64399413742E+02 -0.55149262337E+02 -0.12590635313E+03  0.22990986314E+03  0.17267718374E+03 0.  0.
         24    2    5    5    0    0 -0.19057781493E+02  0.33829990284E+02 -0.38330084078E+02  0.97000631280E+02  0.80201370595E+02 0.  0.
          5    1    5    5  501    0 -0.45341632250E+02 -0.88979252622E+02 -0.87576269055E+02  0.13290923186E+03  0.47000000000E+01 0. -1.
        -13    1    6    6    0    0 -0.39852303211E+01  0.48525905623E+02  0.48822182297E+01  0.48933440836E+02  0.00000000000E+00 0.  1.
         14    1    6    6    0    0 -0.15072551172E+02 -0.14695915338E+02 -0.43212302308E+02  0.48067190444E+02  0.00000000000E+00 0. -1.
         -5    1    3    3    0  503  0.42667029762E+01  0.19146259831E+02  0.52257842546E+01  0.20837054516E+02  0.47000000000E+01 0.  1.
         11    1    4    4    0    0 -0.15111298832E+02  0.21239226487E+02 -0.10144398621E+03  0.10473938339E+03  0.00000000000E+00 0. -1.
        -12    1    4    4    0    0  0.75244009598E+02  0.14763776019E+02 -0.38059653898E+03  0.38824393820E+03  0.00000000000E+00 0.  1.
</event>
<event>
12    1  0.8133506E-002  0.2100143E+03  0.7818608E-02  0.1141735E+00
         21   -1    0    0  501  502  0.00000000000E+00  0.00000000000E+00  0.37978661882E+03  0.37978661882E+03  0.00000000000E+00 0. -1.
         21   -1    0    0  502  503 -0.00000000000E+00 -0.00000000000E+00 -0.13170301570E+03  0.13170301570E+03  0.00000000000E+00 0.  1.
         -6    2    1    2    0  503  0.11775168539E+03  0.22571729447E+02  0.34469206305E+02  0.21192809495E+03  0.17131972702E+03 0.  0.
        -24    2    3    3    0    0  0.68193715448E+02 -0.52848879397E+02  0.11831313488E+02  0.11876788449E+03  0.80761646382E+02 0.  0.
          6    2    1    2  501    0 -0.11775168539E+03 -0.22571729447E+02  0.21361439682E+03  0.29956153957E+03  0.17242697897E+03 0.  0.
         24    2    5    5    0    0 -0.11327158732E+03  0.68321413893E+01  0.75927302265E+02  0.15862011590E+03  0.80735712603E+02 0.  0.
          5    1    5    5  501    0 -0.44800980714E+01 -0.29403870836E+02  0.13768709455E+03  0.14094142367E+03  0.47000000000E+01 0. -1.
        -11    1    6    6    0    0  0.83602330666E+01 -0.67451968835E+01 -0.50488460171E+01  0.11869373363E+02  0.00000000000E+00 0.  1.
         12    1    6    6    0    0 -0.12163182038E+03  0.13577338273E+02  0.80976148282E+02  0.14675074254E+03  0.00000000000E+00 0. -1.
         -5    1    3    3    0  503  0.49557969940E+02  0.75420608844E+02  0.22637892817E+02  0.93160210467E+02  0.47000000000E+01 0.  1.
         11    1    4    4    0    0  0.80282035277E+02 -0.56307802569E+02  0.24336187768E+02  0.10103476557E+03  0.00000000000E+00 0. -1.
        -12    1    4    4    0    0 -0.12088319829E+02  0.34589231713E+01 -0.12504874280E+02  0.17733118918E+02  0.00000000000E+00 0.  1.
</event>
<event>
12    1  0.8133506E-002  0.2795329E+03  0.7818608E-02  0.1096045E+00
         21   -1    0    0  503  502  0.00000000000E+00  0.00000000000E+00  0.14826403539E+03  0.14826403539E+03  0.00000000000E+00 0.  1.
         21   -1    0    0  501  503 -0.00000000000E+00 -0.00000000000E+00 -0.52908618308E+03  0.52908618308E+03  0.00000000000E+00 0.  1.
          6    2    1    2  501    0  0.86392936982E+02 -0.20201205541E+03 -0.16283026698E+03  0.32286596225E+03  0.17162786384E+03 0.  0.
         24    2    3    3    0    0  0.10333295983E+03 -0.20009287972E+03 -0.17936049009E+03  0.29865881691E+03  0.79448363151E+02 0.  0.
         -6    2    1    2    0  502 -0.86392936982E+02  0.20201205541E+03 -0.21799188071E+03  0.35448425622E+03  0.17281787454E+03 0.  0.
        -24    2    5    5    0    0  0.17846684434E+02  0.81757263244E+02 -0.61597898751E+02  0.13130656624E+03  0.80276764811E+02 0.  0.
          5    1    3    3  501    0 -0.16940022849E+02 -0.19191756896E+01  0.16530223119E+02  0.24207145347E+02  0.47000000000E+01 0. -1.
        -13    1    4    4    0    0  0.85395671017E+02 -0.83610004179E+02 -0.73950060030E+02  0.14054061621E+03  0.00000000000E+00 0.  1.
         14    1    4    4    0    0  0.17937288814E+02 -0.11648287554E+03 -0.10541043006E+03  0.15811820069E+03  0.00000000000E+00 0. -1.
         -5    1    5    5    0  502 -0.10423962142E+03  0.12025479216E+03 -0.15639398196E+03  0.22317768998E+03  0.47000000000E+01 0.  1.
         13    1    6    6    0    0  0.29259679157E+02 -0.18013078205E+01 -0.27960840334E+02  0.40511506099E+02  0.00000000000E+00 0. -1.
        -14    1    6    6    0    0 -0.11412994723E+02  0.83558571064E+02 -0.33637058417E+02  0.90795060140E+02  0.00000000000E+00 0.  1.
</event>
<event>
12    1  0.8133506E-002  0.2019274E+03  0.7818608E-02  0.1148761E+00
         21   -1    0    0  503  502  0.00000000000E+00  0.00000000000E+00  0.42749038393E+02  0.42749038393E+02  0.00000000000E+00 0.  1.
         21   -1    0    0  501  503 -0.00000000000E+00 -0.00000000000E+00 -0.11636048013E+04  0.11636048013E+04  0.00000000000E+00 0.  1.
          6    2    1    2  501    0  0.44757084382E+02  0.90541621108E+02 -0.29916554217E+03  0.36093588973E+03  0.17485340465E+03 0.  0.
         24    2    3    3    0    0 -0.16315842781E+02  0.10586978518E+03 -0.15224844855E+03  0.20102473489E+03  0.75873156052E+02 0.  0.
         -6    2    1    2    0  502 -0.44757084382E+02 -0.90541621108E+02 -0.82169022077E+03  0.84541794999E+03  0.17133507962E+03 0.  0.
        -24    2    5    5    0    0 -0.78949405972E+02 -0.73316352313E+02 -0.39947657055E+03  0.42144592124E+03  0.80167561303E+02 0.  0.
          5    1    3    3  501    0  0.61072927164E+02 -0.15328164075E+02 -0.14691709361E+03  0.15991115484E+03  0.47000000000E+01 0. -1.
        -13    1    4    4    0    0  0.19682509575E+02  0.64995287798E+02 -0.11956421941E+03  0.13750414969E+03  0.00000000000E+00 0.  1.
         14    1    4    4    0    0 -0.35998352356E+02  0.40874497386E+02 -0.32684229140E+02  0.63520585194E+02  0.00000000000E+00 0. -1.
         -5    1    5    5    0  502  0.34192321590E+02 -0.17225268795E+02 -0.42221365021E+03  0.42397202876E+03  0.47000000000E+01 0.  1.
         11    1    6    6    0    0 -0.64778945003E+01  0.48023470459E+01 -0.14934773601E+03  0.14956527640E+03  0.00000000000E+00 0. -1.
        -12    1    6    6    0    0 -0.72471511472E+02 -0.78118699359E+02 -0.25012883455E+03  0.27188064484E+03  0.00000000000E+00 0.  1.
</event>
<event>
12    1  0.8133506E-002  0.1953067E+03  0.7818608E-02  0.1153996E+00
         21   -1    0    0  503  502  0.00000000000E+00  0.00000000000E+00  0.28239862392E+04  0.28239862392E+04  0.00000000000E+00 0.  1.
         21   -1    0    0  501  503 -0.00000000000E+00 -0.00000000000E+00 -0.14863153059E+02  0.14863153059E+02  0.00000000000E+00 0.  1.
          6    2    1    2  501    0  0.10955168607E+02 -0.92236158329E+02  0.18483983753E+04  0.18586880520E+04  0.17180569313E+03 0.  0.
         24    2    3    3    0    0  0.11232833849E+01  0.18733949417E+02  0.88831609548E+03  0.89215243196E+03  0.80487599836E+02 0.  0.
         -6    2    1    2    0  502 -0.10955168607E+02  0.92236158329E+02  0.96072471079E+03  0.98016134021E+03  0.17057771926E+03 0.  0.
        -24    2    5    5    0    0 -0.44108982066E+02  0.32701914886E+02  0.79128355630E+03  0.79747062802E+03  0.82551308524E+02 0.  0.
          5    1    3    3  501    0  0.98318852220E+01 -0.11097010775E+03  0.96008227985E+03  0.96653562007E+03  0.47000000000E+01 0. -1.
        -13    1    4    4    0    0  0.31798298361E+02  0.16422883212E+02  0.72992004643E+03  0.73079690548E+03  0.00000000000E+00 0.  1.
         14    1    4    4    0    0 -0.30675014977E+02  0.23110662051E+01  0.15839604905E+03  0.16135552648E+03  0.00000000000E+00 0. -1.
         -5    1    5    5    0  502  0.33153813459E+02  0.59534243443E+02  0.16944115448E+03  0.18269071219E+03  0.47000000000E+01 0.  1.
         11    1    6    6    0    0 -0.24348013735E+01  0.43956776064E+02  0.58844926373E+03  0.59009377425E+03  0.00000000000E+00 0. -1.
        -12    1    6    6    0    0 -0.41674180692E+02 -0.11254861178E+02  0.20283429257E+03  0.20737685377E+03  0.00000000000E+00 0.  1.
</event>
<event>
12    1  0.8133506E-002  0.1860389E+03  0.7818608E-02  0.1162539E+00
         21   -1    0    0  501  502  0.00000000000E+00  0.00000000000E+00  0.18832077381E+03  0.18832077381E+03  0.00000000000E+00 0.  1.
         21   -1    0    0  502  503 -0.00000000000E+00 -0.00000000000E+00 -0.46933027571E+03  0.46933027571E+03  0.00000000000E+00 0.  1.
         -6    2    1    2    0  503 -0.36899080529E+02 -0.59454730646E+02 -0.39814102639E+03  0.43946187813E+03  0.17237766183E+03 0.  0.
        -24    2    3    3    0    0 -0.24907444268E+02 -0.10104943289E+03 -0.22396776230E+03  0.25992821968E+03  0.81054007725E+02 0.  0.
          6    2    1    2  501    0  0.36899080529E+02  0.59454730646E+02  0.11713152449E+03  0.21818917138E+03  0.17026542027E+03 0.  0.
         24    2    5    5    0    0  0.69886320288E+02 -0.16679040281E+01  0.40809907311E+02  0.11488760457E+03  0.81528114675E+02 0.  0.
          5    1    5    5  501    0 -0.32987239759E+02  0.61122634674E+02  0.76321617180E+02  0.10330156681E+03  0.47000000000E+01 0. -1.
        -13    1    6    6    0    0  0.25053365876E+02  0.29422035123E+02  0.46006498865E+02  0.60082653323E+02  0.00000000000E+00 0.  1.
         14    1    6    6    0    0  0.44832954413E+02 -0.31089939151E+02 -0.51965915545E+01  0.54804951250E+02  0.00000000000E+00 0. -1.
         -5    1    3    3    0  503 -0.11991636260E+02  0.41594702240E+02 -0.17417326409E+03  0.17953365845E+03  0.47000000000E+01 0.  1.
         13    1    4    4    0    0 -0.18174027618E+01 -0.30669877571E+02 -0.81976909013E+01  0.31798529512E+02  0.00000000000E+00 0. -1.
        -14    1    4    4    0    0 -0.23090041507E+02 -0.70379555315E+02 -0.21577007140E+03  0.22812969017E+03  0.00000000000E+00 0.  1.
</event>
<event>
12    1  0.8133506E-002  0.1770063E+03  0.7818608E-02  0.1171128E+00
         21   -1    0    0  501  502  0.00000000000E+00  0.00000000000E+00  0.16989490721E+03  0.16989490721E+03  0.00000000000E+00 0. -1.
         21   -1    0    0  502  503 -0.00000000000E+00 -0.00000000000E+00 -0.20441520345E+03  0.20441520345E+03  0.00000000000E+00 0.  1.
         -6    2    1    2    0  503 -0.76464995334E+01 -0.34135679084E+02 -0.78243801034E+02  0.19352859775E+03  0.17351516420E+03 0.  0.
        -24    2    3    3    0    0  0.74431952146E+01 -0.88456770948E+02 -0.61810387086E+02  0.13461657009E+03  0.80131738474E+02 0.  0.
          6    2    1    2  501    0  0.76464995334E+01  0.34135679084E+02  0.43723504793E+02  0.18078151291E+03  0.17189094507E+03 0.  0.
         24    2    5    5    0    0  0.12676417551E+02  0.74325484327E+02  0.70028831900E+02  0.13225749046E+03  0.83084519035E+02 0.  0.
          5    1    5    5  501    0 -0.50299180180E+01 -0.40189805243E+02 -0.26305327107E+02  0.48524022452E+02  0.47000000000E+01 0. -1.
        -13    1    6    6    0    0  0.14975570713E+02  0.92444049338E+01 -0.16390030980E+02  0.24049113420E+02  0.00000000000E+00 0.  1.
         14    1    6    6    0    0 -0.22991531621E+01  0.65081079393E+02  0.86418862880E+02  0.10820837704E+03  0.00000000000E+00 0. -1.
         -5    1    3    3    0  503 -0.15089694748E+02  0.54321091865E+02 -0.16433413948E+02  0.58912027659E+02  0.47000000000E+01 0.  1.
         13    1    4    4    0    0  0.18122012759E+02  0.27024393963E+01  0.73010120074E+01  0.19723470827E+02  0.00000000000E+00 0. -1.
        -14    1    4    4    0    0 -0.10678817544E+02 -0.91159210345E+02 -0.69111399093E+02  0.11489309927E+03  0.00000000000E+00 0.  1.
</event>
<event>
12    1  0.8133506E-002  0.2145531E+03  0.7818608E-02  0.1138104E+00
         21   -1    0    0  503  502  0.00000000000E+00  0.00000000000E+00  0.58320329822E+03  0.58320329822E+03  0.00000000000E+00 0.  1.
         21   -1    0    0  501  503 -0.00000000000E+00 -0.00000000000E+00 -0.10584918553E+03  0.10584918553E+03  0.00000000000E+00 0.  1.
          6    2    1    2  501    0 -0.34031539849E+02 -0.12152807880E+03  0.64565044217E+02  0.22405730375E+03  0.17351026133E+03 0.  0.
         24    2    3    3    0    0  0.41887219747E+02 -0.56548886254E+02  0.60626516017E+01  0.10816695271E+03  0.81920804436E+02 0.  0.
         -6    2    1    2    0  502  0.34031539849E+02  0.12152807880E+03  0.41278906847E+03  0.46499518000E+03  0.17291177732E+03 0.  0.
        -24    2    5    5    0    0 -0.15029095570E+02  0.19154062830E+02  0.97562512671E+02  0.12991719419E+03  0.82263489054E+02 0.  0.
          5    1    3    3  501    0 -0.75918759597E+02 -0.64979192548E+02  0.58502392615E+02  0.11589035104E+03  0.47000000000E+01 0. -1.
        -13    1    4    4    0    0  0.30233278821E+02 -0.77463651526E+02  0.10506419169E+02  0.83815591030E+02  0.00000000000E+00 0.  1.
         14    1    4    4    0    0  0.11653940927E+02  0.20914765272E+02 -0.44437675668E+01  0.24351361680E+02  0.00000000000E+00 0. -1.
         -5    1    5    5    0  502  0.49060635419E+02  0.10237401597E+03  0.31522655580E+03  0.33507798581E+03  0.47000000000E+01 0.  1.
         11    1    6    6    0    0  0.22541298079E+02 -0.14350870134E+02  0.64162732272E+02  0.69504775414E+02  0.00000000000E+00 0. -1.
        -12    1    6    6    0    0 -0.37570393649E+02  0.33504932964E+02  0.33399780399E+02  0.60412418778E+02  0.00000000000E+00 0.  1.
</event>
<event>
12    1  0.8133506E-002  0.1787566E+03  0.7818608E-02  0.1169212E+00
         21   -1    0    0  503  502  0.00000000000E+00  0.00000000000E+00  0.81432039096E+03  0.81432039096E+03  0.00000000000E+00 0. -1.
         21   -1    0    0  501  503 -0.00000000000E+00 -0.00000000000E+00 -0.39085409992E+02  0.39085409992E+02  0.00000000000E+00 0. -1.
          6    2    1    2  501    0  0.30733356916E+02 -0.36681703162E+02  0.37785911428E+03  0.41800889813E+03  0.17223194273E+03 0.  0.
         24    2    3    3    0    0  0.54459742960E+02  0.19386521479E+02  0.23123535415E+03  0.25917815726E+03  0.10179306153E+03 0.  0.
         -6    2    1    2    0  502 -0.30733356916E+02  0.36681703162E+02  0.39737586669E+03  0.43539690282E+03  0.17138493804E+03 0.  0.
        -24    2    5    5    0    0 -0.76041261376E+02 -0.12006648400E+02  0.23615767899E+03  0.26093557236E+03  0.79940543758E+02 0.  0.
          5    1    3    3  501    0 -0.23726386045E+02 -0.56068224641E+02  0.14662376013E+03  0.15883074087E+03  0.47000000000E+01 0. -1.
        -11    1    4    4    0    0  0.58076252915E+02  0.21749305573E+02  0.24081369659E+03  0.24867070578E+03  0.00000000000E+00 0.  1.
         12    1    4    4    0    0 -0.36165099548E+01 -0.23627840946E+01 -0.95783424389E+01  0.10507451490E+02  0.00000000000E+00 0. -1.
         -5    1    5    5    0  502  0.45307904461E+02  0.48688351563E+02  0.16121818769E+03  0.17446133047E+03  0.47000000000E+01 0.  1.
         11    1    6    6    0    0 -0.36600671011E+02 -0.25434086721E+01  0.20882988838E+03  0.21202830076E+03  0.00000000000E+00 0. -1.
        -12    1    6    6    0    0 -0.39440590366E+02 -0.94632397283E+01  0.27327790616E+02  0.48907271591E+02  0.00000000000E+00 0.  1.
</event>
<event>
12    1  0.8133506E-002  0.1841386E+03  0.7818608E-02  0.1164904E+00
         21   -1    0    0  501  502  0.00000000000E+00  0.00000000000E+00  0.39065911353E+03  0.39065911353E+03  0.00000000000E+00 0. -1.
         21   -1    0    0  502  503 -0.00000000000E+00 -0.00000000000E+00 -0.87741041426E+02  0.87741041426E+02  0.00000000000E+00 0.  1.
         -6    2    1    2    0  503  0.51898038984E+02 -0.48069728907E+02  0.10539804063E+03  0.20836089760E+03  0.16523138742E+03 0.  0.
        -24    2    3    3    0    0  0.83408277197E+01 -0.28335689392E+02  0.12919454475E+03  0.15474162329E+03  0.79882782152E+02 0.  0.
          6    2    1    2  501    0 -0.51898038984E+02  0.48069728907E+02  0.19752003147E+03  0.27003925736E+03  0.17000862447E+03 0.  0.
         24    2    5    5    0    0 -0.86017349336E+01  0.37255512104E+02  0.26672478047E+02  0.93396981163E+02  0.80929673045E+02 0.  0.
          5    1    5    5  501    0 -0.43296304051E+02  0.10814216803E+02  0.17084755342E+03  0.17664227620E+03  0.47000000000E+01 0. -1.
        -13    1    6    6    0    0 -0.29573427574E+01  0.61831819456E+02  0.28431560203E+02  0.68119552178E+02  0.00000000000E+00 0.  1.
         14    1    6    6    0    0 -0.56443921761E+01 -0.24576307351E+02 -0.17590821553E+01  0.25277428985E+02  0.00000000000E+00 0. -1.
         -5    1    3    3    0  503  0.43557211264E+02 -0.19734039515E+02 -0.23796504119E+02  0.53619274305E+02  0.47000000000E+01 0.  1.
         11    1    4    4    0    0 -0.12386238040E+02  0.24985565599E+02  0.45396103800E+02  0.53277609005E+02  0.00000000000E+00 0. -1.
        -12    1    4    4    0    0  0.20727065759E+02 -0.53321254991E+02  0.83798440952E+02  0.10146401428E+03  0.00000000000E+00 0.  1.
</event>
<event>
12    1  0.8133506E-002  0.2291911E+03  0.7818608E-02  0.1127328E+00
         21   -1    0    0  501  502  0.00000000000E+00  0.00000000000E+00  0.59358940948E+02  0.59358940948E+02  0.00000000000E+00 0. -1.
         21   -1    0    0  502  503 -0.00000000000E+00 -0.00000000000E+00 -0.90702763988E+03  0.90702763988E+03  0.00000000000E+00 0. -1.
         -6    2    1    2    0  503 -0.12819974693E+03 -0.79655991285E+02 -0.50410903657E+03  0.55376393505E+03  0.17247702154E+03 0.  0.
        -24    2    3    3    0    0 -0.31628036012E+00 -0.46884644303E+02 -0.26129865512E+03  0.27734556819E+03  0.80282670103E+02 0.  0.
          6    2    1    2  501    0  0.12819974693E+03  0.79655991285E+02 -0.34355966237E+03  0.41262264578E+03  0.17159240700E+03 0.  0.
         24    2    5    5    0    0  0.13268024247E+02  0.77308042544E+02 -0.19165024144E+03  0.22206195752E+03  0.80181818537E+02 0.  0.
          5    1    5    5  501    0  0.11493172268E+03  0.23479487415E+01 -0.15190942092E+03  0.19056068825E+03  0.47000000000E+01 0. -1.
        -13    1    6    6    0    0  0.63762824469E+01  0.37473884777E+00  0.66673601167E+01  0.92331521147E+01  0.00000000000E+00 0.  1.
         14    1    6    6    0    0  0.68917418003E+01  0.76933303696E+02 -0.19831760156E+03  0.21282880541E+03  0.00000000000E+00 0. -1.
         -5    1    3    3    0  503 -0.12788346657E+03 -0.32771346982E+02 -0.24281038144E+03  0.27641836687E+03  0.47000000000E+01 0.  1.
         13    1    4    4    0    0 -0.15596714553E+02 -0.27171779505E+02 -0.25956444329E+02  0.40685379543E+02  0.00000000000E+00 0. -1.
        -14    1    4    4    0    0  0.15280434193E+02 -0.19712864798E+02 -0.23534221079E+03  0.23666018864E+03  0.00000000000E+00 0.  1.
</event>
<event>
12    1  0.8133506E-002  0.2222886E+03  0.7818608E-02  0.1132204E+00
         21   -1    0    0  501  502  0.00000000000E+00  0.00000000000E+00  0.56499565789E+03  0.56499565789E+03  0.00000000000E+00 0.  1.
         21   -1    0    0  502  503 -0.00000000000E+00 -0.00000000000E+00 -0.10402395894E+03  0.10402395894E+03  0.00000000000E+00 0.  1.
         -6    2    1    2    0  503 -0.78698838164E+02  0.11707800115E+03  0.36415587963E+03  0.42664006714E+03  0.17178904722E+03 0.  0.
        -24    2    3    3    0    0 -0.96828132190E+01  0.81446598411E+01  0.21234768607E+03  0.22739774689E+03  0.80362324239E+02 0.  0.
          6    2    1    2  501    0  0.78698838164E+02 -0.11707800115E+03  0.96815819326E+02  0.24237954968E+03  0.17167928748E+03 0.  0.
         24    2    5    5    0    0  0.26721012062E+02 -0.28405863885E+02 -0.18138755129E+02  0.88103542081E+02  0.76891573666E+02 0.  0.
          5    1    5    5  501    0  0.51977826102E+02 -0.88672137264E+02  0.11495457445E+03  0.15427600760E+03  0.47000000000E+01 0. -1.
        -11    1    6    6    0    0 -0.13665075545E+01 -0.25540091571E+02  0.25507298497E+02  0.36121820233E+02  0.00000000000E+00 0.  1.
         12    1    6    6    0    0  0.28087519617E+02 -0.28657723137E+01 -0.43646053625E+02  0.51981721848E+02  0.00000000000E+00 0. -1.
         -5    1    3    3    0  503 -0.69016024945E+02  0.10893334131E+03  0.15180819356E+03  0.19924232025E+03  0.47000000000E+01 0.  1.
         13    1    4    4    0    0 -0.19456351332E+02 -0.31837912718E+02  0.71377245520E+02  0.80541377387E+02  0.00000000000E+00 0. -1.
        -14    1    4    4    0    0  0.97735381127E+01  0.39982572559E+02  0.14097044055E+03  0.14685636951E+03  0.00000000000E+00 0.  1.
</event>
<event>
12    1  0.8133506E-002  0.2404472E+03  0.7818608E-02  0.1119565E+00
         21   -1    0    0  503  502  0.00000000000E+00  0.00000000000E+00  0.10785287167E+03  0.10785287167E+03  0.00000000000E+00 0. -1.
         21   -1    0    0  501  503 -0.00000000000E+00 -0.00000000000E+00 -0.53735352067E+03  0.53735352067E+03  0.00000000000E+00 0. -1.
          6    2    1    2  501    0 -0.87773302780E+02  0.14429067847E+03 -0.23573630032E+03  0.33672908069E+03  0.17114589658E+03 0.  0.
         24    2    3    3    0    0  0.20640584568E+02  0.67365883814E+02 -0.97647571750E+02  0.14499597984E+03  0.80774933409E+02 0.  0.
         -6    2    1    2    0  502  0.87773302780E+02 -0.14429067847E+03 -0.19376434868E+03  0.30847731165E+03  0.17055695943E+03 0.  0.
        -24    2    5    5    0    0  0.46614109971E+02 -0.11591086488E+03 -0.20938059563E+03  0.25588976426E+03  0.77660374579E+02 0.  0.
          5    1    3    3  501    0 -0.10841388735E+03  0.76924794655E+02 -0.13808872857E+03  0.19173310085E+03  0.47000000000E+01 0. -1.
        -11    1    4    4    0    0  0.19205490288E+02  0.84232087480E+02 -0.94017574673E+02  0.12768398398E+03  0.00000000000E+00 0.  1.
         12    1    4    4    0    0  0.14350942795E+01 -0.16866203666E+02 -0.36299970767E+01  0.17311995855E+02  0.00000000000E+00 0. -1.
         -5    1    5    5    0  502  0.41159192809E+02 -0.28379813594E+02  0.15616246947E+02  0.52587547395E+02  0.47000000000E+01 0.  1.
         11    1    6    6    0    0  0.96939387301E+01 -0.26830109831E+01  0.45526059942E+01  0.11040707286E+02  0.00000000000E+00 0. -1.
        -12    1    6    6    0    0  0.36920171241E+02 -0.11322785389E+03 -0.21393320163E+03  0.24484905697E+03  0.00000000000E+00 0.  1.
</event>
<event>
12    1  0.8133506E-002  0.1769104E+03  0.7818608E-02  0.1171147E+00
         21   -1    0    0  503  502  0.00000000000E+00  0.00000000000E+00  0.17724886613E+03  0.17724886613E+03  0.00000000000E+00 0. -1.
         21   -1    0    0  501  503 -0.00000000000E+00 -0.00000000000E+00 -0.18459328636E+03  0.18459328636E+03  0.00000000000E+00 0. -1.
          6    2    1    2  501    0 -0.40108549748E+02 -0.62976773979E+01 -0.44275910090E+02  0.18111798523E+03  0.17086547883E+03 0.  0.
         24    2    3    3    0    0 -0.33405981437E+02  0.59087873383E+02 -0.69726732240E+01  0.10539601910E+03  0.80326622575E+02 0.  0.
         -6    2    1    2    0  502  0.40108549748E+02  0.62976773979E+01  0.36931489862E+02  0.18072416727E+03  0.17218865581E+03 0.  0.
        -24    2    5    5    0    0  0.77608363888E+02  0.42368250519E+02  0.97467648048E+01  0.12183086050E+03  0.83244413318E+02 0.  0.
          5    1    3    3  501    0 -0.67025683117E+01 -0.65385550781E+02 -0.37303236866E+02  0.75721966123E+02  0.47000000000E+01 0. -1.
        -13    1    4    4    0    0 -0.19525928979E+02  0.28597958701E+02  0.36631868573E+02  0.50408322126E+02  0.00000000000E+00 0.  1.
         14    1    4    4    0    0 -0.13880052458E+02  0.30489914682E+02 -0.43604541797E+02  0.54987696978E+02  0.00000000000E+00 0. -1.
         -5    1    5    5    0  502 -0.37499814139E+02 -0.36070573121E+02  0.27184725057E+02  0.58893306769E+02  0.47000000000E+01 0.  1.
         13    1    6    6    0    0  0.68179492498E+02 -0.90201133680E+01  0.51629589345E+00  0.68775520383E+02  0.00000000000E+00 0. -1.
        -14    1    6    6    0    0  0.94288713898E+01  0.51388363887E+02  0.92304689114E+01  0.53055340118E+02  0.00000000000E+00 0.  1.
</event>
<event>
12    1  0.8133506E-002  0.1934370E+03  0.7818608E-02  0.1155601E+00
         21   -1    0    0  503  502  0.00000000000E+00  0.00000000000E+00  0.37909045045E+02  0.37909045045E+02  0.00000000000E+00 0. -1.
         21   -1    0    0  501  503 -0.00000000000E+00 -0.00000000000E+00 -0.19895821965E+04  0.19895821965E+04  0.00000000000E+00 0.  1.
          6    2    1    2  501    0 -0.88423890261E+02 -0.36694574761E+01 -0.25338747608E+03  0.31822469844E+03  0.17096636035E+03 0.  0.
         24    2    3    3    0    0 -0.20982400602E+02  0.58172830406E+02 -0.13272974977E+03  0.16672156310E+03  0.79715455189E+02 0.  0.
         -6    2    1    2    0  502  0.88423890261E+02  0.36694574761E+01 -0.16982856753E+04  0.17092665431E+04  0.17200474101E+03 0.  0.
        -24    2    5    5    0    0  0.36165215829E+02  0.84441987418E+01 -0.38754583442E+03  0.39746824006E+03  0.80062480327E+02 0.  0.
          5    1    3    3  501    0 -0.67441489659E+02 -0.61842287882E+02 -0.12065772632E+03  0.15150313534E+03  0.47000000000E+01 0. -1.
        -11    1    4    4    0    0 -0.43939033235E+02  0.43016767325E+02 -0.12305196421E+03  0.13756041149E+03  0.00000000000E+00 0.  1.
         12    1    4    4    0    0  0.22956632632E+02  0.15156063081E+02 -0.96777855564E+01  0.29161151610E+02  0.00000000000E+00 0. -1.
         -5    1    5    5    0  502  0.52258674433E+02 -0.47747412656E+01 -0.13107398409E+04  0.13117983030E+04  0.47000000000E+01 0.  1.
         13    1    6    6    0    0 -0.13502751177E+02  0.25560486427E+02 -0.21968218252E+03  0.22157600067E+03  0.00000000000E+00 0. -1.
        -14    1    6    6    0    0  0.49667967005E+02 -0.17116287685E+02 -0.16786365189E+03  0.17589223939E+03  0.00000000000E+00 0.  1.
</event>
<event>
12    1  0.8133506E-002  0.2035024E+03  0.7818608E-02  0.1147004E+00
         21   -1    0    0  501  502  0.00000000000E+00  0.00000000000E+00  0.24523469837E+03  0.24523469837E+03  0.00000000000E+00 0.  1.
         21   -1    0    0  502  503 -0.00000000000E+00 -0.00000000000E+00 -0.18911165790E+03  0.18911165790E+03  0.00000000000E+00 0. -1.
         -6    2    1    2    0  503 -0.60804620453E+02  0.88832892703E+02 -0.44341990259E+02  0.20739602502E+03  0.17163453732E+03 0.  0.
        -24    2    3    3    0    0 -0.89330495165E+02  0.78543088159E+02  0.83533701822E+01  0.14641654800E+03  0.84965126203E+02 0.  0.
          6    2    1    2  501    0  0.60804620453E+02 -0.88832892703E+02  0.10046503073E+03  0.22695033124E+03  0.17269842430E+03 0.  0.
         24    2    5    5    0    0  0.48025527847E+02 -0.11433330546E+02  0.11432225575E+03  0.14714989192E+03  0.78398597947E+02 0.  0.
          5    1    5    5  501    0  0.12779092606E+02 -0.77399562156E+02 -0.13857225024E+02  0.79800439317E+02  0.47000000000E+01 0. -1.
        -13    1    6    6    0    0 -0.19224811328E+02 -0.11388088505E+02  0.13985477196E+02  0.26360491323E+02  0.00000000000E+00 0.  1.
         14    1    6    6    0    0  0.67250339176E+02 -0.45242041465E-01  0.10033677856E+03  0.12078940060E+03  0.00000000000E+00 0. -1.
         -5    1    3    3    0  503  0.28525874712E+02  0.10289804544E+02 -0.52695360442E+02  0.60979477020E+02  0.47000000000E+01 0.  1.
         13    1    4    4    0    0 -0.83236771025E+01  0.60339626611E+02  0.16174758891E+02  0.63022035553E+02  0.00000000000E+00 0. -1.
        -14    1    4    4    0    0 -0.81006818062E+02  0.18203461548E+02 -0.78213887085E+01  0.83394512447E+02  0.00000000000E+00 0.  1.
</event>
<event>
12    1  0.8133506E-002  0.2497170E+03  0.7818608E-02  0.1114937E+00
         21   -1    0    0  503  502  0.00000000000E+00  0.00000000000E+00  0.52968476284E+03  0.52968476284E+03  0.00000000000E+00 0. -1.
         21   -1    0    0  501  503 -0.00000000000E+00 -0.00000000000E+00 -0.16462934141E+03  0.16462934141E+03  0.00000000000E+00 0. -1.
          6    2    1    2  501    0 -0.92760797851E+02  0.14064463383E+03 -0.13187837820E+02  0.24107407454E+03  0.17192240024E+03 0.  0.
         24    2    3    3    0    0 -0.25813687291E+02  0.79075422902E+02  0.54501480643E+02  0.12759889143E+03  0.79948713212E+02 0.  0.
         -6    2    1    2    0  502  0.92760797851E+02 -0.14064463383E+03  0.37824325926E+03  0.45324002971E+03  0.18431788495E+03 0.  0.
        -24    2    5    5    0    0  0.23573106621E+02 -0.53044717539E+02  0.56821688609E+02  0.11295397647E+03  0.78488617575E+02 0.  0.
          5    1    3    3  501    0 -0.66947110559E+02  0.61569210931E+02 -0.67689318463E+02  0.11347518311E+03  0.47000000000E+01 0. -1.
        -13    1    4    4    0    0  0.10729369426E+02 -0.10693523312E+01  0.36018458032E+02  0.37597768573E+02  0.00000000000E+00 0.  1.
         14    1    4    4    0    0 -0.36543056717E+02  0.80144775233E+02  0.18483022611E+02  0.90001122861E+02  0.00000000000E+00 0. -1.
         -5    1    5    5    0  502  0.69187691230E+02 -0.87599916294E+02  0.32142157065E+03  0.34028605324E+03  0.47000000000E+01 0.  1.
         13    1    6    6    0    0  0.28287747193E+02  0.12903629237E+01  0.50700390836E+02  0.58072293813E+02  0.00000000000E+00 0. -1.
        -14    1    6    6    0    0 -0.47146405726E+01 -0.54335080462E+02  0.61212977734E+01  0.54881682655E+02  0.00000000000E+00 0.  1.
</event>
<event>
12    1  0.8133506E-002  0.2140474E+03  0.7818608E-02  0.1138404E+00
         21   -1    0    0  503  502  0.00000000000E+00  0.00000000000E+00  0.71981757843E+02  0.71981757843E+02  0.00000000000E+00 0. -1.
         21   -1    0    0  501  503 -0.00000000000E+00 -0.00000000000E+00 -0.63742221018E+03  0.63742221018E+03  0.00000000000E+00 0. -1.
          6    2    1    2  501    0  0.12311693363E+03  0.34447692701E+02 -0.26882258217E+03  0.34361924128E+03  0.17165133094E+03 0.  0.
         24    2    3    3    0    0  0.10556812364E+02  0.16919556120E+02 -0.14292106581E+03  0.17376548567E+03  0.96800285599E+02 0.  0.
         -6    2    1    2    0  502 -0.12311693363E+03 -0.34447692701E+02 -0.29661787018E+03  0.36578472675E+03  0.17167376776E+03 0.  0.
        -24    2    5    5    0    0 -0.94885652607E+02  0.81982284435E+01 -0.28804198889E+03  0.31371443236E+03  0.79862755306E+02 0.  0.
          5    1    3    3  501    0  0.11256012127E+03  0.17528136580E+02 -0.12590151636E+03  0.16985375561E+03  0.47000000000E+01 0. -1.
        -11    1    4    4    0    0 -0.81622589282E+01  0.14727249416E+02 -0.15194108601E+03  0.15287121365E+03  0.00000000000E+00 0.  1.
         12    1    4    4    0    0  0.18719071292E+02  0.21923067043E+01  0.90200202007E+01  0.20894272018E+02  0.00000000000E+00 0. -1.
         -5    1    5    5    0  502 -0.28231281026E+02 -0.42645921144E+02 -0.85758812877E+01  0.52070294396E+02  0.47000000000E+01 0. -1.
         11    1    6    6    0    0 -0.40273036845E+01 -0.16710744530E+02 -0.94319476226E+01  0.19606881283E+02  0.00000000000E+00 0. -1.
        -12    1    6    6    0    0 -0.90858348923E+02  0.24908972973E+02 -0.27861004127E+03  0.29410755107E+03  0.00000000000E+00 0.  1.
</event>
<event>
12    1  0.8133506E-002  0.1850192E+03  0.7818608E-02  0.1163127E+00
         21   -1    0    0  503  502  0.00000000000E+00  0.00000000000E+00  0.66015041320E+03  0.66015041320E+03  0.00000000000E+00 0. -1.
         21   -1    0    0  501  503 -0.00000000000E+00 -0.00000000000E+00 -0.12062616764E+03  0.12062616764E+03  0.00000000000E+00 0. -1.
          6    2    1    2  501    0 -0.41865375700E+02  0.51271497861E+02 -0.25122006821E+02  0.18671698762E+03  0.17277338355E+03 0.  0.
         24    2    3    3    0    0 -0.74693878645E+02  0.83298709326E+02 -0.79875146320E+01  0.13753229790E+03  0.79583177204E+02 0.  0.
         -6    2    1    2    0  502  0.41865375700E+02 -0.51271497861E+02  0.56464625239E+03  0.59405959322E+03  0.17233668731E+03 0.  0.
        -24    2    5    5    0    0  0.34700835815E+02 -0.71595179500E+02  0.56035134766E+03  0.57158919328E+03  0.79940948949E+02 0.  0.
          5    1    3    3  501    0  0.32828502945E+02 -0.32027211465E+02 -0.17134492189E+02  0.49184689716E+02  0.47000000000E+01 0. -1.
        -11    1    4    4    0    0 -0.41739699900E+02  0.61115836024E+02 -0.42122123407E+02  0.85156451552E+02  0.00000000000E+00 0.  1.
         12    1    4    4    0    0 -0.32954178745E+02  0.22182873302E+02  0.34134608775E+02  0.52375846350E+02  0.00000000000E+00 0. -1.
         -5    1    5    5    0  502  0.71645398848E+01  0.20323681639E+02  0.42949047298E+01  0.22470399946E+02  0.47000000000E+01 0.  1.
         11    1    6    6    0    0 -0.53921438585E+01 -0.54764047194E+01  0.29752336515E+03  0.29762261177E+03  0.00000000000E+00 0. -1.
        -12    1    6    6    0    0  0.40092979674E+02 -0.66118774781E+02  0.26282798250E+03  0.27396658151E+03  0.00000000000E+00 0.  1.
</event>
<event>
12    1  0.8133506E-002  0.1779764E+03  0.7818608E-02  0.1170060E+00
         21   -1    0    0  501  502  0.00000000000E+00  0.00000000000E+00  0.76424335980E+03  0.76424335980E+03  0.00000000000E+00 0. -1.
         21   -1    0    0  502  503 -0.00000000000E+00 -0.00000000000E+00 -0.59887805330E+02  0.59887805330E+02  0.00000000000E+00 0. -1.
         -6    2    1    2    0  503  0.31457753981E+01  0.42834319530E+02  0.12107542681E+03  0.21430223590E+03  0.17152700809E+03 0.  0.
        -24    2    3    3    0    0  0.68426261028E+01 -0.10655009358E+02  0.13729073349E+03  0.15809012706E+03  0.77352388544E+02 0.  0.
          6    2    1    2  501    0 -0.31457753981E+01 -0.42834319530E+02  0.58328012767E+03  0.60982892923E+03  0.17271635928E+03 0.  0.
         24    2    5    5    0    0 -0.15656580749E+02 -0.35051394398E+02  0.13262213032E+03  0.15890563781E+03  0.78667931886E+02 0.  0.
          5    1    5    5  501    0  0.12510805351E+02 -0.77829251327E+01  0.45065799734E+03  0.45092329142E+03  0.47000000000E+01 0. -1.
        -11    1    6    6    0    0 -0.34365961441E+02  0.31330641869E+01  0.98549803140E+02  0.10441694832E+03  0.00000000000E+00 0.  1.
         12    1    6    6    0    0  0.18709380691E+02 -0.38184458584E+02  0.34072327183E+02  0.54488689495E+02  0.00000000000E+00 0. -1.
         -5    1    3    3    0  503 -0.36968507047E+01  0.53489328888E+02 -0.16215306685E+02  0.56212108846E+02  0.47000000000E+01 0.  1.
         11    1    4    4    0    0 -0.11461092768E+02  0.26263764463E+02  0.94224009058E+02  0.98485053964E+02  0.00000000000E+00 0. -1.
        -12    1    4    4    0    0  0.18303718871E+02 -0.36918773821E+02  0.43066724433E+02  0.59605073093E+02  0.00000000000E+00 0.  1.
</event>
<event>
12    1  0.8133506E-002  0.2717593E+03  0.7818608E-02  0.1100412E+00
         21   -1    0    0  501  502  0.00000000000E+00  0.00000000000E+00  0.81935061680E+03  0.81935061680E+03  0.00000000000E+00 0.  1.
         21   -1    0    0  502  503 -0.00000000000E+00 -0.00000000000E+00 -0.14253123898E+03  0.14253123898E+03  0.00000000000E+00 0.  1.
         -6    2    1    2    0  503  0.34914964384E+02 -0.20453780664E+03  0.45563366748E+02  0.27461389641E+03  0.17401724808E+03 0.  0.
        -24    2    3    3    0    0  0.11827065982E+02 -0.40592966887E+02  0.58303145595E+02  0.10849540406E+03  0.81143868938E+02 0.  0.
          6    2    1    2  501    0 -0.34914964384E+02  0.20453780664E+03  0.63125601108E+03  0.68726795937E+03  0.17549452235E+03 0.  0.
         24    2    5    5    0    0  0.45241923133E+02  0.89081721828E+02  0.28569660880E+03  0.31418804214E+03  0.84316005446E+02 0.  0.
          5    1    5    5  501    0 -0.80156887517E+02  0.11545608481E+03  0.34555940228E+03  0.37307991723E+03  0.47000000000E+01 0. -1.
        -11    1    6    6    0    0  0.50515438517E+02  0.66069026135E+02  0.27669010541E+03  0.28891926238E+03  0.00000000000E+00 0.  1.
         12    1    6    6    0    0 -0.52735153843E+01  0.23012695693E+02  0.90065033944E+01  0.25268779768E+02  0.00000000000E+00 0. -1.
         -5    1    3    3    0  503  0.23087898402E+02 -0.16394483975E+03 -0.12739778847E+02  0.16611849235E+03  0.47000000000E+01 0.  1.
         11    1    4    4    0    0 -0.31222532956E+01 -0.63047072877E+02  0.49173615928E+02  0.80017037983E+02  0.00000000000E+00 0. -1.
        -12    1    4    4    0    0  0.14949319278E+02  0.22454105990E+02  0.91295296669E+01  0.28478366081E+02  0.00000000000E+00 0.  1.
</event>
<event>
12    1  0.8133506E-002  0.1808754E+03  0.7818608E-02  0.1170337E+00
         21   -1    0    0  501  502  0.00000000000E+00  0.00000000000E+00  0.34488140529E+03  0.34488140529E+03  0.00000000000E+00 0.  1.
         21   -1    0    0  502  503 -0.00000000000E+00 -0.00000000000E+00 -0.11800382928E+03  0.11800382928E+03  0.00000000000E+00 0.  1.
         -6    2    1    2    0  503 -0.43286916097E+02  0.31459556067E+02 -0.78431932947E-01  0.18087538253E+03  0.17277857819E+03 0.  0.
        -24    2    3    3    0    0 -0.40635401856E+02 -0.26124360120E+02 -0.47012775860E+02  0.10639142069E+03  0.82311695567E+02 0.  0.
          6    2    1    2  501    0  0.43286916097E+02 -0.31459556067E+02  0.22695600794E+03  0.28200985205E+03  0.15860979269E+03 0.  0.
         24    2    5    5    0    0  0.64751731572E+02 -0.18709174978E+02  0.78973038230E+02  0.13186205870E+03  0.81289862763E+02 0.  0.
          5    1    5    5  501    0 -0.21464815475E+02 -0.12750381089E+02  0.14798296971E+03  0.15014779334E+03  0.47000000000E+01 0. -1.
        -11    1    6    6    0    0  0.33229784111E+02 -0.50049124856E+02  0.36005695417E+02  0.70039585616E+02  0.00000000000E+00 0.  1.
         12    1    6    6    0    0  0.31521947461E+02  0.31339949877E+02  0.42967342813E+02  0.61822473086E+02  0.00000000000E+00 0. -1.
         -5    1    3    3    0  503 -0.26515142410E+01  0.57583916187E+02  0.46934343927E+02  0.74483961837E+02  0.47000000000E+01 0.  1.
         13    1    4    4    0    0 -0.54503306455E+02 -0.16795611845E+02 -0.57273378821E+00  0.57035348827E+02  0.00000000000E+00 0. -1.
        -14    1    4    4    0    0  0.13867904599E+02 -0.93287482749E+01 -0.46440042071E+02  0.49356071865E+02  0.00000000000E+00 0.  1.
</event>
<event>
12    1  0.8133506E-002  0.2044735E+03  0.7818608E-02  0.1146096E+00
         21   -1    0    0  503  502  0.00000000000E+00  0.00000000000E+00  0.86912281333E+02  0.86912281333E+02  0.00000000000E+00 0. -1.
         21   -1    0    0  501  503 -0.00000000000E+00 -0.00000000000E+00 -0.53993419816E+03  0.53993419816E+03  0.00000000000E+00 0. -1.
          6    2    1    2  501    0  0.59690108165E+02  0.93293689453E+02 -0.33060338869E+03  0.38852793682E+03  0.17143143111E+03 0.  0.
         24    2    3    3    0    0  0.31937540082E+02  0.12542438380E+03 -0.20011346628E+03  0.25122427188E+03  0.79479260672E+02 0.  0.
         -6    2    1    2    0  502 -0.59690108165E+02 -0.93293689453E+02 -0.12241852814E+03  0.23831854268E+03  0.17188022064E+03 0.  0.
        -24    2    5    5    0    0 -0.76102778248E+02 -0.11338315047E+03 -0.13611520510E+03  0.20860909733E+03  0.79643171463E+02 0.  0.
          5    1    3    3  501    0  0.27752568083E+02 -0.32130694350E+02 -0.13048992241E+03  0.13730366494E+03  0.47000000000E+01 0. -1.
        -11    1    4    4    0    0 -0.13338190577E+01 -0.45196439855E+01 -0.48755351661E+02  0.48982553737E+02  0.00000000000E+00 0.  1.
         12    1    4    4    0    0  0.33271359139E+02  0.12994402779E+03 -0.15135811462E+03  0.20224171814E+03  0.00000000000E+00 0. -1.
         -5    1    5    5    0  502  0.16412670083E+02  0.20089461014E+02  0.13696676964E+02  0.29709445349E+02  0.47000000000E+01 0.  1.
         11    1    6    6    0    0 -0.61223761355E+02 -0.94343310338E+02 -0.57400400517E+02  0.12626882093E+03  0.00000000000E+00 0. -1.
        -12    1    6    6    0    0 -0.14879016893E+02 -0.19039840130E+02 -0.78714804587E+02  0.82340276397E+02  0.00000000000E+00 0.  1.
</event>
<event>
12    1  0.8133506E-002  0.1951884E+03  0.7818608E-02  0.1154369E+00
         21   -1    0    0  501  502  0.00000000000E+00  0.00000000000E+00  0.17487760817E+03  0.17487760817E+03  0.00000000000E+00 0.  1.
         21   -1    0    0  502  503 -0.00000000000E+00 -0.00000000000E+00 -0.21750535660E+03  0.21750535660E+03  0.00000000000E+00 0.  1.
         -6    2    1    2    0  503 -0.89426635611E+02 -0.25945932363E+02 -0.41233679494E+02  0.19949623000E+03  0.17154653858E+03 0.  0.
        -24    2    3    3    0    0 -0.20447773604E+00 -0.56583640951E+02 -0.37605035298E+02  0.10497364169E+03  0.80022350222E+02 0.  0.
          6    2    1    2  501    0  0.89426635611E+02  0.25945932363E+02 -0.13940689305E+01  0.19288673477E+03  0.16891724145E+03 0.  0.
         24    2    5    5    0    0  0.85716070923E+02  0.67283467605E+02  0.34138692737E+02  0.13804854313E+03  0.77573449656E+02 0.  0.
          5    1    5    5  501    0  0.37105646872E+01 -0.41337535243E+02 -0.35532761667E+02  0.54838191636E+02  0.47000000000E+01 0. -1.
        -13    1    6    6    0    0  0.36797851176E+02  0.31371326064E+01 -0.18917371847E+02  0.41494462398E+02  0.00000000000E+00 0.  1.
         14    1    6    6    0    0  0.48918219748E+02  0.64146334999E+02  0.53056064584E+02  0.96554080733E+02  0.00000000000E+00 0. -1.
         -5    1    3    3    0  503 -0.89222157875E+02  0.30637708588E+02 -0.36286441963E+01  0.94522588316E+02  0.47000000000E+01 0.  1.
         11    1    4    4    0    0  0.14023749746E+00 -0.18962754977E+01  0.23151250605E+02  0.23229204289E+02  0.00000000000E+00 0. -1.
        -12    1    4    4    0    0 -0.34471523350E+00 -0.54687365453E+02 -0.60756285903E+02  0.81744437398E+02  0.00000000000E+00 0.  1.
</event>
<event>
12    1  0.8133506E-002  0.1886665E+03  0.7818608E-02  0.1160442E+00
         21   -1    0    0  501  502  0.00000000000E+00  0.00000000000E+00  0.20392365093E+03  0.20392365093E+03  0.00000000000E+00 0. -1.
         21   -1    0    0  502  503 -0.00000000000E+00 -0.00000000000E+00 -0.18600615753E+03  0.18600615753E+03  0.00000000000E+00 0. -1.
         -6    2    1    2    0  503 -0.49993442790E+02  0.57505934064E+02 -0.45644325832E+02  0.19084403236E+03  0.16891347913E+03 0.  0.
        -24    2    3    3    0    0 -0.40091712534E+02  0.17827170129E+02  0.38702730634E+02  0.96987948354E+02  0.77353780508E+02 0.  0.
          6    2    1    2  501    0  0.49993442790E+02 -0.57505934064E+02  0.63561819234E+02  0.19908577610E+03  0.17259421951E+03 0.  0.
         24    2    5    5    0    0 -0.39721262828E+02 -0.22844138548E+02  0.28092052645E+02  0.96468220029E+02  0.80108181025E+02 0.  0.
          5    1    5    5  501    0  0.89714705618E+02 -0.34661795516E+02  0.35469766589E+02  0.10261755607E+03  0.47000000000E+01 0. -1.
        -11    1    6    6    0    0  0.18288664091E+02 -0.12779678129E+02 -0.11907025209E+02  0.25289773756E+02  0.00000000000E+00 0.  1.
         12    1    6    6    0    0 -0.58009926918E+02 -0.10064460419E+02  0.39999077854E+02  0.71178446273E+02  0.00000000000E+00 0. -1.
         -5    1    3    3    0  503 -0.99017302563E+01  0.39678763936E+02 -0.84347056466E+02  0.93856084001E+02  0.47000000000E+01 0.  1.
         13    1    4    4    0    0  0.76220337357E+01  0.14820918868E+02 -0.16847291898E+02  0.23697811685E+02  0.00000000000E+00 0. -1.
        -14    1    4    4    0    0 -0.47713746270E+02  0.30062512602E+01  0.55550022532E+02  0.73290136669E+02  0.00000000000E+00 0.  1.
</event>
<event>
12    1  0.8133506E-002  0.2064792E+03  0.7818608E-02  0.1144785E+00
         21   -1    0    0  501  502  0.00000000000E+00  0.00000000000E+00  0.42640474225E+03  0.42640474225E+03  0.00000000000E+00 0.  1.
         21   -1    0    0  502  503 -0.00000000000E+00 -0.00000000000E+00 -0.13628205012E+03  0.13628205012E+03  0.00000000000E+00 0.  1.
         -6    2    1    2    0  503  0.10713748180E+03  0.28342597332E+02 -0.15194941697E+01  0.20648476837E+03  0.17421798953E+03 0.  0.
        -24    2    3    3    0    0  0.43149819136E+01  0.34336190199E+02  0.40506597891E+02  0.95144425037E+02  0.78829462237E+02 0.  0.
          6    2    1    2  501    0 -0.10713748180E+03 -0.28342597332E+02  0.29164218629E+03  0.35620202400E+03  0.17188069770E+03 0.  0.
         24    2    5    5    0    0 -0.96237525417E+02  0.25103552501E+01  0.29714023169E+03  0.32269035088E+03  0.81048023271E+02 0.  0.
          5    1    5    5  501    0 -0.10899956388E+02 -0.30852952582E+02 -0.54980453974E+01  0.33511673123E+02  0.47000000000E+01 0. -1.
        -11    1    6    6    0    0 -0.81849683997E+02 -0.10973305444E+02  0.12750016893E+03  0.15190812118E+03  0.00000000000E+00 0.  1.
         12    1    6    6    0    0 -0.14387841420E+02  0.13483660694E+02  0.16964006276E+03  0.17078222969E+03  0.00000000000E+00 0. -1.
         -5    1    3    3    0  503  0.10282249989E+03 -0.59935928673E+01 -0.42026092061E+02  0.11134034333E+03  0.47000000000E+01 0.  1.
         13    1    4    4    0    0 -0.28971782391E+02 -0.47598468564E+01  0.31414466495E+02  0.42998709540E+02  0.00000000000E+00 0. -1.
        -14    1    4    4    0    0  0.33286764304E+02  0.39096037056E+02  0.90921313963E+01  0.52145715497E+02  0.00000000000E+00 0.  1.
</event>
<event>
12    1  0.8133506E-002  0.3761067E+03  0.7818608E-02  0.1052452E+00
         21   -1    0    0  501  502  0.00000000000E+00  0.00000000000E+00  0.42217241027E+03  0.42217241027E+03  0.00000000000E+00 0. -1.
         21   -1    0    0  502  503 -0.00000000000E+00 -0.00000000000E+00 -0.50277039443E+03  0.50277039443E+03  0.00000000000E+00 0.  1.
         -6    2    1    2    0  503 -0.32229601352E+03 -0.85982657605E+02 -0.30795003803E+03  0.48609617808E+03  0.17374846956E+03 0.  0.
        -24    2    3    3    0    0 -0.19533801589E+03 -0.11773333534E+03 -0.16805428557E+03  0.29447324037E+03  0.80337834739E+02 0.  0.
          6    2    1    2  501    0  0.32229601352E+03  0.85982657605E+02  0.22735205387E+03  0.43884662662E+03  0.17213270333E+03 0.  0.
         24    2    5    5    0    0  0.14826169615E+03  0.10572900757E+03  0.13527448538E+03  0.24091171161E+03  0.81111730411E+02 0.  0.
          5    1    5    5  501    0  0.17403431738E+03 -0.19746349963E+02  0.92077568492E+02  0.19793491501E+03  0.47000000000E+01 0. -1.
        -13    1    6    6    0    0  0.88494998560E+02  0.39191904068E+02  0.27012322486E+02  0.10048400709E+03  0.00000000000E+00 0.  1.
         14    1    6    6    0    0  0.59766697589E+02  0.66537103501E+02  0.10826216289E+03  0.14042770452E+03  0.00000000000E+00 0. -1.
         -5    1    3    3    0  503 -0.12695799764E+03  0.31750677738E+02 -0.13989575246E+03  0.19162293771E+03  0.47000000000E+01 0.  1.
         13    1    4    4    0    0  0.44153532919E+01 -0.16929340780E+02 -0.72625489869E+01  0.18943139701E+02  0.00000000000E+00 0. -1.
        -14    1    4    4    0    0 -0.19975336918E+03 -0.10080399456E+03 -0.16079173659E+03  0.27553010067E+03  0.00000000000E+00 0.  1.
</event>
<event>
12    1  0.8133506E-002  0.1737159E+03  0.7818608E-02  0.1174150E+00
         21   -1    0    0  503  502  0.00000000000E+00  0.00000000000E+00  0.17106731860E+04  0.17106731860E+04  0.00000000000E+00 0.  1.
         21   -1    0    0  501  503 -0.00000000000E+00 -0.00000000000E+00 -0.25641822059E+02  0.25641822059E+02  0.00000000000E+00 0.  1.
          6    2    1    2  501    0  0.25039412660E+02  0.59011195654E+01  0.35527625903E+03  0.39526100091E+03  0.17131328967E+03 0.  0.
         24    2    3    3    0    0  0.36174077407E+02  0.68142750278E+02  0.23290754491E+03  0.25744157722E+03  0.77963086869E+02 0.  0.
         -6    2    1    2    0  502 -0.25039412660E+02 -0.59011195654E+01  0.13297551049E+04  0.13410540071E+04  0.17180051115E+03 0.  0.
        -24    2    5    5    0    0 -0.80229547646E+02 -0.20569328347E+02  0.95557492930E+03  0.96251206604E+03  0.80287945488E+02 0.  0.
          5    1    3    3  501    0 -0.11134664746E+02 -0.62241630713E+02  0.12236871412E+03  0.13781942370E+03  0.47000000000E+01 0. -1.
        -13    1    4    4    0    0  0.28380014562E+02  0.91539150181E+01  0.16270636859E+03  0.16541638905E+03  0.00000000000E+00 0.  1.
         14    1    4    4    0    0  0.77940628443E+01  0.58988835260E+02  0.70201176317E+02  0.92025188167E+02  0.00000000000E+00 0. -1.
         -5    1    5    5    0  502  0.55190134985E+02  0.14668208782E+02  0.37418017561E+03  0.37854194110E+03  0.47000000000E+01 0.  1.
         13    1    6    6    0    0 -0.25581161451E+02  0.20841558094E+02  0.13101470158E+03  0.13510595248E+03  0.00000000000E+00 0. -1.
        -14    1    6    6    0    0 -0.54648386195E+02 -0.41410886441E+02  0.82456022772E+03  0.82740611356E+03  0.00000000000E+00 0.  1.
</event>
<event>
12    1  0.8133506E-002  0.2175812E+03  0.7818608E-02  0.1135744E+00
         21   -1    0    0  501  502  0.00000000000E+00  0.00000000000E+00  0.14020045485E+03  0.14020045485E+03  0.00000000000E+00 0. -1.
         21   -1    0    0  502  503 -0.00000000000E+00 -0.00000000000E+00 -0.35745985162E+03  0.35745985162E+03  0.00000000000E+00 0. -1.
         -6    2    1    2    0  503 -0.11680109593E+03  0.63276340370E+02 -0.49596473431E+02  0.22316223521E+03  0.17232289977E+03 0.  0.
        -24    2    3    3    0    0 -0.27385810141E+02 -0.20350498830E+02 -0.51834572670E+02  0.10062391200E+03  0.79209995219E+02 0.  0.
          6    2    1    2  501    0  0.11680109593E+03 -0.63276340370E+02 -0.16766292334E+03  0.27449807127E+03  0.17202309149E+03 0.  0.
         24    2    5    5    0    0  0.13784705702E+03 -0.41349817298E+02 -0.17742907168E+03  0.24223086585E+03  0.80517689811E+02 0.  0.
          5    1    5    5  501    0 -0.21045961092E+02 -0.21926523073E+02  0.97661483384E+01  0.32267205422E+02  0.47000000000E+01 0. -1.
        -11    1    6    6    0    0  0.30301838278E+02 -0.16175595167E+02 -0.10418203531E+03  0.10969844011E+03  0.00000000000E+00 0.  1.
         12    1    6    6    0    0  0.10754521874E+03 -0.25174222131E+02 -0.73247036371E+02  0.13253242574E+03  0.00000000000E+00 0. -1.
         -5    1    3    3    0  503 -0.89415285788E+02  0.83626839200E+02  0.22380992389E+01  0.12253832321E+03  0.47000000000E+01 0.  1.
         13    1    4    4    0    0 -0.42780832453E+02 -0.13189725581E+02 -0.65148511363E+02  0.79047435247E+02  0.00000000000E+00 0. -1.
        -14    1    4    4    0    0  0.15395022312E+02 -0.71607732484E+01  0.13313938694E+02  0.21576476752E+02  0.00000000000E+00 0.  1.
</event>
<event>
12    1  0.8133506E-002  0.2265415E+03  0.7818608E-02  0.1129241E+00
         21   -1    0    0  503  502  0.00000000000E+00  0.00000000000E+00  0.11278166287E+03  0.11278166287E+03  0.00000000000E+00 0. -1.
         21   -1    0    0  501  503 -0.00000000000E+00 -0.00000000000E+00 -0.85704953899E+03  0.85704953899E+03  0.00000000000E+00 0.  1.
          6    2    1    2  501    0  0.89765689200E+02 -0.11712750996E+03 -0.70524840181E+03  0.74074041658E+03  0.17188462400E+03 0.  0.
         24    2    3    3    0    0  0.26102033460E+02  0.26811578848E+01 -0.36126690826E+03  0.37093974615E+03  0.79962563188E+02 0.  0.
         -6    2    1    2    0  502 -0.89765689200E+02  0.11712750996E+03 -0.39019474316E+02  0.22909078528E+03  0.17083130855E+03 0.  0.
        -24    2    5    5    0    0 -0.22403987814E+02  0.13164187749E+03 -0.39179473856E+02  0.16002283846E+03  0.78998449842E+02 0.  0.
          5    1    3    3  501    0  0.63663655740E+02 -0.11980866784E+03 -0.34398149355E+03  0.36980067044E+03  0.47000000000E+01 0. -1.
        -13    1    4    4    0    0  0.44962933544E+02 -0.15253474684E+02 -0.30818070528E+03  0.31181674264E+03  0.00000000000E+00 0.  1.
         14    1    4    4    0    0 -0.18860900084E+02  0.17934632569E+02 -0.53086202977E+02  0.59123003509E+02  0.00000000000E+00 0. -1.
         -5    1    5    5    0  502 -0.67361701385E+02 -0.14514367536E+02  0.15999953981E+00  0.69067946823E+02  0.47000000000E+01 0.  1.
         11    1    6    6    0    0 -0.12811735948E+02  0.85241895992E+02  0.15595361275E+02  0.87598725468E+02  0.00000000000E+00 0. -1.
        -12    1    6    6    0    0 -0.95922518664E+01  0.46399981501E+02 -0.54774835131E+02  0.72424112993E+02  0.00000000000E+00 0.  1.
</event>
<event>
12    1  0.8133506E-002  0.2026802E+03  0.7818608E-02  0.1147827E+00
         21   -1    0    0  501  502  0.00000000000E+00  0.00000000000E+00  0.76515447217E+03  0.76515447217E+03  0.00000000000E+00 0.  1.
         21   -1    0    0  502  503 -0.00000000000E+00 -0.00000000000E+00 -0.72911392256E+02  0.72911392256E+02  0.00000000000E+00 0. -1.
         -6    2    1    2    0  503  0.33771243153E+02  0.10128835748E+03  0.12961893757E+03  0.24058331780E+03  0.17227720570E+03 0.  0.
        -24    2    3    3    0    0 -0.28143397862E+02  0.10248849394E+01  0.46731929484E+02  0.96435710099E+02  0.79516487074E+02 0.  0.
          6    2    1    2  501    0 -0.33771243153E+02 -0.10128835748E+03  0.56262414235E+03  0.59748254662E+03  0.17041021021E+03 0.  0.
         24    2    5    5    0    0 -0.87547227549E+02 -0.61671790239E+02  0.38261251998E+03  0.40542109009E+03  0.80659736455E+02 0.  0.
          5    1    5    5  501    0  0.53775984396E+02 -0.39616567237E+02  0.18001162237E+03  0.19206145653E+03  0.47000000000E+01 0. -1.
        -11    1    6    6    0    0 -0.23714565201E+01 -0.47664793866E+02  0.13262239659E+03  0.14094770824E+03  0.00000000000E+00 0.  1.
         12    1    6    6    0    0 -0.85175771029E+02 -0.14006996372E+02  0.24999012338E+03  0.26447338185E+03  0.00000000000E+00 0. -1.
         -5    1    3    3    0  503  0.61914641016E+02  0.10026347254E+03  0.82887008082E+02  0.14414760770E+03  0.47000000000E+01 0.  1.
         13    1    4    4    0    0 -0.34076472959E+02 -0.57305316085E+00 -0.12934895861E+02  0.36453339081E+02  0.00000000000E+00 0. -1.
        -14    1    4    4    0    0  0.59330750961E+01  0.15979381002E+01  0.59666825344E+02  0.59982371018E+02  0.00000000000E+00 0.  1.
</event>
<event>
12    1  0.8133506E-002  0.2532090E+03  0.7818608E-02  0.1111412E+00
         21   -1    0    0  503  502  0.00000000000E+00  0.00000000000E+00  0.14116668931E+03  0.14116668931E+03  0.00000000000E+00 0. -1.
         21   -1    0    0  501  503 -0.00000000000E+00 -0.00000000000E+00 -0.11367400183E+04  0.11367400183E+04  0.00000000000E+00 0. -1.
          6    2    1    2  501    0  0.14416968138E+03 -0.11909722348E+03 -0.99310193116E+03  0.10246856340E+04  0.16958819863E+03 0.  0.
         24    2    3    3    0    0  0.28518435612E+02 -0.40714249778E+01 -0.28247536162E+03  0.29556400056E+03  0.82072351207E+02 0.  0.
         -6    2    1    2    0  502 -0.14416968138E+03  0.11909722348E+03 -0.24713978754E+01  0.25322107369E+03  0.17072128949E+03 0.  0.
        -24    2    5    5    0    0 -0.10873676257E+03  0.62000427581E+02 -0.64929251437E+02  0.16135917022E+03  0.78442574981E+02 0.  0.
          5    1    3    3  501    0  0.11565124577E+03 -0.11502579850E+03 -0.71062656954E+03  0.72912163340E+03  0.47000000000E+01 0. -1.
        -11    1    4    4    0    0 -0.16521285786E+02 -0.30527838339E+02 -0.10872441618E+03  0.11413106707E+03  0.00000000000E+00 0.  1.
         12    1    4    4    0    0  0.45039721398E+02  0.26456413362E+02 -0.17375094545E+03  0.18143293349E+03  0.00000000000E+00 0. -1.
         -5    1    5    5    0  502 -0.35432918810E+02  0.57096795895E+02  0.62457853562E+02  0.91861903466E+02  0.47000000000E+01 0.  1.
         13    1    6    6    0    0 -0.10397661872E+03  0.27174750921E+02 -0.66136577490E+02  0.12618895043E+03  0.00000000000E+00 0. -1.
        -14    1    6    6    0    0 -0.47601438450E+01  0.34825676659E+02  0.12073260527E+01  0.35170219795E+02  0.00000000000E+00 0.  1.
</event>
<event>
12    1  0.8133506E-002  0.3278742E+03  0.7818608E-02  0.1072086E+00
         21   -1    0    0  503  502  0.00000000000E+00  0.00000000000E+00  0.14810014180E+03  0.14810014180E+03  0.00000000000E+00 0. -1.
         21   -1    0    0  501  503 -0.00000000000E+00 -0.00000000000E+00 -0.74857574702E+03  0.74857574702E+03  0.00000000000E+00 0.  1.
          6    2    1    2  501    0 -0.19655804096E+03 -0.19825858924E+03 -0.37849855581E+03  0.50076205189E+03  0.17193005611E+03 0.  0.
         24    2    3    3    0    0 -0.48948211289E+02 -0.41731936835E+02 -0.18276974358E+03  0.20986496930E+03  0.80629053254E+02 0.  0.
         -6    2    1    2    0  502  0.19655804096E+03  0.19825858924E+03 -0.22197704941E+03  0.39591383693E+03  0.17185000476E+03 0.  0.
        -24    2    5    5    0    0  0.19912355972E+03  0.12529254083E+03 -0.14272052772E+03  0.28805136738E+03  0.85182324423E+02 0.  0.
          5    1    3    3  501    0 -0.14760982967E+03 -0.15652665240E+03 -0.19572881222E+03  0.29089708259E+03  0.47000000000E+01 0. -1.
        -13    1    4    4    0    0 -0.33126555988E+02 -0.54234527741E+02 -0.66975842383E+02  0.92328306461E+02  0.00000000000E+00 0.  1.
         14    1    4    4    0    0 -0.15821655301E+02  0.12502590906E+02 -0.11579390120E+03  0.11753666284E+03  0.00000000000E+00 0. -1.
         -5    1    5    5    0  502 -0.25655187608E+01  0.72966048409E+02 -0.79256521686E+02  0.10786246955E+03  0.47000000000E+01 0.  1.
         13    1    6    6    0    0  0.14828240735E+03  0.56301010449E+02 -0.12139934902E+03  0.19973802354E+03  0.00000000000E+00 0. -1.
        -14    1    6    6    0    0  0.50841152372E+02  0.68991530377E+02 -0.21321178700E+02  0.88313343836E+02  0.00000000000E+00 0.  1.
</event>
<event>
12    1  0.8133506E-002  0.2023939E+03  0.7818608E-02  0.1147863E+00
         21   -1    0    0  503  502  0.00000000000E+00  0.00000000000E+00  0.40119305015E+03  0.40119305015E+03  0.00000000000E+00 0.  1.
         21   -1    0    0  501  503 -0.00000000000E+00 -0.00000000000E+00 -0.30632716101E+03  0.30632716101E+03  0.00000000000E+00 0. -1.
          6    2    1    2  501    0  0.42845373568E+02  0.97201553387E+02 -0.24165804906E+03  0.31482229825E+03  0.17155348665E+03 0.  0.
         24    2    3    3    0    0  0.79221330069E+02  0.23447723116E+02 -0.10641704591E+03  0.15647124324E+03  0.79579189759E+02 0.  0.
         -6    2    1    2    0  502 -0.42845373568E+02 -0.97201553387E+02  0.33652393820E+03  0.39269791291E+03  0.17227716565E+03 0.  0.
        -24    2    5    5    0    0 -0.23101419442E+02  0.96175020673E+01  0.20872456346E+03  0.22490368024E+03  0.79934661241E+02 0.  0.
          5    1    3    3  501    0 -0.36375956500E+02  0.73753830271E+02 -0.13524100315E+03  0.15835105501E+03  0.47000000000E+01 0. -1.
        -13    1    4    4    0    0  0.92131701296E+02  0.33011102181E+02 -0.97269183225E+02  0.13798288755E+03  0.00000000000E+00 0.  1.
         14    1    4    4    0    0 -0.12910371227E+02 -0.95633790651E+01 -0.91478626868E+01  0.18488355690E+02  0.00000000000E+00 0. -1.
         -5    1    5    5    0  502 -0.19743954126E+02 -0.10681905545E+03  0.12779937474E+03  0.16779423267E+03  0.47000000000E+01 0.  1.
         13    1    6    6    0    0 -0.44030831902E+02 -0.18974261270E+02  0.13047818362E+03  0.13900824849E+03  0.00000000000E+00 0. -1.
        -14    1    6    6    0    0  0.20929412460E+02  0.28591763338E+02  0.78246379843E+02  0.85895431749E+02  0.00000000000E+00 0.  1.
</event>
<event>
12    1  0.8133506E-002  0.1850677E+03  0.7818608E-02  0.1163871E+00
         21   -1    0    0  501  502  0.00000000000E+00  0.00000000000E+00  0.11450127174E+04  0.11450127174E+04  0.00000000000E+00 0. -1.
         21   -1    0    0  502  503 -0.00000000000E+00 -0.00000000000E+00 -0.30251364837E+02  0.30251364837E+02  0.00000000000E+00 0. -1.
         -6    2    1    2    0  503  0.52734563865E+02 -0.20228241909E+02  0.45921853577E+03  0.49510778813E+03  0.17623831102E+03 0.  0.
        -24    2    3    3    0    0  0.80006696791E+02  0.33299741916E+02  0.36218102541E+03  0.38088264771E+03  0.79915904648E+02 0.  0.
          6    2    1    2  501    0 -0.52734563865E+02  0.20228241909E+02  0.65554281680E+03  0.68015629412E+03  0.17229649960E+03 0.  0.
         24    2    5    5    0    0 -0.35325243717E+02 -0.12682051871E+02  0.14638983130E+03  0.16962223599E+03  0.77026053716E+02 0.  0.
          5    1    5    5  501    0 -0.17409320147E+02  0.32910293780E+02  0.50915298550E+03  0.51053405812E+03  0.47000000000E+01 0. -1.
        -11    1    6    6    0    0  0.42548283164E+01 -0.30322492677E+02  0.21461394459E+02  0.37391825019E+02  0.00000000000E+00 0.  1.
         12    1    6    6    0    0 -0.39580072033E+02  0.17640440806E+02  0.12492843685E+03  0.13223041098E+03  0.00000000000E+00 0. -1.
         -5    1    3    3    0  503 -0.27272132927E+02 -0.53527983825E+02  0.97037510365E+02  0.11422514042E+03  0.47000000000E+01 0.  1.
         11    1    4    4    0    0  0.57556079070E+02  0.10489914341E+01  0.96918461114E+02  0.11272528876E+03  0.00000000000E+00 0. -1.
        -12    1    4    4    0    0  0.22450617722E+02  0.32250750482E+02  0.26526256429E+03  0.26815735895E+03  0.00000000000E+00 0.  1.
</event>
<event>
12    1  0.8133506E-002  0.1743123E+03  0.7818608E-02  0.1175241E+00
         21   -1    0    0  501  502  0.00000000000E+00  0.00000000000E+00  0.11788167642E+03  0.11788167642E+03  0.00000000000E+00 0.  1.
         21   -1    0    0  502  503 -0.00000000000E+00 -0.00000000000E+00 -0.45977554643E+03  0.45977554643E+03  0.00000000000E+00 0.  1.
         -6    2    1    2    0  503 -0.88949055056E+00 -0.27471202720E+02  0.23411172316E+02  0.17587743426E+03  0.17213172491E+03 0.  0.
        -24    2    3    3    0    0  0.50336894576E+02  0.29294090186E+02  0.79765740935E+00  0.96003145103E+02  0.76315273288E+02 0.  0.
          6    2    1    2  501    0  0.88949055056E+00  0.27471202720E+02 -0.36530504233E+03  0.40177978859E+03  0.16499626176E+03 0.  0.
         24    2    5    5    0    0 -0.13850464720E+02 -0.42331104824E+02 -0.25057759230E+03  0.26659803609E+03  0.79382776925E+02 0.  0.
          5    1    5    5  501    0  0.14739955270E+02  0.69802307544E+02 -0.11472745003E+03  0.13518175250E+03  0.47000000000E+01 0. -1.
        -11    1    6    6    0    0 -0.12232341786E+02 -0.40290314824E+02 -0.25660255395E+03  0.26003424842E+03  0.00000000000E+00 0.  1.
         12    1    6    6    0    0 -0.16181229334E+01 -0.20407900005E+01  0.60249616518E+01  0.65637876687E+01  0.00000000000E+00 0. -1.
         -5    1    3    3    0  503 -0.51226385127E+02 -0.56765292906E+02  0.22613514907E+02  0.79874289157E+02  0.47000000000E+01 0.  1.
         11    1    4    4    0    0  0.14963041736E+01  0.92398715238E+01 -0.32340394337E+02  0.33667718334E+02  0.00000000000E+00 0. -1.
        -12    1    4    4    0    0  0.48840590403E+02  0.20054218662E+02  0.33138051746E+02  0.62335426769E+02  0.00000000000E+00 0.  1.
</event>
<event>
12    1  0.8133506E-002  0.2046988E+03  0.7818608E-02  0.1145940E+00
         21   -1    0    0  503  502  0.00000000000E+00  0.00000000000E+00  0.12897690610E+03  0.12897690610E+03  0.00000000000E+00 0.  1.
         21   -1    0    0  501  503 -0.00000000000E+00 -0.00000000000E+00 -0.37473019009E+03  0.37473019009E+03  0.00000000000E+00 0.  1.
          6    2    1    2  501    0  0.50330450050E+02 -0.98009098339E+02 -0.21535713713E+03  0.29676376174E+03  0.17190432284E+03 0.  0.
         24    2    3    3    0    0  0.72603006579E+02 -0.89667633623E+02 -0.22948256829E+03  0.26870552563E+03  0.78923566008E+02 0.  0.
         -6    2    1    2    0  502 -0.50330450050E+02  0.98009098339E+02 -0.30396146862E+02  0.20694333445E+03  0.17251863774E+03 0.  0.
        -24    2    5    5    0    0  0.13834343504E+02 -0.38523610505E+01  0.29486231661E+01  0.81935969348E+02  0.80613764015E+02 0.  0.
          5    1    3    3  501    0 -0.22272556529E+02 -0.83414647160E+01  0.14125431165E+02  0.28058236109E+02  0.47000000000E+01 0. -1.
        -11    1    4    4    0    0  0.32873330979E+02 -0.88776314606E+02 -0.12414641269E+03  0.15612245742E+03  0.00000000000E+00 0.  1.
         12    1    4    4    0    0  0.39729675601E+02 -0.89131901740E+00 -0.10533615560E+03  0.11258306822E+03  0.00000000000E+00 0. -1.
         -5    1    5    5    0  502 -0.64164793554E+02  0.10186145939E+03 -0.33344770028E+02  0.12500736510E+03  0.47000000000E+01 0.  1.
         13    1    6    6    0    0  0.48119838472E+01 -0.11924840152E+01 -0.38812898684E+02  0.39128229080E+02  0.00000000000E+00 0. -1.
        -14    1    6    6    0    0  0.90223596572E+01 -0.26598770353E+01  0.41761521850E+02  0.42807740268E+02  0.00000000000E+00 0.  1.
</event>
<event>
12    1  0.8133506E-002  0.2531084E+03  0.7818608E-02  0.1111543E+00
         21   -1    0    0  501  502  0.00000000000E+00  0.00000000000E+00  0.18288274401E+03  0.18288274401E+03  0.00000000000E+00 0.  1.
         21   -1    0    0  502  503 -0.00000000000E+00 -0.00000000000E+00 -0.52149269312E+03  0.52149269312E+03  0.00000000000E+00 0.  1.
         -6    2    1    2    0  503  0.85091333435E+02 -0.16358043575E+03 -0.37179728443E+03  0.44910059879E+03  0.17163633980E+03 0.  0.
        -24    2    3    3    0    0  0.11565039045E+03 -0.12132046405E+03 -0.21491465871E+03  0.28371012317E+03  0.78800099325E+02 0.  0.
          6    2    1    2  501    0 -0.85091333435E+02  0.16358043575E+03  0.33187335316E+02  0.25527483834E+03  0.17339189681E+03 0.  0.
         24    2    5    5    0    0 -0.11201671564E+03  0.15561008717E+03 -0.41031993706E+01  0.20835813939E+03  0.81449580674E+02 0.  0.
          5    1    5    5  501    0  0.26925382205E+02  0.79703485780E+01  0.37290534686E+02  0.46916698952E+02  0.47000000000E+01 0. -1.
        -11    1    6    6    0    0 -0.59435665507E+02  0.45331531572E+02  0.31481541747E+02  0.81108776095E+02  0.00000000000E+00 0.  1.
         12    1    6    6    0    0 -0.52581050132E+02  0.11027855560E+03 -0.35584741117E+02  0.12724936329E+03  0.00000000000E+00 0. -1.
         -5    1    3    3    0  503 -0.30559057014E+02 -0.42259971700E+02 -0.15688262572E+03  0.16539047562E+03  0.47000000000E+01 0.  1.
         13    1    4    4    0    0  0.63453794308E+02 -0.92309959213E+02 -0.84629251557E+02  0.14039096410E+03  0.00000000000E+00 0. -1.
        -14    1    4    4    0    0  0.52196596140E+02 -0.29010504832E+02 -0.13028540715E+03  0.14331915907E+03  0.00000000000E+00 0.  1.
</event>
<event>
12    1  0.8133506E-002  0.1736278E+03  0.7818608E-02  0.1174502E+00
         21   -1    0    0  501  502  0.00000000000E+00  0.00000000000E+00  0.23997956300E+03  0.23997956300E+03  0.00000000000E+00 0.  1.
         21   -1    0    0  502  503 -0.00000000000E+00 -0.00000000000E+00 -0.25842251878E+03  0.25842251878E+03  0.00000000000E+00 0.  1.
         -6    2    1    2    0  503 -0.10657198468E+02 -0.94821331814E+00 -0.18861599256E+03  0.25636419731E+03  0.17329781888E+03 0.  0.
        -24    2    3    3    0    0 -0.25929933950E+02  0.62625101571E+02 -0.98015521009E+02  0.14453683814E+03  0.81789916242E+02 0.  0.
          6    2    1    2  501    0  0.10657198468E+02  0.94821331814E+00  0.17017303678E+03  0.24203788446E+03  0.17178183862E+03 0.  0.
         24    2    5    5    0    0  0.28215024231E+02  0.39805669423E+02  0.34280096689E+02  0.99534690438E+02  0.79695988990E+02 0.  0.
          5    1    5    5  501    0 -0.17557825762E+02 -0.38857456105E+02  0.13589294009E+03  0.14250319403E+03  0.47000000000E+01 0. -1.
        -11    1    6    6    0    0  0.28581703629E+02  0.20391362179E+02  0.58661425475E+02  0.68365812163E+02  0.00000000000E+00 0.  1.
         12    1    6    6    0    0 -0.36667939868E+00  0.19414307244E+02 -0.24381328787E+02  0.31168878276E+02  0.00000000000E+00 0. -1.
         -5    1    3    3    0  503  0.15272735482E+02 -0.63573314889E+02 -0.90600471550E+02  0.11182735918E+03  0.47000000000E+01 0.  1.
         11    1    4    4    0    0  0.10607390651E+02  0.35144569201E+01  0.10724816073E+02  0.15488377051E+02  0.00000000000E+00 0. -1.
        -12    1    4    4    0    0 -0.36537324602E+02  0.59110644651E+02 -0.10874033708E+03  0.12904846109E+03  0.00000000000E+00 0.  1.
</event>
<event>
12    1  0.8133506E-002  0.2486513E+03  0.7818608E-02  0.1114541E+00
         21   -1    0    0  503  502  0.00000000000E+00  0.00000000000E+00  0.67018255669E+03  0.67018255669E+03  0.00000000000E+00 0. -1.
         21   -1    0    0  501  503 -0.00000000000E+00 -0.00000000000E+00 -0.10610768679E+03  0.10610768679E+03  0.00000000000E+00 0. -1.
          6    2    1    2  501    0 -0.17458171363E+03 -0.23898384687E+02  0.13622951848E+03  0.28143764847E+03  0.17204290380E+03 0.  0.
         24    2    3    3    0    0 -0.12860590850E+03  0.51031769191E+01  0.19638798461E+02  0.15271177218E+03  0.79810280301E+02 0.  0.
         -6    2    1    2    0  502  0.17458171363E+03  0.23898384687E+02  0.42784535142E+03  0.49485259500E+03  0.17543528300E+03 0.  0.
        -24    2    5    5    0    0  0.17799617136E+03  0.65803442857E+02  0.35195817805E+03  0.40796965361E+03  0.80944110742E+02 0.  0.
          5    1    3    3  501    0 -0.45975805135E+02 -0.29001561607E+02  0.11659072002E+03  0.12872587630E+03  0.47000000000E+01 0. -1.
        -11    1    4    4    0    0 -0.12191432058E+02 -0.74206395090E+01  0.31937491108E+02  0.34981427138E+02  0.00000000000E+00 0.  1.
         12    1    4    4    0    0 -0.11641447644E+03  0.12523816428E+02 -0.12298692647E+02  0.11773034504E+03  0.00000000000E+00 0. -1.
         -5    1    5    5    0  502 -0.34144577302E+01 -0.41905058169E+02  0.75887173373E+02  0.86882941389E+02  0.47000000000E+01 0.  1.
         11    1    6    6    0    0  0.82640685775E+02 -0.42104440472E+01  0.10132321523E+03  0.13081897694E+03  0.00000000000E+00 0. -1.
        -12    1    6    6    0    0  0.95355485585E+02  0.70013886904E+02  0.25063496282E+03  0.27715067667E+03  0.00000000000E+00 0.  1.
</event>
<event>
12    1  0.8133506E-002  0.1779235E+03  0.7818608E-02  0.1169908E+00
         21   -1    0    0  501  502  0.00000000000E+00  0.00000000000E+00  0.25906626977E+03  0.25906626977E+03  0.00000000000E+00 0. -1.
         21   -1    0    0  502  503 -0.00000000000E+00 -0.00000000000E+00 -0.28484005698E+03  0.28484005698E+03  0.00000000000E+00 0. -1.
         -6    2    1    2    0  503 -0.20156035586E+02 -0.39415868155E+02 -0.21853350043E+03  0.28180430876E+03  0.17232788861E+03 0.  0.
        -24    2    3    3    0    0 -0.78965366449E+02 -0.55674100705E+02 -0.16682737999E+03  0.20168888944E+03  0.59261275898E+02 0.  0.
          6    2    1    2  501    0  0.20156035586E+02  0.39415868155E+02  0.19275971322E+03  0.26210201799E+03  0.17199210552E+03 0.  0.
         24    2    5    5    0    0  0.36841160470E+02  0.38221964696E+02  0.21409938090E+03  0.23458311150E+03  0.79827950059E+02 0.  0.
          5    1    5    5  501    0 -0.16685124884E+02  0.11939034589E+01 -0.21339667677E+02  0.27518906491E+02  0.47000000000E+01 0. -1.
        -11    1    6    6    0    0 -0.20366035961E+01  0.17754753199E+02  0.20021667023E+01  0.17982983259E+02  0.00000000000E+00 0.  1.
         12    1    6    6    0    0  0.38877764066E+02  0.20467211497E+02  0.21209721419E+03  0.21660012824E+03  0.00000000000E+00 0. -1.
         -5    1    3    3    0  503  0.58809330864E+02  0.16258232550E+02 -0.51706120438E+02  0.80115419321E+02  0.47000000000E+01 0.  1.
         13    1    4    4    0    0 -0.58973192590E+02 -0.73224211124E+01 -0.10540329941E+03  0.12100128438E+03  0.00000000000E+00 0. -1.
        -14    1    4    4    0    0 -0.19992173859E+02 -0.48351679592E+02 -0.61424080583E+02  0.80687605061E+02  0.00000000000E+00 0.  1.
</event>
<event>
12    1  0.8133506E-002  0.1955360E+03  0.7818608E-02  0.1153707E+00
         21   -1    0    0  501  502  0.00000000000E+00  0.00000000000E+00  0.72000194682E+02  0.72000194682E+02  0.00000000000E+00 0. -1.
         21   -1    0    0  502  503 -0.00000000000E+00 -0.00000000000E+00 -0.60130524130E+03  0.60130524130E+03  0.00000000000E+00 0. -1.
         -6    2    1    2    0  503 -0.16544493917E+02  0.92327108576E+02 -0.38082629149E+03  0.42778504349E+03  0.17080211908E+03 0.  0.
        -24    2    3    3    0    0 -0.48190987185E+02  0.23334719164E+02 -0.30634789731E+03  0.32133988609E+03  0.80891333552E+02 0.  0.
          6    2    1    2  501    0  0.16544493917E+02 -0.92327108576E+02 -0.14847875512E+03  0.24552039249E+03  0.17157012313E+03 0.  0.
         24    2    5    5    0    0  0.68263058527E+02 -0.42032875509E+02 -0.12724965963E+03  0.17017396391E+03  0.79624709311E+02 0.  0.
          5    1    5    5  501    0 -0.51718564610E+02 -0.50294233068E+02 -0.21229095494E+02  0.75346428586E+02  0.47000000000E+01 0. -1.
        -11    1    6    6    0    0  0.27089481727E+02  0.14783690169E+02 -0.81122636974E+01  0.31909345615E+02  0.00000000000E+00 0.  1.
         12    1    6    6    0    0  0.41173576800E+02 -0.56816565678E+02 -0.11913739593E+03  0.13826461829E+03  0.00000000000E+00 0. -1.
         -5    1    3    3    0  503  0.31646493268E+02  0.68992389412E+02 -0.74478394186E+02  0.10644515740E+03  0.47000000000E+01 0.  1.
         13    1    4    4    0    0 -0.90457870790E+01  0.43996418689E+02 -0.90898370554E+02  0.10139045759E+03  0.00000000000E+00 0. -1.
        -14    1    4    4    0    0 -0.39145200106E+02 -0.20661699525E+02 -0.21544952675E+03  0.21994942850E+03  0.00000000000E+00 0.  1.
</event>
<event>
12    1  0.8133506E-002  0.1747385E+03  0.7818608E-02  0.1173093E+00
         21   -1    0    0  503  502  0.00000000000E+00  0.00000000000E+00  0.11354053712E+04  0.11354053712E+04  0.00000000000E+00 0. -1.
         21   -1    0    0  501  503 -0.00000000000E+00 -0.00000000000E+00 -0.35365576700E+02  0.35365576700E+02  0.00000000000E+00 0. -1.
          6    2    1    2  501    0  0.27173869997E+02 -0.10239115817E+02  0.26293498063E+03  0.31570295108E+03  0.17230870720E+03 0.  0.
         24    2    3    3    0    0 -0.43847632173E+02  0.10446473507E+02  0.19447521043E+03  0.21480311207E+03  0.79297073262E+02 0.  0.
         -6    2    1    2    0  502 -0.27173869997E+02  0.10239115817E+02  0.83710481391E+03  0.85506799686E+03  0.17191146290E+03 0.  0.
        -24    2    5    5    0    0  0.40089706261E+02  0.18578979738E+02  0.64650418734E+03  0.65272020006E+03  0.78253640679E+02 0.  0.
          5    1    3    3  501    0  0.71021502170E+02 -0.20685589324E+02  0.68459770200E+02  0.10089983901E+03  0.47000000000E+01 0. -1.
        -13    1    4    4    0    0 -0.54079687187E+02  0.34960026364E+02  0.13017314306E+03  0.14523037969E+03  0.00000000000E+00 0.  1.
         14    1    4    4    0    0  0.10232055015E+02 -0.24513552857E+02  0.64302067369E+02  0.69572732384E+02  0.00000000000E+00 0. -1.
         -5    1    5    5    0  502 -0.67263576258E+02 -0.83398639213E+01  0.19060062657E+03  0.20234779680E+03  0.47000000000E+01 0.  1.
         11    1    6    6    0    0  0.21204529837E+01 -0.26787077551E+02  0.12402445864E+03  0.12690197077E+03  0.00000000000E+00 0. -1.
        -12    1    6    6    0    0  0.37969253277E+02  0.45366057289E+02  0.52247972870E+03  0.52581822929E+03  0.00000000000E+00 0.  1.
</event>
<event>
12    1  0.8133506E-002  0.2134638E+03  0.7818608E-02  0.1138922E+00
         21   -1    0    0  501  502  0.00000000000E+00  0.00000000000E+00  0.24060567411E+02  0.24060567411E+02  0.00000000000E+00 0.  1.
         21   -1    0    0  502  503 -0.00000000000E+00 -0.00000000000E+00 -0.29763443018E+04  0.29763443018E+04  0.00000000000E+00 0. -1.
         -6    2    1    2    0  503  0.63703350283E+02  0.10864577593E+03 -0.23830170479E+04  0.23925586787E+04  0.17235068541E+03 0.  0.
        -24    2    3    3    0    0  0.10488790752E+03  0.10990762900E+03 -0.19825786677E+04  0.19899785669E+04  0.79469258963E+02 0.  0.
          6    2    1    2  501    0 -0.63703350283E+02 -0.10864577593E+03 -0.56926668647E+03  0.60784619054E+03  0.17190232564E+03 0.  0.
         24    2    5    5    0    0 -0.10196072275E+02 -0.86369150938E+02 -0.20709599954E+03  0.24103701222E+03  0.87444257183E+02 0.  0.
          5    1    5    5  501    0 -0.53507278008E+02 -0.22276624997E+02 -0.36217068694E+03  0.36680917832E+03  0.47000000000E+01 0. -1.
        -13    1    6    6    0    0 -0.29245787697E+02 -0.87961087253E+02 -0.11874400237E+03  0.15064065543E+03  0.00000000000E+00 0.  1.
         14    1    6    6    0    0  0.19049715423E+02  0.15919363151E+01 -0.88351997163E+02  0.90396356794E+02  0.00000000000E+00 0. -1.
         -5    1    3    3    0  503 -0.41184557242E+02 -0.12618530688E+01 -0.40043838023E+03  0.40258011177E+03  0.47000000000E+01 0.  1.
         11    1    4    4    0    0  0.19494634442E+02  0.75607005255E+02 -0.78711497295E+03  0.79097815435E+03  0.00000000000E+00 0. -1.
        -12    1    4    4    0    0  0.85393273083E+02  0.34300623748E+02 -0.11954636947E+04  0.11990004126E+04  0.00000000000E+00 0.  1.
</event>
<event>
12    1  0.8133506E-002  0.1885762E+03  0.7818608E-02  0.1160994E+00
         21   -1    0    0  503  502  0.00000000000E+00  0.00000000000E+00  0.12058538732E+04  0.12058538732E+04  0.00000000000E+00 0. -1.
         21   -1    0    0  501  503 -0.00000000000E+00 -0.00000000000E+00 -0.49126209359E+02  0.49126209359E+02  0.00000000000E+00 0. -1.
          6    2    1    2  501    0  0.58871449890E+02 -0.14592439114E+02  0.97851351806E+03  0.99551665121E+03  0.17287542022E+03 0.  0.
         24    2    3    3    0    0  0.45760369753E+02  0.57879367779E+02  0.59644983500E+03  0.60639095027E+03  0.80706544008E+02 0.  0.
         -6    2    1    2    0  502 -0.58871449890E+02  0.14592439114E+02  0.17821414575E+03  0.25946343132E+03  0.17855588356E+03 0.  0.
        -24    2    5    5    0    0 -0.67778074250E+02 -0.13539696097E+02  0.34879828347E+02  0.11304771654E+03  0.82377139242E+02 0.  0.
          5    1    3    3  501    0  0.13111080137E+02 -0.72471806893E+02  0.38206368306E+03  0.38912570094E+03  0.47000000000E+01 0. -1.
        -13    1    4    4    0    0  0.24278194675E+02  0.38447298522E+02  0.10930770158E+03  0.11838834033E+03  0.00000000000E+00 0.  1.
         14    1    4    4    0    0  0.21482175077E+02  0.19432069257E+02  0.48714213342E+03  0.48800260994E+03  0.00000000000E+00 0. -1.
         -5    1    5    5    0  502  0.89066243603E+01  0.28132135211E+02  0.14333431740E+03  0.14641571478E+03  0.47000000000E+01 0.  1.
         11    1    6    6    0    0 -0.69244812260E+02 -0.17068446332E+02  0.56566352344E+02  0.91027073459E+02  0.00000000000E+00 0. -1.
        -12    1    6    6    0    0  0.14667380099E+01  0.35287502347E+01 -0.21686523996E+02  0.22020643080E+02  0.00000000000E+00 0.  1.
</event>
<event>
12    1  0.8133506E-002  0.1743713E+03  0.7818608E-02  0.1173586E+00
         21   -1    0    0  503  502  0.00000000000E+00  0.00000000000E+00  0.28556513801E+04  0.28556513801E+04  0.00000000000E+00 0. -1.
         21   -1    0    0  501  503 -0.00000000000E+00 -0.00000000000E+00 -0.11411615518E+02  0.11411615518E+02  0.00000000000E+00 0. -1.
          6    2    1    2  501    0  0.15944259204E+02 -0.15650157944E+02  0.18024967047E+04  0.18108272543E+04  0.17205181698E+03 0.  0.
         24    2    3    3    0    0  0.32518588734E+01 -0.25269505225E+02  0.65997692460E+03  0.66818681798E+03  0.10126677755E+03 0.  0.
         -6    2    1    2    0  502 -0.15944259204E+02  0.15650157944E+02  0.10417430600E+04  0.10562357414E+04  0.17293406697E+03 0.  0.
        -24    2    5    5    0    0 -0.47099435553E+02 -0.31097058446E+02  0.35767459063E+03  0.36984830851E+03  0.75307865797E+02 0.  0.
          5    1    3    3  501    0  0.12692400331E+02  0.96193472812E+01  0.11425197800E+04  0.11426404363E+04  0.47000000000E+01 0. -1.
        -13    1    4    4    0    0 -0.89013509377E+01 -0.44831041353E+02  0.62266397501E+03  0.62433923638E+03  0.00000000000E+00 0.  1.
         14    1    4    4    0    0  0.12153209811E+02  0.19561536128E+02  0.37312949599E+02  0.43847581600E+02  0.00000000000E+00 0. -1.
         -5    1    5    5    0  502  0.31155176349E+02  0.46747216390E+02  0.68406846935E+03  0.68638743288E+03  0.47000000000E+01 0.  1.
         11    1    6    6    0    0  0.10846735232E+02 -0.33664687302E+02  0.15859553341E+03  0.16249155687E+03  0.00000000000E+00 0. -1.
        -12    1    6    6    0    0 -0.57946170785E+02  0.25676288563E+01  0.19907905722E+03  0.20735675164E+03  0.00000000000E+00 0.  1.
</event>
<event>
12    1  0.8133506E-002  0.1730487E+03  0.7818608E-02  0.1174973E+00
         21   -1    0    0  503  502  0.00000000000E+00  0.00000000000E+00  0.31067509257E+02  0.31067509257E+02  0.00000000000E+00 0.  1.
         21   -1    0    0  501  503 -0.00000000000E+00 -0.00000000000E+00 -0.99228414303E+03  0.99228414303E+03  0.00000000000E+00 0.  1.
          6    2    1    2  501    0  0.49690411784E+01 -0.20900842444E+02 -0.57421413048E+03  0.59942148463E+03  0.17065377817E+03 0.  0.
         24    2    3    3    0    0 -0.43743251160E+02  0.32392303258E+02 -0.25965393457E+03  0.27664717701E+03  0.78426790574E+02 0.  0.
         -6    2    1    2    0  502 -0.49690411784E+01  0.20900842444E+02 -0.38700250329E+03  0.42393016766E+03  0.17170996742E+03 0.  0.
        -24    2    5    5    0    0  0.30073985437E+02  0.63499089527E+02 -0.17643236836E+03  0.20620443171E+03  0.80344931899E+02 0.  0.
          5    1    3    3  501    0  0.48712292339E+02 -0.53293145702E+02 -0.31456019591E+03  0.32277430762E+03  0.47000000000E+01 0. -1.
        -13    1    4    4    0    0  0.89063053201E+01 -0.11990699907E+02 -0.12013559711E+03  0.12106056687E+03  0.00000000000E+00 0.  1.
         14    1    4    4    0    0 -0.52649556481E+02  0.44383003165E+02 -0.13951833746E+03  0.15558661014E+03  0.00000000000E+00 0. -1.
         -5    1    5    5    0  502 -0.35043026615E+02 -0.42598247083E+02 -0.21057013493E+03  0.21772573594E+03  0.47000000000E+01 0.  1.
         11    1    6    6    0    0  0.27929957523E-01  0.30941098001E+01 -0.11475074099E+03  0.11479245120E+03  0.00000000000E+00 0. -1.
        -12    1    6    6    0    0  0.30046055479E+02  0.60404979727E+02 -0.61681627374E+02  0.91411980512E+02  0.00000000000E+00 0.  1.
</event>
<event>
12    1  0.8133506E-002  0.2488572E+03  0.7818608E-02  0.1114437E+00
         21   -1    0    0  503  502  0.00000000000E+00  0.00000000000E+00  0.72591861482E+03  0.72591861482E+03  0.00000000000E+00 0. -1.
         21   -1    0    0  501  503 -0.00000000000E+00 -0.00000000000E+00 -0.88905198482E+02  0.88905198482E+02  0.00000000000E+00 0.  1.
          6    2    1    2  501    0 -0.43190290239E+02  0.17412089480E+03  0.22876854395E+03  0.33803098875E+03  0.17247149177E+03 0.  0.
         24    2    3    3    0    0 -0.69719216233E+02  0.18605134784E+03  0.16612015530E+03  0.26879927473E+03  0.71981045813E+02 0.  0.
         -6    2    1    2    0  502  0.43190290239E+02 -0.17412089480E+03  0.40824487239E+03  0.47679282455E+03  0.16877213793E+03 0.  0.
        -24    2    5    5    0    0  0.73265249795E+02 -0.18248732654E+03  0.32790521599E+03  0.39047335536E+03  0.79235026323E+02 0.  0.
          5    1    3    3  501    0  0.26528925993E+02 -0.11930453038E+02  0.62648388655E+02  0.69231714013E+02  0.47000000000E+01 0. -1.
        -13    1    4    4    0    0 -0.55246290161E+02  0.60515194117E+02  0.87960544801E+02  0.12021355471E+03  0.00000000000E+00 0.  1.
         14    1    4    4    0    0 -0.14472926072E+02  0.12553615372E+03  0.78159610497E+02  0.14858572002E+03  0.00000000000E+00 0. -1.
         -5    1    5    5    0  502 -0.30074959555E+02  0.83664317422E+01  0.80339656399E+02  0.86319469198E+02  0.47000000000E+01 0.  1.
         13    1    6    6    0    0  0.17101533909E+02 -0.13327094755E+03  0.24070190050E+03  0.27566467461E+03  0.00000000000E+00 0. -1.
        -14    1    6    6    0    0  0.56163715885E+02 -0.49216378992E+02  0.87203315484E+02  0.11480868075E+03  0.00000000000E+00 0.  1.
</event>
<event>
12    1  0.8133506E-002  0.2141215E+03  0.7818608E-02  0.1138991E+00
         21   -1    0    0  503  502  0.00000000000E+00  0.00000000000E+00  0.54177562635E+02  0.54177562635E+02  0.00000000000E+00 0. -1.
         21   -1    0    0  501  503 -0.00000000000E+00 -0.00000000000E+00 -0.94366187823E+03  0.94366187823E+03  0.00000000000E+00 0.  1.
          6    2    1    2  501    0  0.95580897267E+02  0.78849435899E+02 -0.61239977511E+03  0.64766253353E+03  0.17052956142E+03 0.  0.
         24    2    3    3    0    0  0.99331412098E+02  0.50073416620E+02 -0.60052104150E+03  0.61595575256E+03  0.80011820073E+02 0.  0.
         -6    2    1    2    0  502 -0.95580897267E+02 -0.78849435899E+02 -0.27708454048E+03  0.35017690733E+03  0.17462841232E+03 0.  0.
        -24    2    5    5    0    0 -0.44736919146E+02 -0.89627566169E+02 -0.91566145000E+02  0.15745834760E+03  0.79839086709E+02 0.  0.
          5    1    3    3  501    0 -0.37505148315E+01  0.28776019278E+02 -0.11878733609E+02  0.31706780965E+02  0.47000000000E+01 0. -1.
        -11    1    4    4    0    0  0.22088832532E+02 -0.21647561332E+02 -0.16383306537E+03  0.16672674273E+03  0.00000000000E+00 0.  1.
         12    1    4    4    0    0  0.77242579566E+02  0.71720977952E+02 -0.43668797613E+03  0.44922900983E+03  0.00000000000E+00 0. -1.
         -5    1    5    5    0  502 -0.50843978120E+02  0.10778130270E+02 -0.18551839548E+03  0.19271855973E+03  0.47000000000E+01 0.  1.
         13    1    6    6    0    0 -0.67887200481E+02 -0.60882652996E+02 -0.65216646577E+02  0.11210968029E+03  0.00000000000E+00 0. -1.
        -14    1    6    6    0    0  0.23150281335E+02 -0.28744913173E+02 -0.26349498423E+02  0.45348667305E+02  0.00000000000E+00 0.  1.
</event>
<event>
12    1  0.8133506E-002  0.1794431E+03  0.7818608E-02  0.1168401E+00
         21   -1    0    0  503  502  0.00000000000E+00  0.00000000000E+00  0.22844934571E+03  0.22844934571E+03  0.00000000000E+00 0. -1.
         21   -1    0    0  501  503 -0.00000000000E+00 -0.00000000000E+00 -0.17165332172E+03  0.17165332172E+03  0.00000000000E+00 0. -1.
          6    2    1    2  501    0  0.26093193422E+02 -0.43205495943E+02  0.11327888506E+03  0.21220729525E+03  0.17219831803E+03 0.  0.
         24    2    3    3    0    0 -0.32693371632E+02 -0.72526473458E+02  0.58959268010E+02  0.12683580850E+03  0.79260211529E+02 0.  0.
         -6    2    1    2    0  502 -0.26093193422E+02  0.43205495943E+02 -0.56482861077E+02  0.18789537218E+03  0.17194995688E+03 0.  0.
        -24    2    5    5    0    0 -0.31826687628E+02  0.44544961222E+02 -0.10271657839E+03  0.14105186954E+03  0.79672723109E+02 0.  0.
          5    1    3    3  501    0  0.58786565054E+02  0.29320977516E+02  0.54319617055E+02  0.85371486752E+02  0.47000000000E+01 0. -1.
        -13    1    4    4    0    0 -0.35497893220E+02 -0.63032124393E+01  0.47399272047E+02  0.59552681726E+02  0.00000000000E+00 0.  1.
         14    1    4    4    0    0  0.28045215881E+01 -0.66223261019E+02  0.11559995962E+02  0.67283126770E+02  0.00000000000E+00 0. -1.
         -5    1    5    5    0  502  0.57334942059E+01 -0.13394652788E+01  0.46233717317E+02  0.46843502644E+02  0.47000000000E+01 0.  1.
         11    1    6    6    0    0 -0.51983423656E+02  0.43025418917E+02 -0.48249041475E+02  0.82954403206E+02  0.00000000000E+00 0. -1.
        -12    1    6    6    0    0  0.20156736029E+02  0.15195423046E+01 -0.54467536919E+02  0.58097466332E+02  0.00000000000E+00 0.  1.
</event>
<event>
12    1  0.8133506E-002  0.1837286E+03  0.7818608E-02  0.1164639E+00
         21   -1    0    0  501  502  0.00000000000E+00  0.00000000000E+00  0.70016870519E+03  0.70016870519E+03  0.00000000000E+00 0.  1.
         21   -1    0    0  502  503 -0.00000000000E+00 -0.00000000000E+00 -0.59214634326E+02  0.59214634326E+02  0.00000000000E+00 0.  1.
         -6    2    1    2    0  503  0.42849651160E+02 -0.50950120047E+02  0.15239445090E+03  0.23741906244E+03  0.16944537528E+03 0.  0.
        -24    2    3    3    0    0  0.23873972580E+02 -0.19977856944E+02  0.17476893581E+03  0.19449977733E+03  0.79478935087E+02 0.  0.
          6    2    1    2  501    0 -0.42849651160E+02  0.50950120047E+02  0.48855961996E+03  0.52196427708E+03  0.17124309315E+03 0.  0.
         24    2    5    5    0    0  0.94187982941E+01  0.87293508658E+02  0.35136290428E+03  0.37064388355E+03  0.78817050775E+02 0.  0.
          5    1    5    5  501    0 -0.52268449454E+02 -0.36343388611E+02  0.13719671568E+03  0.15132039352E+03  0.47000000000E+01 0. -1.
        -11    1    6    6    0    0 -0.30870429478E+02  0.46442497194E+02  0.22593778972E+03  0.23271822830E+03  0.00000000000E+00 0.  1.
         12    1    6    6    0    0  0.40289227773E+02  0.40851011464E+02  0.12542511456E+03  0.13792565525E+03  0.00000000000E+00 0. -1.
         -5    1    3    3    0  503  0.18975678580E+02 -0.30972263103E+02 -0.22374484907E+02  0.42919285107E+02  0.47000000000E+01 0.  1.
         13    1    4    4    0    0 -0.74789661043E+01  0.27103384861E+02  0.70008783289E+02  0.75443741573E+02  0.00000000000E+00 0. -1.
        -14    1    4    4    0    0  0.31352938684E+02 -0.47081241805E+02  0.10476015252E+03  0.11905603576E+03  0.00000000000E+00 0.  1.
</event>
<event>
12    1  0.8133506E-002  0.1963974E+03  0.7818608E-02  0.1153264E+00
         21   -1    0    0  501  502  0.00000000000E+00  0.00000000000E+00  0.13997374985E+02  0.13997374985E+02  0.00000000000E+00 0.  1.
         21   -1    0    0  502  503 -0.00000000000E+00 -0.00000000000E+00 -0.29400771802E+04  0.29400771802E+04  0.00000000000E+00 0. -1.
         -6    2    1    2    0  503 -0.66474916785E+02 -0.68621792322E+02 -0.18681340385E+04  0.18784293258E+04  0.17159277662E+03 0.  0.
        -24    2    3    3    0    0 -0.72272457982E+02 -0.68821345401E+02 -0.18668241009E+04  0.18708492702E+04  0.71309764573E+02 0.  0.
          6    2    1    2  501    0  0.66474916785E+02  0.68621792322E+02 -0.10579457667E+04  0.10756452294E+04  0.16922041664E+03 0.  0.
         24    2    5    5    0    0  0.97908040283E+01 -0.45518930053E+01 -0.25343601939E+03  0.26581469138E+03  0.79442146607E+02 0.  0.
          5    1    5    5  501    0  0.56684112757E+02  0.73173685328E+02 -0.80450974728E+03  0.80983053803E+03  0.47000000000E+01 0. -1.
        -13    1    6    6    0    0  0.33619445618E+02  0.25223812243E+02 -0.13451258275E+03  0.14092601869E+03  0.00000000000E+00 0.  1.
         14    1    6    6    0    0 -0.23828641590E+02 -0.29775705248E+02 -0.11892343664E+03  0.12488867269E+03  0.00000000000E+00 0. -1.
         -5    1    3    3    0  503  0.57975411974E+01  0.19955307841E+00 -0.13099376717E+01  0.75800555453E+01  0.47000000000E+01 0.  1.
         11    1    4    4    0    0 -0.12084184299E+02 -0.56100585260E+02 -0.67347716852E+03  0.67591774625E+03  0.00000000000E+00 0. -1.
        -12    1    4    4    0    0 -0.60188273684E+02 -0.12720760141E+02 -0.11933469323E+04  0.11949315240E+04  0.00000000000E+00 0.  1.
</event>
<event>
12    1  0.8133506E-002  0.2459554E+03  0.7818608E-02  0.1117583E+00
         21   -1    0    0  501  502  0.00000000000E+00  0.00000000000E+00  0.11462295311E+04  0.11462295311E+04  0.00000000000E+00 0. -1.
         21   -1    0    0  502  503 -0.00000000000E+00 -0.00000000000E+00 -0.10806188126E+03  0.10806188126E+03  0.00000000000E+00 0. -1.
         -6    2    1    2    0  503  0.43158503119E+02 -0.15763923755E+03  0.66976260746E+02  0.25491152153E+03  0.18379684083E+03 0.  0.
        -24    2    3    3    0    0 -0.37680982569E+02 -0.13146994223E+03  0.61995998374E+02  0.16966630186E+03  0.78987011685E+02 0.  0.
          6    2    1    2  501    0 -0.43158503119E+02  0.15763923755E+03  0.97119138905E+03  0.99937989079E+03  0.16980773348E+03 0.  0.
         24    2    5    5    0    0 -0.53239333314E+02  0.45831558870E+02  0.29636484260E+03  0.31526327943E+03  0.81387081454E+02 0.  0.
          5    1    5    5  501    0  0.10080830196E+02  0.11180767868E+03  0.67482654645E+03  0.68411661136E+03  0.47000000000E+01 0. -1.
        -13    1    6    6    0    0 -0.68951652984E+02  0.44613461128E+02  0.28275566802E+03  0.29444092644E+03  0.00000000000E+00 0.  1.
         14    1    6    6    0    0  0.15712319670E+02  0.12180977427E+01  0.13609174585E+02  0.20822352998E+02  0.00000000000E+00 0. -1.
         -5    1    3    3    0  503  0.80839485688E+02 -0.26169295321E+02  0.49802623720E+01  0.85245219673E+02  0.47000000000E+01 0.  1.
         11    1    4    4    0    0 -0.34151952420E+02 -0.77878894358E+02 -0.33224625857E+01  0.85102977611E+02  0.00000000000E+00 0. -1.
        -12    1    4    4    0    0 -0.35290301492E+01 -0.53591047869E+02  0.65318460960E+02  0.84563324246E+02  0.00000000000E+00 0.  1.
</event>
<event>
12    1  0.8133506E-002  0.3038848E+03  0.7818608E-02  0.1084045E+00
         21   -1    0    0  501  502  0.00000000000E+00  0.00000000000E+00  0.85469044793E+03  0.85469044793E+03  0.00000000000E+00 0. -1.
         21   -1    0    0  502  503 -0.00000000000E+00 -0.00000000000E+00 -0.10919989867E+03  0.10919989867E+03  0.00000000000E+00 0. -1.
         -6    2    1    2    0  503  0.24387268199E+03 -0.48316275308E+02  0.28628014364E+03  0.41323605017E+03  0.16431483510E+03 0.  0.
        -24    2    3    3    0    0  0.22393374189E+03 -0.55123421305E+02  0.17440701832E+03  0.29929929254E+03  0.77313298629E+02 0.  0.
          6    2    1    2  501    0 -0.24387268199E+03  0.48316275308E+02  0.45921040562E+03  0.55065429644E+03  0.17475013611E+03 0.  0.
         24    2    5    5    0    0 -0.13097886397E+03 -0.36699111291E+02  0.30548075512E+03  0.34178226492E+03  0.70670625365E+02 0.  0.
          5    1    5    5  501    0 -0.11289381802E+03  0.85015386599E+02  0.15372965051E+03  0.20887203152E+03  0.47000000000E+01 0. -1.
        -11    1    6    6    0    0  0.21850867276E+01 -0.18167175228E+02  0.28054473545E+02  0.33494392749E+02  0.00000000000E+00 0.  1.
         12    1    6    6    0    0 -0.13316395070E+03 -0.18531936063E+02  0.27742628157E+03  0.30828787217E+03  0.00000000000E+00 0. -1.
         -5    1    3    3    0  503  0.19938940107E+02  0.68071459972E+01  0.11187312532E+03  0.11393675763E+03  0.47000000000E+01 0.  1.
         11    1    4    4    0    0  0.14027376894E+03 -0.20038937816E+02  0.14781754578E+03  0.20476404988E+03  0.00000000000E+00 0. -1.
        -12    1    4    4    0    0  0.83659972949E+02 -0.35084483490E+02  0.26589472533E+02  0.94535242662E+02  0.00000000000E+00 0.  1.
</event>
<event>
12    1  0.8133506E-002  0.1837576E+03  0.7818608E-02  0.1164503E+00
         21   -1    0    0  501  502  0.00000000000E+00  0.00000000000E+00  0.36501063239E+03  0.36501063239E+03  0.00000000000E+00 0. -1.
         21   -1    0    0  502  503 -0.00000000000E+00 -0.00000000000E+00 -0.11667310952E+03  0.11667310952E+03  0.00000000000E+00 0. -1.
         -6    2    1    2    0  503  0.45927749887E+02 -0.42075373642E+02  0.13508649360E+02  0.18425350823E+03  0.17287908031E+03 0.  0.
        -24    2    3    3    0    0 -0.27461915213E+01  0.31893616262E+02 -0.22345829355E+02  0.88607297202E+02  0.79543527089E+02 0.  0.
          6    2    1    2  501    0 -0.45927749887E+02  0.42075373642E+02  0.23482887351E+03  0.29743023368E+03  0.17158219255E+03 0.  0.
         24    2    5    5    0    0  0.12123032761E+02 -0.16365540622E+02  0.18641720806E+03  0.20176930552E+03  0.74462596952E+02 0.  0.
          5    1    5    5  501    0 -0.58050782648E+02  0.58440914264E+02  0.48411665444E+02  0.95660928164E+02  0.47000000000E+01 0. -1.
        -11    1    6    6    0    0  0.43268703754E+02 -0.35636479790E+01  0.99651960671E+02  0.10869863650E+03  0.00000000000E+00 0.  1.
         12    1    6    6    0    0 -0.31145670993E+02 -0.12801892643E+02  0.86765247393E+02  0.93070669021E+02  0.00000000000E+00 0. -1.
         -5    1    3    3    0  503  0.48673941408E+02 -0.73968989904E+02  0.35854478715E+02  0.95646211026E+02  0.47000000000E+01 0.  1.
         11    1    4    4    0    0  0.20152198919E+02  0.44465628565E+00  0.21850981935E+02  0.29728340889E+02  0.00000000000E+00 0. -1.
        -12    1    4    4    0    0 -0.22898390440E+02  0.31448959977E+02 -0.44196811290E+02  0.58878956313E+02  0.00000000000E+00 0.  1.
</event>
<event>
12    1  0.8133506E-002  0.2255462E+03  0.7818608E-02  0.1129941E+00
         21   -1    0    0  503  502  0.00000000000E+00  0.00000000000E+00  0.11816724122E+03  0.11816724122E+03  0.00000000000E+00 0. -1.
         21   -1    0    0  501  503 -0.00000000000E+00 -0.00000000000E+00 -0.43664003566E+03  0.43664003566E+03  0.00000000000E+00 0.  1.
          6    2    1    2  501    0 -0.10556368504E+03  0.99080803374E+02 -0.19576212328E+03  0.29865348788E+03  0.17294623360E+03 0.  0.
         24    2    3    3    0    0 -0.66427131387E+01  0.94094411731E+02 -0.12780862302E+03  0.17844537259E+03  0.81300817491E+02 0.  0.
         -6    2    1    2    0  502  0.10556368504E+03 -0.99080803374E+02 -0.12271067115E+03  0.25615378900E+03  0.17203533825E+03 0.  0.
        -24    2    5    5    0    0  0.13275585064E+03 -0.10416902357E+03 -0.76395936168E+02  0.20200170195E+03  0.80579446371E+02 0.  0.
          5    1    3    3  501    0 -0.98920971897E+02  0.49863916434E+01 -0.67953500258E+02  0.12020811528E+03  0.47000000000E+01 0. -1.
        -13    1    4    4    0    0  0.18309040941E+02  0.95165514935E+01 -0.70063758436E+02  0.73039140046E+02  0.00000000000E+00 0.  1.
         14    1    4    4    0    0 -0.24951754079E+02  0.84577860237E+02 -0.57744864587E+02  0.10540623255E+03  0.00000000000E+00 0. -1.
         -5    1    5    5    0  502 -0.27192165604E+02  0.50882201930E+01 -0.46314734986E+02  0.54152087050E+02  0.47000000000E+01 0.  1.
         11    1    6    6    0    0  0.11639404120E+03 -0.64373467029E+02 -0.25633755857E+02  0.13545702464E+03  0.00000000000E+00 0. -1.
        -12    1    6    6    0    0  0.16361809435E+02 -0.39795556539E+02 -0.50762180310E+02  0.66544677308E+02  0.00000000000E+00 0.  1.
</event>
<event>
12    1  0.8133506E-002  0.1841585E+03  0.7818608E-02  0.1164034E+00
         21   -1    0    0  501  502  0.00000000000E+00  0.00000000000E+00  0.79214883433E+03  0.79214883433E+03  0.00000000000E+00 0. -1.
         21   -1    0    0  502  503 -0.00000000000E+00 -0.00000000000E+00 -0.48733099239E+02  0.48733099239E+02  0.00000000000E+00 0. -1.
         -6    2    1    2    0  503  0.35152368635E+02 -0.56039190389E+02  0.52135426393E+03  0.55292370191E+03  0.17186701758E+03 0.  0.
        -24    2    3    3    0    0  0.29806500788E+02  0.30499607150E+02  0.33482847046E+03  0.34717749074E+03  0.81261626344E+02 0.  0.
          6    2    1    2  501    0 -0.35152368635E+02  0.56039190389E+02  0.22206147116E+03  0.28795823166E+03  0.17097533836E+03 0.  0.
         24    2    5    5    0    0 -0.23275929546E+02 -0.57021140866E+01  0.37969823113E+02  0.93369271634E+02  0.81864708006E+02 0.  0.
          5    1    5    5  501    0 -0.11876439089E+02  0.61741304475E+02  0.18409164805E+03  0.19458896003E+03  0.47000000000E+01 0. -1.
        -11    1    6    6    0    0 -0.26194891275E+02 -0.12959853821E+02  0.61760033839E+02  0.68325924214E+02  0.00000000000E+00 0.  1.
         12    1    6    6    0    0  0.29189617291E+01  0.72577397349E+01 -0.23790210725E+02  0.25043347420E+02  0.00000000000E+00 0. -1.
         -5    1    3    3    0  503  0.53458678469E+01 -0.86538797539E+02  0.18652579347E+03  0.20574621117E+03  0.47000000000E+01 0.  1.
         13    1    4    4    0    0  0.13822201061E+02 -0.11349452032E+02  0.25509450936E+03  0.25572069139E+03  0.00000000000E+00 0. -1.
        -14    1    4    4    0    0  0.15984299727E+02  0.41849059182E+02  0.79733961108E+02  0.91456799344E+02  0.00000000000E+00 0.  1.
</event>
<event>
12    1  0.8133506E-002  0.2278764E+03  0.7818608E-02  0.1128195E+00
         21   -1    0    0  501  502  0.00000000000E+00  0.00000000000E+00  0.74117133882E+03  0.74117133882E+03  0.00000000000E+00 0. -1.
         21   -1    0    0  502  503 -0.00000000000E+00 -0.00000000000E+00 -0.82938870644E+02  0.82938870644E+02  0.00000000000E+00 0. -1.
         -6    2    1    2    0  503 -0.14915480286E+03 -0.10762253558E+02  0.16637236427E+03  0.28214786930E+03  0.17194381420E+03 0.  0.
        -24    2    3    3    0    0 -0.14809205640E+03  0.32706583337E+02  0.85601685410E+02  0.19029656678E+03  0.76708259163E+02 0.  0.
          6    2    1    2  501    0  0.14915480286E+03  0.10762253558E+02  0.49186010391E+03  0.54196234017E+03  0.17156291855E+03 0.  0.
         24    2    5    5    0    0  0.36050821596E+02  0.71921399256E+01  0.34726958762E+03  0.35829480441E+03  0.80172387807E+02 0.  0.
          5    1    5    5  501    0  0.11310398126E+03  0.35701136322E+01  0.14459051629E+03  0.18366753575E+03  0.47000000000E+01 0. -1.
        -11    1    6    6    0    0 -0.12055036843E+02  0.27361143624E+02  0.19638384295E+03  0.19864684711E+03  0.00000000000E+00 0.  1.
         12    1    6    6    0    0  0.48105858439E+02 -0.20169003699E+02  0.15088574468E+03  0.15964795731E+03  0.00000000000E+00 0. -1.
         -5    1    3    3    0  503 -0.10627464633E+01 -0.43468836895E+02  0.80770678857E+02  0.91851302517E+02  0.47000000000E+01 0.  1.
         13    1    4    4    0    0 -0.10643273744E+03  0.56779306416E+02  0.50678701495E+02  0.13084398351E+03  0.00000000000E+00 0. -1.
        -14    1    4    4    0    0 -0.41659318957E+02 -0.24072723079E+02  0.34922983914E+02  0.59452583273E+02  0.00000000000E+00 0.  1.
</event>
<event>
12    1  0.8133506E-002  0.1951813E+03  0.7818608E-02  0.1153908E+00
         21   -1    0    0  503  502  0.00000000000E+00  0.00000000000E+00  0.24981668250E+03  0.24981668250E+03  0.00000000000E+00 0. -1.
         21   -1    0    0  501  503 -0.00000000000E+00 -0.00000000000E+00 -0.20825989959E+03  0.20825989959E+03  0.00000000000E+00 0. -1.
          6    2    1    2  501    0  0.29305505925E+02  0.85570337130E+02 -0.97894693858E+02  0.21819646314E+03  0.17275772100E+03 0.  0.
         24    2    3    3    0    0  0.15991509222E+02  0.71096486561E+02  0.81292433977E+01  0.11026166740E+03  0.82347507137E+02 0.  0.
         -6    2    1    2    0  502 -0.29305505925E+02 -0.85570337130E+02  0.13945147676E+03  0.23988011895E+03  0.17295855522E+03 0.  0.
        -24    2    5    5    0    0  0.28523057096E+02 -0.37222027523E+02  0.14456740225E+02  0.93840823195E+02  0.79987865585E+02 0.  0.
          5    1    3    3  501    0  0.13313996703E+02  0.14473850569E+02 -0.10602393726E+03  0.10793479573E+03  0.47000000000E+01 0. -1.
        -13    1    4    4    0    0  0.28917974541E+00 -0.12105628285E+02  0.21369477486E+02  0.24561849057E+02  0.00000000000E+00 0.  1.
         14    1    4    4    0    0  0.15702329477E+02  0.83202114846E+02 -0.13240234088E+02  0.85699818346E+02  0.00000000000E+00 0. -1.
         -5    1    5    5    0  502 -0.57828563021E+02 -0.48348309607E+02  0.12499473654E+03  0.14603929576E+03  0.47000000000E+01 0.  1.
         11    1    6    6    0    0  0.50565401615E+02 -0.23967363094E+02  0.30297444252E+02  0.63633556104E+02  0.00000000000E+00 0. -1.
        -12    1    6    6    0    0 -0.22042344519E+02 -0.13254664429E+02 -0.15840704028E+02  0.30207267091E+02  0.00000000000E+00 0.  1.
</event>
<event>
12    1  0.8133506E-002  0.2019177E+03  0.7818608E-02  0.1148326E+00
         21   -1    0    0  503  502  0.00000000000E+00  0.00000000000E+00  0.26375343334E+03  0.26375343334E+03  0.00000000000E+00 0.  1.
         21   -1    0    0  501  503 -0.00000000000E+00 -0.00000000000E+00 -0.15921346289E+03  0.15921346289E+03  0.00000000000E+00 0. -1.
          6    2    1    2  501    0 -0.74600353844E+02 -0.73390916423E+02  0.13391606463E+02  0.20142957488E+03  0.17158991551E+03 0.  0.
         24    2    3    3    0    0 -0.53388581017E+02  0.16010446379E+02  0.41581579434E+02  0.10520427907E+03  0.78944522359E+02 0.  0.
         -6    2    1    2    0  502  0.74600353844E+02  0.73390916423E+02  0.91148363981E+02  0.22153732135E+03  0.17268271797E+03 0.  0.
        -24    2    5    5    0    0  0.94564250319E+02  0.21327168519E+02  0.17139907221E+02  0.12875514267E+03  0.82987136286E+02 0.  0.
          5    1    3    3  501    0 -0.21211772826E+02 -0.89401362803E+02 -0.28189972971E+02  0.96225295809E+02  0.47000000000E+01 0. -1.
        -13    1    4    4    0    0 -0.47022308599E+02 -0.12962724206E+02  0.54245349038E+02  0.72949897992E+02  0.00000000000E+00 0.  1.
         14    1    4    4    0    0 -0.63662724185E+01  0.28973170585E+02 -0.12663769604E+02  0.32254381080E+02  0.00000000000E+00 0. -1.
         -5    1    5    5    0  502 -0.19963896475E+02  0.52063747904E+02  0.74008456761E+02  0.92782178679E+02  0.47000000000E+01 0.  1.
         13    1    6    6    0    0  0.36638718716E+02 -0.32153809719E+02  0.53535307906E+01  0.49040019173E+02  0.00000000000E+00 0. -1.
        -14    1    6    6    0    0  0.57925531603E+02  0.53480978238E+02  0.11786376430E+02  0.79715123497E+02  0.00000000000E+00 0.  1.
</event>
<event>
12    1  0.8133506E-002  0.1883645E+03  0.7818608E-02  0.1160071E+00
         21   -1    0    0  501  502  0.00000000000E+00  0.00000000000E+00  0.12144046335E+03  0.12144046335E+03  0.00000000000E+00 0. -1.
         21   -1    0    0  502  503 -0.00000000000E+00 -0.00000000000E+00 -0.92091852487E+03  0.92091852487E+03  0.00000000000E+00 0. -1.
         -6    2    1    2    0  503 -0.50088517196E+02  0.58016959348E+02 -0.83048712194E+03  0.85145918977E+03  0.17146155547E+03 0.  0.
        -24    2    3    3    0    0 -0.76268308119E+02  0.76557274601E+02 -0.79163640307E+03  0.80085688647E+03  0.54824144520E+02 0.  0.
          6    2    1    2  501    0  0.50088517196E+02 -0.58016959348E+02  0.31009060423E+02  0.19089979844E+03  0.17206494149E+03 0.  0.
         24    2    5    5    0    0  0.59023560801E+02 -0.61065988081E+02 -0.47219549542E+02  0.11196351403E+03  0.55617506099E+02 0.  0.
          5    1    5    5  501    0 -0.89350436052E+01  0.30490287329E+01  0.78228609965E+02  0.78936284416E+02  0.47000000000E+01 0. -1.
        -11    1    6    6    0    0  0.11726771412E+02 -0.43034546240E+02 -0.41674969831E+02  0.61043365310E+02  0.00000000000E+00 0.  1.
         12    1    6    6    0    0  0.47296789389E+02 -0.18031441841E+02 -0.55445797104E+01  0.50920148719E+02  0.00000000000E+00 0. -1.
         -5    1    3    3    0  503  0.26179790922E+02 -0.18540315253E+02 -0.38850718874E+02  0.50602303301E+02  0.47000000000E+01 0.  1.
         11    1    4    4    0    0 -0.73779380648E+02  0.58373181128E+02 -0.50873372331E+03  0.51735947514E+03  0.00000000000E+00 0. -1.
        -12    1    4    4    0    0 -0.24889274708E+01  0.18184093473E+02 -0.28290267976E+03  0.28349741133E+03  0.00000000000E+00 0.  1.
</event>
<event>
12    1  0.8133506E-002  0.1939588E+03  0.7818608E-02  0.1157322E+00
         21   -1    0    0  503  502  0.00000000000E+00  0.00000000000E+00  0.13602642802E+03  0.13602642802E+03  0.00000000000E+00 0.  1.
         21   -1    0    0  501  503 -0.00000000000E+00 -0.00000000000E+00 -0.45091704025E+03  0.45091704025E+03  0.00000000000E+00 0.  1.
          6    2    1    2  501    0  0.62147237508E+02 -0.12571718600E+02 -0.34493581691E+03  0.39067141896E+03  0.17211366178E+03 0.  0.
         24    2    3    3    0    0  0.17119945638E+02  0.10077843012E+02 -0.56922214348E+02  0.98242991969E+02  0.77568624626E+02 0.  0.
         -6    2    1    2    0  502 -0.62147237508E+02  0.12571718600E+02  0.30045204678E+02  0.19627204931E+03  0.18330214340E+03 0.  0.
        -24    2    5    5    0    0 -0.11123172241E+03 -0.71940892534E+01  0.35329826789E+02  0.14288674187E+03  0.82122916115E+02 0.  0.
          5    1    3    3  501    0  0.45027291870E+02 -0.22649561612E+02 -0.28801360256E+03  0.29242842699E+03  0.47000000000E+01 0. -1.
        -13    1    4    4    0    0  0.23382277348E+02 -0.30647093878E+02 -0.31907088230E+02  0.50040359076E+02  0.00000000000E+00 0.  1.
         14    1    4    4    0    0 -0.62623317100E+01  0.40724936890E+02 -0.25015126118E+02  0.48202632893E+02  0.00000000000E+00 0. -1.
         -5    1    5    5    0  502  0.49084484907E+02  0.19765807853E+02 -0.52846221105E+01  0.53385307431E+02  0.47000000000E+01 0.  1.
         11    1    6    6    0    0 -0.12144198866E+01 -0.17926664821E+02  0.26470647072E+02  0.31992737983E+02  0.00000000000E+00 0. -1.
        -12    1    6    6    0    0 -0.11001730253E+03  0.10732575568E+02  0.88591797172E+01  0.11089400389E+03  0.00000000000E+00 0.  1.
</event>
<event>
12    1  0.8133506E-002  0.1943990E+03  0.7818608E-02  0.1155151E+00
         21   -1    0    0  503  502  0.00000000000E+00  0.00000000000E+00  0.45382830675E+02  0.45382830675E+02  0.00000000000E+00 0. -1.
         21   -1    0    0  501  503 -0.00000000000E+00 -0.00000000000E+00 -0.10754084920E+04  0.10754084920E+04  0.00000000000E+00 0.  1.
          6    2    1    2  501    0 -0.71820036747E+02 -0.56306842425E+02 -0.78474205234E+03  0.80781363585E+03  0.16856513093E+03 0.  0.
         24    2    3    3    0    0 -0.61719703934E+02  0.85352728178E+01 -0.65050779725E+03  0.65832302788E+03  0.79665814571E+02 0.  0.
         -6    2    1    2    0  502  0.71820036747E+02  0.56306842425E+02 -0.24528360895E+03  0.31297768679E+03  0.17164616346E+03 0.  0.
        -24    2    5    5    0    0  0.59817481846E+02  0.51633404651E+02 -0.60330010196E+02  0.12751656948E+03  0.79853777309E+02 0.  0.
          5    1    3    3  501    0 -0.10100332813E+02 -0.64842115243E+02 -0.13423425509E+03  0.14949060797E+03  0.47000000000E+01 0. -1.
        -13    1    4    4    0    0  0.17484620772E+02  0.12895287726E+02 -0.15145123989E+03  0.15300156363E+03  0.00000000000E+00 0.  1.
         14    1    4    4    0    0 -0.79204324706E+02 -0.43600149080E+01 -0.49905655736E+03  0.50532146424E+03  0.00000000000E+00 0. -1.
         -5    1    5    5    0  502  0.12002554901E+02  0.46734377739E+01 -0.18495359875E+03  0.18546111732E+03  0.47000000000E+01 0.  1.
         13    1    6    6    0    0  0.50367153606E+02  0.69890097357E+02 -0.63083347256E+02  0.10677539310E+03  0.00000000000E+00 0. -1.
        -14    1    6    6    0    0  0.94503282393E+01 -0.18256692707E+02  0.27533370600E+01  0.20741176374E+02  0.00000000000E+00 0.  1.
</event>
<event>
12    1  0.8133506E-002  0.2184341E+03  0.7818608E-02  0.1135173E+00
         21   -1    0    0  503  502  0.00000000000E+00  0.00000000000E+00  0.34340530220E+03  0.34340530220E+03  0.00000000000E+00 0.  1.
         21   -1    0    0  501  503 -0.00000000000E+00 -0.00000000000E+00 -0.29491457424E+03  0.29491457424E+03  0.00000000000E+00 0. -1.
          6    2    1    2  501    0  0.51355161579E+02  0.12610767507E+03 -0.20813670177E+03  0.30171895697E+03  0.17080089004E+03 0.  0.
         24    2    3    3    0    0 -0.26990171107E+02  0.82929991599E+02 -0.68723167916E+02  0.13600677599E+03  0.78543723257E+02 0.  0.
         -6    2    1    2    0  502 -0.51355161579E+02 -0.12610767507E+03  0.25662742972E+03  0.33660091948E+03  0.17000600864E+03 0.  0.
        -24    2    5    5    0    0 -0.15142664960E+02 -0.53234409965E+02  0.23234025630E+03  0.25154908545E+03  0.78941402237E+02 0.  0.
          5    1    3    3  501    0  0.78345332686E+02  0.43177683475E+02 -0.13941353385E+03  0.16571218098E+03  0.47000000000E+01 0. -1.
        -11    1    4    4    0    0 -0.41189678330E+02  0.69538312349E+02 -0.19623706786E+02  0.83170044807E+02  0.00000000000E+00 0.  1.
         12    1    4    4    0    0  0.14199507223E+02  0.13391679250E+02 -0.49099461130E+02  0.52836731180E+02  0.00000000000E+00 0. -1.
         -5    1    5    5    0  502 -0.36212496618E+02 -0.72873265109E+02  0.24287173428E+02  0.85051834031E+02  0.47000000000E+01 0.  1.
         13    1    6    6    0    0 -0.41604013659E+02 -0.25139588874E+02  0.18043281608E+03  0.18686597871E+03  0.00000000000E+00 0. -1.
        -14    1    6    6    0    0  0.26461348699E+02 -0.28094821091E+02  0.51907440214E+02  0.64683106734E+02  0.00000000000E+00 0.  1.
</event>
<event>
12    1  0.8133506E-002  0.1874340E+03  0.7818608E-02  0.1160841E+00
         21   -1    0    0  501  502  0.00000000000E+00  0.00000000000E+00  0.47788436818E+03  0.47788436818E+03  0.00000000000E+00 0. -1.
         21   -1    0    0  502  503 -0.00000000000E+00 -0.00000000000E+00 -0.10314015640E+03  0.10314015640E+03  0.00000000000E+00 0. -1.
         -6    2    1    2    0  503 -0.23330119525E+02  0.69457140769E+02  0.31406085770E+02  0.18985631596E+03  0.17230928473E+03 0.  0.
        -24    2    3    3    0    0 -0.11565367639E+02  0.10001990957E+03  0.64040677624E+02  0.14338483213E+03  0.79500073311E+02 0.  0.
          6    2    1    2  501    0  0.23330119525E+02 -0.69457140769E+02  0.34333812600E+03  0.39116820863E+03  0.17251930266E+03 0.  0.
         24    2    5    5    0    0 -0.42905548396E+02 -0.21758522410E+02  0.25355736729E+03  0.26973923131E+03  0.78444853345E+02 0.  0.
          5    1    5    5  501    0  0.66235667921E+02 -0.47698618358E+02  0.89780758708E+02  0.12142897732E+03  0.47000000000E+01 0. -1.
        -11    1    6    6    0    0 -0.36274016982E+02  0.39507289567E+01  0.38480770067E+02  0.53030012561E+02  0.00000000000E+00 0.  1.
         12    1    6    6    0    0 -0.66315314147E+01 -0.25709251367E+02  0.21507659723E+03  0.21670921875E+03  0.00000000000E+00 0. -1.
         -5    1    3    3    0  503 -0.11764751886E+02 -0.30562768798E+02 -0.32634591853E+02  0.46471483826E+02  0.47000000000E+01 0.  1.
         13    1    4    4    0    0 -0.20116318772E+02  0.91917867280E+02  0.17921281392E+02  0.95784826215E+02  0.00000000000E+00 0. -1.
        -14    1    4    4    0    0  0.85509511336E+01  0.81020422870E+01  0.46119396231E+02  0.47600005917E+02  0.00000000000E+00 0.  1.
</event>
<event>
12    1  0.8133506E-002  0.1744876E+03  0.7818608E-02  0.1173659E+00
         21   -1    0    0  501  502  0.00000000000E+00  0.00000000000E+00  0.51658355203E+03  0.51658355203E+03  0.00000000000E+00 0. -1.
         21   -1    0    0  502  503 -0.00000000000E+00 -0.00000000000E+00 -0.48252424541E+03  0.48252424541E+03  0.00000000000E+00 0. -1.
         -6    2    1    2    0  503 -0.14351260526E+02  0.10812091670E+02 -0.45133432431E+03  0.48330464707E+03  0.17192396451E+03 0.  0.
        -24    2    3    3    0    0 -0.58286015442E+02 -0.39410570716E+02 -0.24893275985E+03  0.27013555502E+03  0.77815464288E+02 0.  0.
          6    2    1    2  501    0  0.14351260526E+02 -0.10812091670E+02  0.48539363093E+03  0.51580315038E+03  0.17355994061E+03 0.  0.
         24    2    5    5    0    0  0.49804422409E+02  0.19358223619E+01  0.14590044207E+03  0.17419350285E+03  0.81069165158E+02 0.  0.
          5    1    5    5  501    0 -0.35453161883E+02 -0.12747914032E+02  0.33949318886E+03  0.34160964753E+03  0.47000000000E+01 0. -1.
        -11    1    6    6    0    0 -0.10513346897E+02 -0.16163109959E+01 -0.49202471266E+01  0.11719716549E+02  0.00000000000E+00 0.  1.
         12    1    6    6    0    0  0.60317769306E+02  0.35521333578E+01  0.15082068920E+03  0.16247378630E+03  0.00000000000E+00 0. -1.
         -5    1    3    3    0  503  0.43934754916E+02  0.50222662386E+02 -0.20240156446E+03  0.21316909204E+03  0.47000000000E+01 0.  1.
         13    1    4    4    0    0  0.13374471276E+01  0.19228591405E+02 -0.70336098597E+02  0.72929378567E+02  0.00000000000E+00 0. -1.
        -14    1    4    4    0    0 -0.59623462569E+02 -0.58639162121E+02 -0.17859666125E+03  0.19720617646E+03  0.00000000000E+00 0.  1.
</event>
<event>
12    1  0.8133506E-002  0.2459053E+03  0.7818608E-02  0.1115966E+00
         21   -1    0    0  503  502  0.00000000000E+00  0.00000000000E+00  0.58909968385E+03  0.58909968385E+03  0.00000000000E+00 0. -1.
         21   -1    0    0  501  503 -0.00000000000E+00 -0.00000000000E+00 -0.24024403475E+03  0.24024403475E+03  0.00000000000E+00 0. -1.
          6    2    1    2  501    0 -0.13619888176E+03  0.11067484671E+03 -0.13957002265E+03  0.28250824701E+03  0.17184894913E+03 0.  0.
         24    2    3    3    0    0 -0.90952816768E+02  0.12887148007E+03 -0.56762050043E+02  0.18629195841E+03  0.81255708667E+02 0.  0.
         -6    2    1    2    0  502  0.13619888176E+03 -0.11067484671E+03  0.48842567175E+03  0.54683547159E+03  0.17225080285E+03 0.  0.
        -24    2    5    5    0    0  0.83896572084E+02 -0.14143605203E+03  0.33080561846E+03  0.37787407201E+03  0.79458577078E+02 0.  0.
          5    1    3    3  501    0 -0.45246064989E+02 -0.18196633364E+02 -0.82807972610E+02  0.96216288593E+02  0.47000000000E+01 0. -1.
        -11    1    4    4    0    0 -0.58627657288E+02  0.12965860622E+03 -0.58631441575E+02  0.15390322383E+03  0.00000000000E+00 0.  1.
         12    1    4    4    0    0 -0.32325159480E+02 -0.78712614735E+00  0.18693915317E+01  0.32388734580E+02  0.00000000000E+00 0. -1.
         -5    1    5    5    0  502  0.52302309673E+02  0.30761205324E+02  0.15762005329E+03  0.16896139958E+03  0.47000000000E+01 0.  1.
         11    1    6    6    0    0  0.30822856291E+02 -0.90109558393E+01  0.25947731989E+02  0.41285961179E+02  0.00000000000E+00 0. -1.
        -12    1    6    6    0    0  0.53073715793E+02 -0.13242509619E+03  0.30485788647E+03  0.33658811083E+03  0.00000000000E+00 0.  1.
</event>
<event>
12    1  0.8133506E-002  0.2205376E+03  0.7818608E-02  0.1133558E+00
         21   -1    0    0  503  502  0.00000000000E+00  0.00000000000E+00  0.38469522284E+02  0.38469522284E+02  0.00000000000E+00 0. -1.
         21   -1    0    0  501  503 -0.00000000000E+00 -0.00000000000E+00 -0.19024912789E+04  0.19024912789E+04  0.00000000000E+00 0. -1.
          6    2    1    2  501    0 -0.12173402586E+03  0.65855251725E+02 -0.14945507796E+04  0.15106752556E+04  0.17117712433E+03 0.  0.
         24    2    3    3    0    0 -0.10449817715E+03 -0.18193900146E+02 -0.95455247203E+03  0.96388315930E+03  0.81544073352E+02 0.  0.
         -6    2    1    2    0  502  0.12173402586E+03 -0.65855251725E+02 -0.36947097702E+03  0.43028554558E+03  0.17169962329E+03 0.  0.
        -24    2    5    5    0    0  0.20536160219E+02  0.21780949891E+02 -0.11452324710E+03  0.14228980457E+03  0.78959931001E+02 0.  0.
          5    1    3    3  501    0 -0.17235848713E+02  0.84049151871E+02 -0.53999830755E+03  0.54679209629E+03  0.47000000000E+01 0. -1.
        -11    1    4    4    0    0 -0.20352946898E+02  0.16679063763E+02 -0.72272744201E+02  0.76914128545E+02  0.00000000000E+00 0.  1.
         12    1    4    4    0    0 -0.84145230249E+02 -0.34872963910E+02 -0.88227972783E+03  0.88696903076E+03  0.00000000000E+00 0. -1.
         -5    1    5    5    0  502  0.10119786564E+03 -0.87636201616E+02 -0.25494772992E+03  0.28799574101E+03  0.47000000000E+01 0.  1.
         13    1    6    6    0    0  0.29276553898E+02  0.21581660171E+02 -0.10440198007E+02  0.37840221964E+02  0.00000000000E+00 0. -1.
        -14    1    6    6    0    0 -0.87403936793E+01  0.19928971999E+00 -0.10408304909E+03  0.10444958261E+03  0.00000000000E+00 0.  1.
</event>
<event>
12    1  0.8133506E-002  0.1929553E+03  0.7818608E-02  0.1155945E+00
         21   -1    0    0  503  502  0.00000000000E+00  0.00000000000E+00  0.39643446013E+03  0.39643446013E+03  0.00000000000E+00 0. -1.
         21   -1    0    0  501  503 -0.00000000000E+00 -0.00000000000E+00 -0.14117054702E+03  0.14117054702E+03  0.00000000000E+00 0.  1.
          6    2    1    2  501    0 -0.66809019619E+02 -0.54599921442E+02 -0.28207308338E+02  0.19500611716E+03  0.17258950420E+03 0.  0.
         24    2    3    3    0    0 -0.51620748242E+02 -0.19504469783E+02 -0.83202626103E+02  0.12785740689E+03  0.79873108840E+02 0.  0.
         -6    2    1    2    0  502  0.66809019619E+02  0.54599921442E+02  0.28347122145E+03  0.34259888999E+03  0.17196938539E+03 0.  0.
        -24    2    5    5    0    0 -0.24667012051E+02  0.51617115446E+02  0.17394398272E+03  0.19978758958E+03  0.79911098959E+02 0.  0.
          5    1    3    3  501    0 -0.15188271378E+02 -0.35095451658E+02  0.54995317765E+02  0.67148710267E+02  0.47000000000E+01 0. -1.
        -11    1    4    4    0    0 -0.10439836497E+02 -0.86689141593E+01 -0.84176920784E+02  0.85263674865E+02  0.00000000000E+00 0.  1.
         12    1    4    4    0    0 -0.41180911744E+02 -0.10835555624E+02  0.97429468074E+00  0.42593732026E+02  0.00000000000E+00 0. -1.
         -5    1    5    5    0  502  0.91476031671E+02  0.29828059957E+01  0.10952723873E+03  0.14281130041E+03  0.47000000000E+01 0.  1.
         13    1    6    6    0    0 -0.16793235327E+02 -0.15420458238E+02  0.85743757711E+02  0.88723138309E+02  0.00000000000E+00 0. -1.
        -14    1    6    6    0    0 -0.78737767241E+01  0.67037573684E+02  0.88200225005E+02  0.11106445127E+03  0.00000000000E+00 0.  1.
</event>
<event>
12    1  0.8133506E-002  0.1812219E+03  0.7818608E-02  0.1166692E+00
         21   -1    0    0  503  502  0.00000000000E+00  0.00000000000E+00  0.21624680505E+03  0.21624680505E+03  0.00000000000E+00 0. -1.
         21   -1    0    0  501  503 -0.00000000000E+00 -0.00000000000E+00 -0.15281611740E+03  0.15281611740E+03  0.00000000000E+00 0. -1.
          6    2    1    2  501    0  0.55065523385E+02 -0.15311125558E+02  0.15481285146E+02  0.18160482565E+03  0.17167993499E+03 0.  0.
         24    2    3    3    0    0 -0.86470951048E+01  0.11929415568E+02  0.57308818617E+02  0.10053092485E+03  0.81271661418E+02 0.  0.
         -6    2    1    2    0  502 -0.55065523385E+02  0.15311125558E+02  0.47949402503E+02  0.18745809680E+03  0.17197310959E+03 0.  0.
        -24    2    5    5    0    0  0.94641540326E+01 -0.29429763226E+02  0.65261306940E+02  0.10691234314E+03  0.78838631126E+02 0.  0.
          5    1    3    3  501    0  0.63712618490E+02 -0.27240541125E+02 -0.41827533471E+02  0.81073900806E+02  0.47000000000E+01 0. -1.
        -11    1    4    4    0    0 -0.60087746412E+00 -0.25993558166E+02  0.56000067374E+02  0.61741668796E+02  0.00000000000E+00 0.  1.
         12    1    4    4    0    0 -0.80462176407E+01  0.37922973733E+02  0.13087512424E+01  0.38789256050E+02  0.00000000000E+00 0. -1.
         -5    1    5    5    0  502 -0.64529677417E+02  0.44740888784E+02 -0.17311904437E+02  0.80545753656E+02  0.47000000000E+01 0.  1.
         11    1    6    6    0    0 -0.31649439395E+02 -0.27919306543E+02  0.23570422895E+02  0.48339833753E+02  0.00000000000E+00 0. -1.
        -12    1    6    6    0    0  0.41113593427E+02 -0.15104566834E+01  0.41690884045E+02  0.58572509391E+02  0.00000000000E+00 0.  1.
</event>
<event>
12    1  0.8133506E-002  0.2033100E+03  0.7818608E-02  0.1147117E+00
         21   -1    0    0  503  502  0.00000000000E+00  0.00000000000E+00  0.15140158314E+04  0.15140158314E+04  0.00000000000E+00 0.  1.
         21   -1    0    0  501  503 -0.00000000000E+00 -0.00000000000E+00 -0.29739688988E+02  0.29739688988E+02  0.00000000000E+00 0.  1.
          6    2    1    2  501    0  0.97612520761E+02  0.46013612799E+02  0.51588610036E+03  0.55425351472E+03  0.17150228357E+03 0.  0.
         24    2    3    3    0    0  0.55517262111E+02  0.36915524659E+02  0.13324153069E+03  0.16916424883E+03  0.80114388404E+02 0.  0.
         -6    2    1    2    0  502 -0.97612520761E+02 -0.46013612799E+02  0.96839004204E+03  0.98950200564E+03  0.17230638087E+03 0.  0.
        -24    2    5    5    0    0  0.79122126136E+01 -0.47316981372E+02  0.35191312128E+03  0.36403973504E+03  0.79878557360E+02 0.  0.
          5    1    3    3  501    0  0.42095258650E+02  0.90980881403E+01  0.38264456967E+03  0.38508926589E+03  0.47000000000E+01 0. -1.
        -11    1    4    4    0    0  0.69767061829E+02  0.19687259333E+02  0.12652318097E+03  0.14581888225E+03  0.00000000000E+00 0.  1.
         12    1    4    4    0    0 -0.14249799718E+02  0.17228265326E+02  0.67183497201E+01  0.23345366588E+02  0.00000000000E+00 0. -1.
         -5    1    5    5    0  502 -0.10552473337E+03  0.13033685729E+01  0.61647692076E+03  0.62546227061E+03  0.47000000000E+01 0.  1.
         13    1    6    6    0    0  0.19137223796E+02 -0.67457771530E+02  0.26524524957E+03  0.27435711526E+03  0.00000000000E+00 0. -1.
        -14    1    6    6    0    0 -0.11225011182E+02  0.20140790158E+02  0.86667871705E+02  0.89682619778E+02  0.00000000000E+00 0.  1.
</event>
<event>
12    1  0.8133506E-002  0.1932299E+03  0.7818608E-02  0.1155765E+00
         21   -1    0    0  501  502  0.00000000000E+00  0.00000000000E+00  0.12179164728E+03  0.12179164728E+03  0.00000000000E+00 0. -1.
         21   -1    0    0  502  503 -0.00000000000E+00 -0.00000000000E+00 -0.33028879339E+03  0.33028879339E+03  0.00000000000E+00 0. -1.
         -6    2    1    2    0  503 -0.29976404636E+02 -0.82278877758E+02 -0.16628205792E+03  0.25429294445E+03  0.17130901975E+03 0.  0.
        -24    2    3    3    0    0 -0.44179712716E+02  0.16559590964E+02 -0.76171387030E+02  0.11970914205E+03  0.79385964873E+02 0.  0.
          6    2    1    2  501    0  0.29976404636E+02  0.82278877758E+02 -0.42215088184E+02  0.19778749623E+03  0.17224802302E+03 0.  0.
         24    2    5    5    0    0  0.46804730095E+02 -0.11220834738E+02 -0.89168317867E+00  0.94080685573E+02  0.80831865051E+02 0.  0.
          5    1    5    5  501    0 -0.16828325459E+02  0.93499712496E+02 -0.41323405005E+02  0.10370681065E+03  0.47000000000E+01 0. -1.
        -13    1    6    6    0    0  0.14007283221E+02  0.12575996169E+02  0.35134927742E+02  0.39860040270E+02  0.00000000000E+00 0.  1.
         14    1    6    6    0    0  0.32797446874E+02 -0.23796830907E+02 -0.36026610921E+02  0.54220645303E+02  0.00000000000E+00 0. -1.
         -5    1    3    3    0  503  0.14203308080E+02 -0.98838468722E+02 -0.90110670892E+02  0.13458380240E+03  0.47000000000E+01 0.  1.
         13    1    4    4    0    0  0.40949896547E+01  0.45159032310E+01  0.14807985705E+02  0.16013705471E+02  0.00000000000E+00 0. -1.
        -14    1    4    4    0    0 -0.48274702371E+02  0.12043687733E+02 -0.90979372736E+02  0.10369543658E+03  0.00000000000E+00 0.  1.
</event>
<event>
12    1  0.8133506E-002  0.3841891E+03  0.7818608E-02  0.1049748E+00
         21   -1    0    0  501  502  0.00000000000E+00  0.00000000000E+00  0.18803445088E+04  0.18803445088E+04  0.00000000000E+00 0.  1.
         21   -1    0    0  502  503 -0.00000000000E+00 -0.00000000000E+00 -0.16012305775E+03  0.16012305775E+03  0.00000000000E+00 0. -1.
         -6    2    1    2    0  503  0.57663812604E+02 -0.33432794012E+03  0.13029912576E+03  0.40568357024E+03  0.18028036543E+03 0.  0.
        -24    2    3    3    0    0  0.10830101770E+03 -0.24348875583E+03  0.11245643658E+03  0.30006001463E+03  0.79835315504E+02 0.  0.
          6    2    1    2  501    0 -0.57663812604E+02  0.33432794012E+03  0.15899223253E+04  0.16347839963E+04  0.17194600123E+03 0.  0.
         24    2    5    5    0    0 -0.56999331809E+02  0.24667818825E+03  0.89142891568E+03  0.93079674231E+03  0.87395717295E+02 0.  0.
          5    1    5    5  501    0 -0.66448079504E+00  0.87649751866E+02  0.69849340963E+03  0.70398725403E+03  0.47000000000E+01 0. -1.
        -11    1    6    6    0    0 -0.74507325534E+02  0.23478696220E+03  0.80708185243E+03  0.84383492207E+03  0.00000000000E+00 0.  1.
         12    1    6    6    0    0  0.17507993724E+02  0.11891226046E+02  0.84347063249E+02  0.86961820242E+02  0.00000000000E+00 0. -1.
         -5    1    3    3    0  503 -0.50637205096E+02 -0.90839184288E+02  0.17842689178E+02  0.10562355561E+03  0.47000000000E+01 0.  1.
         13    1    4    4    0    0  0.39273108355E+01 -0.77409172082E+02  0.82555365385E+01  0.77947146044E+02  0.00000000000E+00 0. -1.
        -14    1    4    4    0    0  0.10437370686E+03 -0.16607958375E+03  0.10420090004E+03  0.22211286859E+03  0.00000000000E+00 0.  1.
</event>
<event>
12    1  0.8133506E-002  0.2631487E+03  0.7818608E-02  0.1105419E+00
         21   -1    0    0  503  502  0.00000000000E+00  0.00000000000E+00  0.41113256335E+03  0.41113256335E+03  0.00000000000E+00 0. -1.
         21   -1    0    0  501  503 -0.00000000000E+00 -0.00000000000E+00 -0.24151924042E+03  0.24151924042E+03  0.00000000000E+00 0. -1.
          6    2    1    2  501    0 -0.19230266197E+03 -0.50666442803E+02 -0.95400348002E+02  0.27990799791E+03  0.17233646934E+03 0.  0.
         24    2    3    3    0    0 -0.63964972876E+02 -0.99131059230E+01 -0.10057347777E+03  0.14507384726E+03  0.82107303592E+02 0.  0.
         -6    2    1    2    0  502  0.19230266197E+03  0.50666442803E+02  0.26501367093E+03  0.37274380586E+03  0.17075800655E+03 0.  0.
        -24    2    5    5    0    0  0.17011183768E+03  0.11923992189E+02  0.12720063394E+03  0.22780266840E+03  0.81448361249E+02 0.  0.
          5    1    3    3  501    0 -0.12833768910E+03 -0.40753336880E+02  0.51731297672E+01  0.13483415065E+03  0.47000000000E+01 0. -1.
        -11    1    4    4    0    0 -0.70655042354E+01  0.25070733922E+02 -0.21633491490E+01  0.26137006888E+02  0.00000000000E+00 0.  1.
         12    1    4    4    0    0 -0.56899468640E+02 -0.34983839845E+02 -0.98410128620E+02  0.11893684037E+03  0.00000000000E+00 0. -1.
         -5    1    5    5    0  502  0.22190824298E+02  0.38742450613E+02  0.13781303699E+03  0.14494113746E+03  0.47000000000E+01 0.  1.
         13    1    6    6    0    0  0.94100064770E+02  0.42066068133E+02  0.94164272199E+02  0.13961119739E+03  0.00000000000E+00 0. -1.
        -14    1    6    6    0    0  0.76011772906E+02 -0.30142075943E+02  0.33036361738E+02  0.88191471013E+02  0.00000000000E+00 0.  1.
</event>
<event>
12    1  0.8133506E-002  0.2048594E+03  0.7818608E-02  0.1146006E+00
         21   -1    0    0  501  502  0.00000000000E+00  0.00000000000E+00  0.18457050322E+03  0.18457050322E+03  0.00000000000E+00 0. -1.
         21   -1    0    0  502  503 -0.00000000000E+00 -0.00000000000E+00 -0.26320590182E+03  0.26320590182E+03  0.00000000000E+00 0.  1.
         -6    2    1    2    0  503  0.10646377725E+03 -0.33199712314E+02 -0.12390814053E+03  0.23941717771E+03  0.17184470002E+03 0.  0.
        -24    2    3    3    0    0  0.24975011611E+02 -0.83827648232E+01  0.55762701813E+01  0.84353956966E+02  0.79940436049E+02 0.  0.
          6    2    1    2  501    0 -0.10646377725E+03  0.33199712314E+02  0.45272741925E+02  0.20835922733E+03  0.17007995087E+03 0.  0.
         24    2    5    5    0    0 -0.45237511653E+02 -0.43717509523E+02  0.41383290587E+02  0.10985982405E+03  0.79993444115E+02 0.  0.
          5    1    5    5  501    0 -0.61226265601E+02  0.76917221837E+02  0.38894513388E+01  0.98499403279E+02  0.47000000000E+01 0. -1.
        -13    1    6    6    0    0 -0.49592540543E+02 -0.38991431747E+02 -0.47661393107E+01  0.63265060745E+02  0.00000000000E+00 0.  1.
         14    1    6    6    0    0  0.43550288893E+01 -0.47260777764E+01  0.46149429897E+02  0.46594763307E+02  0.00000000000E+00 0. -1.
         -5    1    3    3    0  503  0.81488765643E+02 -0.24816947491E+02 -0.12948441071E+03  0.15506322074E+03  0.47000000000E+01 0.  1.
         13    1    4    4    0    0  0.14854581728E+02 -0.44334918343E+02  0.47173071784E+01  0.46994644055E+02  0.00000000000E+00 0. -1.
        -14    1    4    4    0    0  0.10120429883E+02  0.35952153520E+02  0.85896300291E+00  0.37359312911E+02  0.00000000000E+00 0.  1.
</event>
<event>
12    1  0.8133506E-002  0.1779556E+03  0.7818608E-02  0.1169938E+00
         21   -1    0    0  503  502  0.00000000000E+00  0.00000000000E+00  0.12636201746E+03  0.12636201746E+03  0.00000000000E+00 0.  1.
         21   -1    0    0  501  503 -0.00000000000E+00 -0.00000000000E+00 -0.35291360536E+03  0.35291360536E+03  0.00000000000E+00 0.  1.
          6    2    1    2  501    0  0.41133830751E+02  0.19445169797E+02  0.16383298453E+02  0.17813518434E+03  0.17144569044E+03 0.  0.
         24    2    3    3    0    0  0.31964793098E+02 -0.14683563783E+02  0.76177211356E+02  0.10852021664E+03  0.68820889605E+02 0.  0.
         -6    2    1    2    0  502 -0.41133830751E+02 -0.19445169797E+02 -0.24293488636E+03  0.30114043849E+03  0.17204097774E+03 0.  0.
        -24    2    5    5    0    0 -0.78289457526E+02  0.92196796705E+01 -0.10289792276E+03  0.15337489660E+03  0.81985576444E+02 0.  0.
          5    1    3    3  501    0  0.91690376527E+01  0.34128733580E+02 -0.59793912903E+02  0.69614967697E+02  0.47000000000E+01 0. -1.
        -13    1    4    4    0    0 -0.18566968289E+02 -0.17185037753E+01  0.42541134950E+02  0.46448183274E+02  0.00000000000E+00 0.  1.
         14    1    4    4    0    0  0.50531761387E+02 -0.12965060007E+02  0.33636076406E+02  0.62072033364E+02  0.00000000000E+00 0. -1.
         -5    1    5    5    0  502  0.37155626775E+02 -0.28664849468E+02 -0.14003696360E+03  0.14776554189E+03  0.47000000000E+01 0.  1.
         13    1    6    6    0    0 -0.61016922987E+02  0.67643806037E+01 -0.14245144265E+02  0.63021788858E+02  0.00000000000E+00 0. -1.
        -14    1    6    6    0    0 -0.17272534539E+02  0.24552990668E+01 -0.88652778499E+02  0.90353107741E+02  0.00000000000E+00 0.  1.
</event>
<event>
12    1  0.8133506E-002  0.1894320E+03  0.7818608E-02  0.1159079E+00
         21   -1    0    0  501  502  0.00000000000E+00  0.00000000000E+00  0.34635924815E+03  0.34635924815E+03  0.00000000000E+00 0.  1.
         21   -1    0    0  502  503 -0.00000000000E+00 -0.00000000000E+00 -0.19197159955E+03  0.19197159955E+03  0.00000000000E+00 0.  1.
         -6    2    1    2    0  503  0.49797449951E+02 -0.62763906732E+02 -0.10573421762E+03  0.21654228192E+03  0.17114830140E+03 0.  0.
        -24    2    3    3    0    0 -0.36646889331E+02 -0.34883245197E+02 -0.59744895851E+02  0.11462534124E+03  0.83723837587E+02 0.  0.
          6    2    1    2  501    0 -0.49797449951E+02  0.62763906732E+02  0.26012186622E+03  0.32178856578E+03  0.17165489149E+03 0.  0.
         24    2    5    5    0    0 -0.71405325064E+02 -0.62072059324E+00  0.92340701683E+02  0.14107575378E+03  0.79224095926E+02 0.  0.
          5    1    5    5  501    0  0.21607875113E+02  0.63384627325E+02  0.16778116453E+03  0.18071281200E+03  0.47000000000E+01 0. -1.
        -13    1    6    6    0    0 -0.56317074469E+02  0.19780537892E+02  0.98306901592E+02  0.11500925813E+03  0.00000000000E+00 0.  1.
         14    1    6    6    0    0 -0.15088250595E+02 -0.20401258485E+02 -0.59661999093E+01  0.26066495644E+02  0.00000000000E+00 0. -1.
         -5    1    3    3    0  503  0.86444339282E+02 -0.27880661535E+02 -0.45989321774E+02  0.10191694069E+03  0.47000000000E+01 0.  1.
         13    1    4    4    0    0 -0.18598677505E+02  0.24334647050E+02 -0.32238443995E+01  0.30797386654E+02  0.00000000000E+00 0. -1.
        -14    1    4    4    0    0 -0.18048211826E+02 -0.59217892247E+02 -0.56521051451E+02  0.83827954582E+02  0.00000000000E+00 0.  1.
</event>
<event>
12    1  0.8133506E-002  0.1913927E+03  0.7818608E-02  0.1157541E+00
         21   -1    0    0  501  502  0.00000000000E+00  0.00000000000E+00  0.16342518101E+03  0.16342518101E+03  0.00000000000E+00 0. -1.
         21   -1    0    0  502  503 -0.00000000000E+00 -0.00000000000E+00 -0.36632643992E+03  0.36632643992E+03  0.00000000000E+00 0. -1.
         -6    2    1    2    0  503 -0.32564336700E+02 -0.73744980930E+02  0.64799012927E+02  0.20067014267E+03  0.17196172785E+03 0.  0.
        -24    2    3    3    0    0 -0.64290013532E+02 -0.12992015631E+02 -0.22755523964E+01  0.10465697338E+03  0.81522424088E+02 0.  0.
          6    2    1    2  501    0  0.32564336700E+02  0.73744980930E+02 -0.26770027183E+03  0.32908147825E+03  0.17358693947E+03 0.  0.
         24    2    5    5    0    0 -0.29656291091E+02  0.32550014341E+02 -0.39375183682E+02  0.88825640295E+02  0.66336944827E+02 0.  0.
          5    1    5    5  501    0  0.62220627791E+02  0.41194966590E+02 -0.22832508815E+03  0.24025583796E+03  0.47000000000E+01 0. -1.
        -13    1    6    6    0    0 -0.74410647000E+01  0.27605373727E+02 -0.54468897874E+02  0.61516558243E+02  0.00000000000E+00 0.  1.
         14    1    6    6    0    0 -0.22215226391E+02  0.49446406137E+01  0.15093714192E+02  0.27309082052E+02  0.00000000000E+00 0. -1.
         -5    1    3    3    0  503  0.31725676832E+02 -0.60752965299E+02  0.67074565324E+02  0.96013169287E+02  0.47000000000E+01 0.  1.
         11    1    4    4    0    0 -0.40571632423E+02 -0.42602310343E+02  0.18153812111E+02  0.61567646521E+02  0.00000000000E+00 0. -1.
        -12    1    4    4    0    0 -0.23718381109E+02  0.29610294712E+02 -0.20429364508E+02  0.43089326864E+02  0.00000000000E+00 0.  1.
</event>
<event>
12    1  0.8133506E-002  0.1932354E+03  0.7818608E-02  0.1155659E+00
         21   -1    0    0  503  502  0.00000000000E+00  0.00000000000E+00  0.95323793685E+02  0.95323793685E+02  0.00000000000E+00 0. -1.
         21   -1    0    0  501  503 -0.00000000000E+00 -0.00000000000E+00 -0.39095958394E+03  0.39095958394E+03  0.00000000000E+00 0. -1.
          6    2    1    2  501    0  0.89324460112E+02 -0.55927991104E+00 -0.14658367595E+03  0.24254214476E+03  0.17134977667E+03 0.  0.
         24    2    3    3    0    0 -0.19504023804E+02 -0.18291225305E+02 -0.61756864046E+02  0.10334538181E+03  0.78430745355E+02 0.  0.
         -6    2    1    2    0  502 -0.89324460112E+02  0.55927991104E+00 -0.14905211431E+03  0.24374123286E+03  0.17092127969E+03 0.  0.
        -24    2    5    5    0    0 -0.38579214975E+02  0.61775505725E+02 -0.54287098116E+02  0.11994703065E+03  0.78330276427E+02 0.  0.
          5    1    3    3  501    0  0.10882848392E+03  0.17731945394E+02 -0.84826811902E+02  0.13919676295E+03  0.47000000000E+01 0. -1.
        -11    1    4    4    0    0 -0.33378428088E+02  0.94225627354E+01 -0.63445588396E+02  0.72306616827E+02  0.00000000000E+00 0.  1.
         12    1    4    4    0    0  0.13874404283E+02 -0.27713788040E+02  0.16887243492E+01  0.31038764983E+02  0.00000000000E+00 0. -1.
         -5    1    5    5    0  502 -0.50745245136E+02 -0.61216225814E+02 -0.94765016190E+02  0.12379420221E+03  0.47000000000E+01 0.  1.
         13    1    6    6    0    0 -0.49495093954E+02  0.27262407028E+02 -0.22416140488E+01  0.56551109592E+02  0.00000000000E+00 0. -1.
        -14    1    6    6    0    0  0.10915878979E+02  0.34513098696E+02 -0.52045484067E+02  0.63395921062E+02  0.00000000000E+00 0.  1.
</event>
<event>
12    1  0.8133506E-002  0.1778670E+03  0.7818608E-02  0.1170182E+00
         21   -1    0    0  501  502  0.00000000000E+00  0.00000000000E+00  0.53043068204E+02  0.53043068204E+02  0.00000000000E+00 0.  1.
         21   -1    0    0  502  503 -0.00000000000E+00 -0.00000000000E+00 -0.87730865699E+03  0.87730865699E+03  0.00000000000E+00 0.  1.
         -6    2    1    2    0  503 -0.42706471908E+02  0.19972196166E+02 -0.67627880427E+03  0.69897159940E+03  0.17025141501E+03 0.  0.
        -24    2    3    3    0    0 -0.11143207953E+02 -0.44312142685E+02 -0.36950511061E+03  0.38391461254E+03  0.93641154850E+02 0.  0.
          6    2    1    2  501    0  0.42706471908E+02 -0.19972196166E+02 -0.14798678452E+03  0.23138012579E+03  0.17150493537E+03 0.  0.
         24    2    5    5    0    0  0.28420562680E+02 -0.20112943006E+02 -0.19061214550E+01  0.84527284028E+02  0.76999802511E+02 0.  0.
          5    1    5    5  501    0  0.14285909228E+02  0.14074684061E+00 -0.14608066306E+03  0.14685284176E+03  0.47000000000E+01 0. -1.
        -13    1    6    6    0    0  0.53665591001E+02 -0.23083104256E+02 -0.62019989523E+01  0.58747682087E+02  0.00000000000E+00 0.  1.
         14    1    6    6    0    0 -0.25245028321E+02  0.29701612492E+01  0.42958774973E+01  0.25779601941E+02  0.00000000000E+00 0. -1.
         -5    1    3    3    0  503 -0.31563263955E+02  0.64284338851E+02 -0.30677369366E+03  0.31505698686E+03  0.47000000000E+01 0.  1.
         13    1    4    4    0    0 -0.29003982963E+02 -0.14037317614E+02 -0.35023995594E+02  0.47591570481E+02  0.00000000000E+00 0. -1.
        -14    1    4    4    0    0  0.17860775010E+02 -0.30274825072E+02 -0.33448111502E+03  0.33632304206E+03  0.00000000000E+00 0.  1.
</event>
<event>
12    1  0.8133506E-002  0.4493687E+03  0.7818608E-02  0.1027961E+00
         21   -1    0    0  503  502  0.00000000000E+00  0.00000000000E+00  0.17105864336E+03  0.17105864336E+03  0.00000000000E+00 0. -1.
         21   -1    0    0  501  503 -0.00000000000E+00 -0.00000000000E+00 -0.12182024412E+04  0.12182024412E+04  0.00000000000E+00 0.  1.
          6    2    1    2  501    0  0.40274646909E+03  0.98675378536E+02 -0.64827994117E+03  0.78840782211E+03  0.17140146776E+03 0.  0.
         24    2    3    3    0    0  0.16556281993E+03 -0.10082340164E+02 -0.32871875749E+03  0.37582357021E+03  0.75330163085E+02 0.  0.
         -6    2    1    2    0  502 -0.40274646909E+03 -0.98675378536E+02 -0.39886385668E+03  0.60085326247E+03  0.17317828432E+03 0.  0.
        -24    2    5    5    0    0 -0.21349347495E+03 -0.10186216643E+03 -0.16534399407E+03  0.30021981849E+03  0.82691826928E+02 0.  0.
          5    1    3    3  501    0  0.23718364916E+03  0.10875771870E+03 -0.31956118368E+03  0.41258425190E+03  0.47000000000E+01 0. -1.
        -13    1    4    4    0    0  0.79947079812E+02  0.24534431310E+02 -0.20529983285E+03  0.22167881102E+03  0.00000000000E+00 0.  1.
         14    1    4    4    0    0  0.85615740118E+02 -0.34616771474E+02 -0.12341892464E+03  0.15414475918E+03  0.00000000000E+00 0. -1.
         -5    1    5    5    0  502 -0.18925299414E+03  0.31867878941E+01 -0.23351986261E+03  0.30063344398E+03  0.47000000000E+01 0.  1.
         13    1    6    6    0    0 -0.37610457590E+02 -0.48314477279E+02 -0.15817060121E+02  0.63237762656E+02  0.00000000000E+00 0. -1.
        -14    1    6    6    0    0 -0.17588301736E+03 -0.53547689151E+02 -0.14952693395E+03  0.23698205583E+03  0.00000000000E+00 0.  1.
</event>
<event>
12    1  0.8133506E-002  0.2094622E+03  0.7818608E-02  0.1142821E+00
         21   -1    0    0  503  502  0.00000000000E+00  0.00000000000E+00  0.23033852811E+03  0.23033852811E+03  0.00000000000E+00 0. -1.
         21   -1    0    0  501  503 -0.00000000000E+00 -0.00000000000E+00 -0.74312413845E+03  0.74312413845E+03  0.00000000000E+00 0.  1.
          6    2    1    2  501    0 -0.64465166450E+02  0.99652454131E+02 -0.67690429649E+03  0.70736241525E+03  0.16755832001E+03 0.  0.
         24    2    3    3    0    0 -0.42112359410E+02  0.74365652732E+02 -0.22708138890E+03  0.25625066801E+03  0.82430252634E+02 0.  0.
         -6    2    1    2    0  502  0.64465166450E+02 -0.99652454131E+02  0.16411868614E+03  0.26610025131E+03  0.17259209515E+03 0.  0.
        -24    2    5    5    0    0  0.10422199620E+03 -0.54641092454E+02  0.11230520249E+03  0.18664362617E+03  0.91517819048E+02 0.  0.
          5    1    3    3  501    0 -0.22352807040E+02  0.25286801399E+02 -0.44982290759E+03  0.45111174724E+03  0.47000000000E+01 0. -1.
        -13    1    4    4    0    0 -0.21299040569E+02  0.76841034727E+02 -0.22019557871E+03  0.23418857067E+03  0.00000000000E+00 0.  1.
         14    1    4    4    0    0 -0.20813318841E+02 -0.24753819953E+01 -0.68858101883E+01  0.22062097342E+02  0.00000000000E+00 0. -1.
         -5    1    5    5    0  502 -0.39756829754E+02 -0.45011361677E+02  0.51813483650E+02  0.79456625149E+02  0.47000000000E+01 0.  1.
         13    1    6    6    0    0  0.21819089778E+02  0.24413510687E+02  0.12716945357E+02  0.35125672691E+02  0.00000000000E+00 0. -1.
        -14    1    6    6    0    0  0.82402906426E+02 -0.79054603141E+02  0.99588257138E+02  0.15151795347E+03  0.00000000000E+00 0.  1.
</event>
<event>
12    1  0.8133506E-002  0.1959165E+03  0.7818608E-02  0.1153534E+00
         21   -1    0    0  501  502  0.00000000000E+00  0.00000000000E+00  0.10590038709E+03  0.10590038709E+03  0.00000000000E+00 0. -1.
         21   -1    0    0  502  503 -0.00000000000E+00 -0.00000000000E+00 -0.47924792595E+03  0.47924792595E+03  0.00000000000E+00 0. -1.
         -6    2    1    2    0  503 -0.58286706166E+02  0.70653346284E+02 -0.33219398570E+03  0.38495615191E+03  0.17160757356E+03 0.  0.
        -24    2    3    3    0    0  0.20232011517E+01  0.41678662500E+02 -0.30061840668E+03  0.31082164975E+03  0.67063158780E+02 0.  0.
          6    2    1    2  501    0  0.58286706166E+02 -0.70653346284E+02 -0.41153553160E+02  0.20019216113E+03  0.17318790657E+03 0.  0.
         24    2    5    5    0    0 -0.85178730860E+01 -0.67665409457E+02  0.22060586573E+02  0.10805152385E+03  0.80853574613E+02 0.  0.
          5    1    5    5  501    0  0.66804579252E+02 -0.29879368278E+01 -0.63214139733E+02  0.92140637276E+02  0.47000000000E+01 0. -1.
        -13    1    6    6    0    0 -0.61235641469E+01  0.67569063912E+01 -0.20392693822E+02  0.22338661177E+02  0.00000000000E+00 0.  1.
         14    1    6    6    0    0 -0.23943089391E+01 -0.74422315848E+02  0.42453280395E+02  0.85712862674E+02  0.00000000000E+00 0. -1.
         -5    1    3    3    0  503 -0.60309907317E+02  0.28974683784E+02 -0.31575579024E+02  0.74134502168E+02  0.47000000000E+01 0.  1.
         11    1    4    4    0    0  0.16488973887E+02  0.44768414118E+02 -0.11349675088E+03  0.12311624435E+03  0.00000000000E+00 0. -1.
        -12    1    4    4    0    0 -0.14465772736E+02 -0.30897516175E+01 -0.18712165580E+03  0.18770540539E+03  0.00000000000E+00 0.  1.
</event>
<event>
12    1  0.8133506E-002  0.2236385E+03  0.7818608E-02  0.1131295E+00
         21   -1    0    0  503  502  0.00000000000E+00  0.00000000000E+00  0.52263290605E+02  0.52263290605E+02  0.00000000000E+00 0.  1.
         21   -1    0    0  501  503 -0.00000000000E+00 -0.00000000000E+00 -0.10559903660E+04  0.10559903660E+04  0.00000000000E+00 0. -1.
          6    2    1    2  501    0 -0.53572660552E+02  0.13592390620E+03 -0.33079428988E+03  0.39929817414E+03  0.16931872732E+03 0.  0.
         24    2    3    3    0    0 -0.37801277313E+02  0.16443509763E+03 -0.27941524743E+03  0.33827751723E+03  0.88831077146E+02 0.  0.
         -6    2    1    2    0  502  0.53572660552E+02 -0.13592390620E+03 -0.67293278556E+03  0.70895548251E+03  0.16862385379E+03 0.  0.
        -24    2    5    5    0    0  0.37839191797E+02 -0.30205718309E+02 -0.47270303746E+03  0.48193583730E+03  0.80435065685E+02 0.  0.
          5    1    3    3  501    0 -0.15771383239E+02 -0.28511191439E+02 -0.51379042449E+02  0.61020656908E+02  0.47000000000E+01 0. -1.
        -13    1    4    4    0    0 -0.39912303868E+02  0.96731072322E+02 -0.23508936416E+03  0.25732644927E+03  0.00000000000E+00 0.  1.
         14    1    4    4    0    0  0.21110265554E+01  0.67704025312E+02 -0.44325883275E+02  0.80951067965E+02  0.00000000000E+00 0. -1.
         -5    1    5    5    0  502  0.15733468755E+02 -0.10571818789E+03 -0.20022974810E+03  0.22701964521E+03  0.47000000000E+01 0.  1.
         13    1    6    6    0    0  0.29588380309E+02 -0.57859876620E+02 -0.33356470886E+03  0.33983621433E+03  0.00000000000E+00 0. -1.
        -14    1    6    6    0    0  0.82508114880E+01  0.27654158311E+02 -0.13913832860E+03  0.14209962297E+03  0.00000000000E+00 0.  1.
</event>
<event>
12    1  0.8133506E-002  0.2299294E+03  0.7818608E-02  0.1126811E+00
         21   -1    0    0  501  502  0.00000000000E+00  0.00000000000E+00  0.58872235327E+03  0.58872235327E+03  0.00000000000E+00 0.  1.
         21   -1    0    0  502  503 -0.00000000000E+00 -0.00000000000E+00 -0.11957116151E+03  0.11957116151E+03  0.00000000000E+00 0. -1.
         -6    2    1    2    0  503 -0.36165741603E+02 -0.14755117176E+03  0.57329942911E+02  0.23696890407E+03  0.17259267073E+03 0.  0.
        -24    2    3    3    0    0  0.21557347937E+02 -0.87620422252E+02 -0.21717580392E+02  0.12210267430E+03  0.79343255077E+02 0.  0.
          6    2    1    2  501    0  0.36165741603E+02  0.14755117176E+03  0.41182124885E+03  0.47132461071E+03  0.17167072698E+03 0.  0.
         24    2    5    5    0    0  0.37057799316E+02  0.13904514352E+03  0.42455240810E+03  0.45528339195E+03  0.79570015297E+02 0.  0.
          5    1    5    5  501    0 -0.89205771305E+00  0.85060282400E+01 -0.12731159250E+02  0.16041218758E+02  0.47000000000E+01 0. -1.
        -13    1    6    6    0    0  0.34439708659E+02  0.13221656831E+03  0.29043758710E+03  0.32096932326E+03  0.00000000000E+00 0.  1.
         14    1    6    6    0    0  0.26180906572E+01  0.68285752088E+01  0.13411482100E+03  0.13431406869E+03  0.00000000000E+00 0. -1.
         -5    1    3    3    0  503 -0.57723089540E+02 -0.59930749510E+02  0.79047523302E+02  0.11486622978E+03  0.47000000000E+01 0.  1.
         11    1    4    4    0    0 -0.24438748524E+02 -0.63156875308E+02 -0.77271244988E+01  0.68159751915E+02  0.00000000000E+00 0. -1.
        -12    1    4    4    0    0  0.45996096462E+02 -0.24463546943E+02 -0.13990455893E+02  0.53942922380E+02  0.00000000000E+00 0.  1.
</event>
<event>
12    1  0.8133506E-002  0.2902072E+03  0.7818608E-02  0.1090333E+00
         21   -1    0    0  501  502  0.00000000000E+00  0.00000000000E+00  0.96278685582E+03  0.96278685582E+03  0.00000000000E+00 0. -1.
         21   -1    0    0  502  503 -0.00000000000E+00 -0.00000000000E+00 -0.14336640495E+03  0.14336640495E+03  0.00000000000E+00 0.  1.
         -6    2    1    2    0  503 -0.23263780633E+03  0.26996948643E+02  0.63420217272E+02  0.29636529626E+03  0.17017955429E+03 0.  0.
        -24    2    3    3    0    0 -0.19422767835E+03 -0.35089056552E+02  0.67807590705E+02  0.22307580849E+03  0.78799200793E+02 0.  0.
          6    2    1    2  501    0  0.23263780633E+03 -0.26996948643E+02  0.75600023360E+03  0.80978796451E+03  0.17137972484E+03 0.  0.
         24    2    5    5    0    0  0.10613546327E+03  0.44928414723E+01  0.21080305826E+03  0.24920211053E+03  0.79867642588E+02 0.  0.
          5    1    5    5  501    0  0.12650234306E+03 -0.31489790115E+02  0.54519717534E+03  0.56058585398E+03  0.47000000000E+01 0. -1.
        -13    1    6    6    0    0  0.19782363987E+02  0.35129448616E+02  0.51200627292E+02  0.65168430395E+02  0.00000000000E+00 0.  1.
         14    1    6    6    0    0  0.86353099283E+02 -0.30636607144E+02  0.15960243097E+03  0.18403368014E+03  0.00000000000E+00 0. -1.
         -5    1    3    3    0  503 -0.38410127975E+02  0.62086005195E+02 -0.43873734330E+01  0.73289487771E+02  0.47000000000E+01 0.  1.
         13    1    4    4    0    0 -0.79472979043E+02 -0.52981997020E+02  0.20623546500E+02  0.97715797476E+02  0.00000000000E+00 0. -1.
        -14    1    4    4    0    0 -0.11475469931E+03  0.17892940468E+02  0.47184044205E+02  0.12536001101E+03  0.00000000000E+00 0.  1.
</event>
<event>
12    1  0.8133506E-002  0.1882917E+03  0.7818608E-02  0.1160098E+00
         21   -1    0    0  503  502  0.00000000000E+00  0.00000000000E+00  0.87791279273E+02  0.87791279273E+02  0.00000000000E+00 0.  1.
         21   -1    0    0  501  503 -0.00000000000E+00 -0.00000000000E+00 -0.40879821836E+03  0.40879821836E+03  0.00000000000E+00 0.  1.
          6    2    1    2  501    0 -0.60920307051E+02  0.47239665489E+02 -0.13084278353E+03  0.22897748957E+03  0.17137090454E+03 0.  0.
         24    2    3    3    0    0 -0.99655728003E+02  0.51511888312E+02 -0.13789118461E+03  0.18909698454E+03  0.64489937260E+02 0.  0.
         -6    2    1    2    0  502  0.60920307051E+02 -0.47239665489E+02 -0.19016415555E+03  0.26761200805E+03  0.17178740057E+03 0.  0.
        -24    2    5    5    0    0  0.30649804801E+02 -0.19688736369E+02 -0.16284310763E+02  0.88917723243E+02  0.79461474033E+02 0.  0.
          5    1    3    3  501    0  0.38735420952E+02 -0.42722228228E+01  0.70484010742E+01  0.39880505036E+02  0.47000000000E+01 0. -1.
        -13    1    4    4    0    0 -0.82018512805E+02  0.62972291010E+02 -0.13114572043E+03  0.16700822095E+03  0.00000000000E+00 0.  1.
         14    1    4    4    0    0 -0.17637215198E+02 -0.11460402699E+02 -0.67454641809E+01  0.22088763591E+02  0.00000000000E+00 0. -1.
         -5    1    5    5    0  502  0.30270502249E+02 -0.27550929120E+02 -0.17387984478E+03  0.17869428481E+03  0.47000000000E+01 0.  1.
         11    1    6    6    0    0  0.22017353509E+02  0.23873213779E+02  0.13791028539E+02  0.35282951405E+02  0.00000000000E+00 0. -1.
        -12    1    6    6    0    0  0.86324512925E+01 -0.43561950148E+02 -0.30075339302E+02  0.53634771838E+02  0.00000000000E+00 0.  1.
</event>
<event>
12    1  0.8133506E-002  0.1844497E+03  0.7818608E-02  0.1163711E+00
         21   -1    0    0  503  502  0.00000000000E+00  0.00000000000E+00  0.15514673379E+04  0.15514673379E+04  0.00000000000E+00 0. -1.
         21   -1    0    0  501  503 -0.00000000000E+00 -0.00000000000E+00 -0.25776159969E+02  0.25776159969E+02  0.00000000000E+00 0. -1.
          6    2    1    2  501    0 -0.63683211763E+02 -0.22626099098E+02  0.45633735391E+03  0.49220470885E+03  0.17162226842E+03 0.  0.
         24    2    3    3    0    0 -0.47367737204E+02  0.85011705492E+01  0.11209773223E+03  0.14614386339E+03  0.80474560001E+02 0.  0.
         -6    2    1    2    0  502  0.63683211763E+02  0.22626099098E+02  0.10693538240E+04  0.10850387890E+04  0.17095052180E+03 0.  0.
        -24    2    5    5    0    0  0.27801306707E+02 -0.46160006925E+02  0.41458660285E+03  0.42567451685E+03  0.80081734115E+02 0.  0.
          5    1    3    3  501    0 -0.16315474558E+02 -0.31127269647E+02  0.34423962167E+03  0.34606084545E+03  0.47000000000E+01 0. -1.
        -11    1    4    4    0    0  0.39564454906E+01 -0.29498002116E+02  0.31925565251E+02  0.43646618499E+02  0.00000000000E+00 0.  1.
         12    1    4    4    0    0 -0.51324182695E+02  0.37999172665E+02  0.80172166983E+02  0.10249724490E+03  0.00000000000E+00 0. -1.
         -5    1    5    5    0  502  0.35881905056E+02  0.68786106023E+02  0.65476722115E+03  0.65936427214E+03  0.47000000000E+01 0.  1.
         13    1    6    6    0    0 -0.24878509032E+02 -0.19045797385E+02  0.80643231826E+02  0.86515972219E+02  0.00000000000E+00 0. -1.
        -14    1    6    6    0    0  0.52679815738E+02 -0.27114209540E+02  0.33394337103E+03  0.33915854463E+03  0.00000000000E+00 0.  1.
</event>
<event>
12    1  0.8133506E-002  0.1860789E+03  0.7818608E-02  0.1162062E+00
         21   -1    0    0  503  502  0.00000000000E+00  0.00000000000E+00  0.93461256184E+03  0.93461256184E+03  0.00000000000E+00 0. -1.
         21   -1    0    0  501  503 -0.00000000000E+00 -0.00000000000E+00 -0.61260009319E+02  0.61260009319E+02  0.00000000000E+00 0. -1.
          6    2    1    2  501    0 -0.32643343206E+02  0.63257884081E+02  0.12359523298E+03  0.22338563720E+03  0.17192502302E+03 0.  0.
         24    2    3    3    0    0 -0.19239239456E+02  0.47820893605E+02 -0.37755459333E+01  0.94298937682E+02  0.78873624874E+02 0.  0.
         -6    2    1    2    0  502  0.32643343206E+02 -0.63257884081E+02  0.74975731954E+03  0.77248693395E+03  0.17185132287E+03 0.  0.
        -24    2    5    5    0    0 -0.66597144520E+01 -0.47606651961E+02  0.70296314953E+03  0.70922971496E+03  0.80863179960E+02 0.  0.
          5    1    3    3  501    0 -0.13404103750E+02  0.15436990476E+02  0.12737077891E+03  0.12908669952E+03  0.47000000000E+01 0. -1.
        -11    1    4    4    0    0  0.10954952772E+02  0.60199626136E+02 -0.66030187641E+01  0.61543527961E+02  0.00000000000E+00 0.  1.
         12    1    4    4    0    0 -0.30194192228E+02 -0.12378732530E+02  0.28274728309E+01  0.32755409721E+02  0.00000000000E+00 0. -1.
         -5    1    5    5    0  502  0.39303057658E+02 -0.15651232121E+02  0.46794170002E+02  0.63257218990E+02  0.47000000000E+01 0.  1.
         11    1    6    6    0    0 -0.49702139461E+00 -0.68741897666E+02  0.60088508454E+03  0.60480458030E+03  0.00000000000E+00 0. -1.
        -12    1    6    6    0    0 -0.61626930574E+01  0.21135245705E+02  0.10207806499E+03  0.10442513466E+03  0.00000000000E+00 0.  1.
</event>
<event>
12    1  0.8133506E-002  0.1791904E+03  0.7818608E-02  0.1168775E+00
         21   -1    0    0  501  502  0.00000000000E+00  0.00000000000E+00  0.64691663165E+02  0.64691663165E+02  0.00000000000E+00 0. -1.
         21   -1    0    0  502  503 -0.00000000000E+00 -0.00000000000E+00 -0.54821974369E+03  0.54821974369E+03  0.00000000000E+00 0. -1.
         -6    2    1    2    0  503  0.51745764993E+02 -0.15283898012E+01 -0.33747083431E+03  0.38173634025E+03  0.17075160112E+03 0.  0.
        -24    2    3    3    0    0  0.81470544253E+02 -0.25128383711E+02 -0.32308214011E+03  0.34087502926E+03  0.67415362248E+02 0.  0.
          6    2    1    2  501    0 -0.51745764993E+02  0.15283898012E+01 -0.14605724622E+03  0.23117506661E+03  0.17154950329E+03 0.  0.
         24    2    5    5    0    0 -0.51193272294E+02  0.47293119615E+02 -0.37647300048E+02  0.11340613110E+03  0.81155659557E+02 0.  0.
          5    1    5    5  501    0 -0.55249269930E+00 -0.45764729814E+02 -0.10840994617E+03  0.11776893551E+03  0.47000000000E+01 0. -1.
        -11    1    6    6    0    0  0.20089055719E+02 -0.21569106087E+01 -0.78614861890E+01  0.21680068915E+02  0.00000000000E+00 0.  1.
         12    1    6    6    0    0 -0.71282328013E+02  0.49450030224E+02 -0.29785813859E+02  0.91726062181E+02  0.00000000000E+00 0. -1.
         -5    1    3    3    0  503 -0.29724779260E+02  0.23599993910E+02 -0.14388694195E+02  0.40861310983E+02  0.47000000000E+01 0.  1.
         11    1    4    4    0    0  0.19842696753E+02  0.16606751397E+02 -0.36211635392E+02  0.44506171978E+02  0.00000000000E+00 0. -1.
        -12    1    4    4    0    0  0.61627847500E+02 -0.41735135108E+02 -0.28687050472E+03  0.29636885729E+03  0.00000000000E+00 0.  1.
</event>
<event>
12    1  0.8133506E-002  0.1909511E+03  0.7818608E-02  0.1158276E+00
         21   -1    0    0  501  502  0.00000000000E+00  0.00000000000E+00  0.20827910831E+03  0.20827910831E+03  0.00000000000E+00 0.  1.
         21   -1    0    0  502  503 -0.00000000000E+00 -0.00000000000E+00 -0.17376512512E+03  0.17376512512E+03  0.00000000000E+00 0.  1.
         -6    2    1    2    0  503 -0.75079001709E+02 -0.32083360958E+02  0.34312511026E+02  0.19109302974E+03  0.16933103394E+03 0.  0.
        -24    2    3    3    0    0 -0.15091246463E+01  0.84090298415E+01 -0.29920771656E+02  0.85262197146E+02  0.79381360820E+02 0.  0.
          6    2    1    2  501    0  0.75079001709E+02  0.32083360958E+02  0.20147215879E+00  0.19095120369E+03  0.17261553537E+03 0.  0.
         24    2    5    5    0    0  0.30832149491E+02 -0.30474169325E+02 -0.44544074667E+02  0.10209467614E+03  0.80992912472E+02 0.  0.
          5    1    5    5  501    0  0.44246852218E+02  0.62557530284E+02  0.44745546826E+02  0.88856527544E+02  0.47000000000E+01 0. -1.
        -13    1    6    6    0    0  0.25374237965E+02  0.21339814151E+02 -0.36612976656E+02  0.49393822285E+02  0.00000000000E+00 0.  1.
         14    1    6    6    0    0  0.54579115260E+01 -0.51813983476E+02 -0.79310980114E+01  0.52700853860E+02  0.00000000000E+00 0. -1.
         -5    1    3    3    0  503 -0.73569877063E+02 -0.40492390800E+02  0.64233282682E+02  0.10583083260E+03  0.47000000000E+01 0.  1.
         13    1    4    4    0    0  0.19742651738E+02 -0.30017521288E+02 -0.13502733975E+02  0.38381606359E+02  0.00000000000E+00 0. -1.
        -14    1    4    4    0    0 -0.21251776385E+02  0.38426551129E+02 -0.16418037682E+02  0.46880590787E+02  0.00000000000E+00 0.  1.
</event>
<event>
12    1  0.8133506E-002  0.1879118E+03  0.7818608E-02  0.1162643E+00
         21   -1    0    0  501  502  0.00000000000E+00  0.00000000000E+00  0.51959835854E+02  0.51959835854E+02  0.00000000000E+00 0. -1.
         21   -1    0    0  502  503 -0.00000000000E+00 -0.00000000000E+00 -0.10720890696E+04  0.10720890696E+04  0.00000000000E+00 0. -1.
         -6    2    1    2    0  503 -0.33195669014E+02 -0.68340107830E+02 -0.85661573137E+03  0.87495551436E+03  0.16119652016E+03 0.  0.
        -24    2    3    3    0    0  0.31625552744E+02 -0.73215298331E+02 -0.50796677557E+03  0.52026728133E+03  0.79291509299E+02 0.  0.
          6    2    1    2  501    0  0.33195669014E+02  0.68340107830E+02 -0.16351350238E+03  0.24909339109E+03  0.17186776674E+03 0.  0.
         24    2    5    5    0    0  0.44961227084E+01  0.80788598589E+02 -0.18390536948E+03  0.21145634652E+03  0.65921079911E+02 0.  0.
          5    1    5    5  501    0  0.28699546306E+02 -0.12448490759E+02  0.20391867102E+02  0.37637044574E+02  0.47000000000E+01 0. -1.
        -11    1    6    6    0    0  0.22990597715E+02  0.83432165635E+01 -0.78524837547E+02  0.82245528497E+02  0.00000000000E+00 0.  1.
         12    1    6    6    0    0 -0.18494475006E+02  0.72445382026E+02 -0.10538053194E+03  0.12921081802E+03  0.00000000000E+00 0. -1.
         -5    1    3    3    0  503 -0.64821221758E+02  0.48751905009E+01 -0.34864895580E+03  0.35468823303E+03  0.47000000000E+01 0.  1.
         11    1    4    4    0    0  0.52444597619E+02 -0.72788784425E+02 -0.36902425384E+03  0.37977301495E+03  0.00000000000E+00 0. -1.
        -12    1    4    4    0    0 -0.20819044875E+02 -0.42651390568E+00 -0.13894252172E+03  0.14049426638E+03  0.00000000000E+00 0.  1.
</event>
<event>
12    1  0.8133506E-002  0.2311363E+03  0.7818608E-02  0.1125975E+00
         21   -1    0    0  503  502  0.00000000000E+00  0.00000000000E+00  0.12825700638E+03  0.12825700638E+03  0.00000000000E+00 0. -1.
         21   -1    0    0  501  503 -0.00000000000E+00 -0.00000000000E+00 -0.67772645784E+03  0.67772645784E+03  0.00000000000E+00 0. -1.
          6    2    1    2  501    0 -0.15298915044E+03  0.95445284949E+00 -0.52583744476E+03  0.57439447954E+03  0.17325532802E+03 0.  0.
         24    2    3    3    0    0 -0.85380866930E+02 -0.46963833496E+02 -0.42466326342E+03  0.44353062993E+03  0.82976130881E+02 0.  0.
         -6    2    1    2    0  502  0.15298915044E+03 -0.95445284949E+00 -0.23632006693E+02  0.23158898468E+03  0.17224515944E+03 0.  0.
        -24    2    5    5    0    0  0.17427503859E+03  0.27017099088E+02 -0.21233684928E+02  0.19604550849E+03  0.82953356199E+02 0.  0.
          5    1    3    3  501    0 -0.67608283512E+02  0.47918286345E+02 -0.10117418134E+03  0.13086384961E+03  0.47000000000E+01 0. -1.
        -13    1    4    4    0    0  0.44930226736E+01 -0.87930991848E+01 -0.17756451788E+03  0.17783887049E+03  0.00000000000E+00 0.  1.
         14    1    4    4    0    0 -0.89873889604E+02 -0.38170734311E+02 -0.24709874554E+03  0.26569175945E+03  0.00000000000E+00 0. -1.
         -5    1    5    5    0  502 -0.21285888149E+02 -0.27971551937E+02 -0.23983217647E+01  0.35543476186E+02  0.47000000000E+01 0.  1.
         11    1    6    6    0    0  0.77347830285E+02 -0.17156596956E+01  0.29665083458E+02  0.82859202956E+02  0.00000000000E+00 0. -1.
        -12    1    6    6    0    0  0.96927208306E+02  0.28732758784E+02 -0.50898768386E+02  0.11318630553E+03  0.00000000000E+00 0.  1.
</event>
<event>
12    1  0.8133506E-002  0.1868619E+03  0.7818608E-02  0.1161449E+00
         21   -1    0    0  503  502  0.00000000000E+00  0.00000000000E+00  0.15861278897E+04  0.15861278897E+04  0.00000000000E+00 0. -1.
         21   -1    0    0  501  503 -0.00000000000E+00 -0.00000000000E+00 -0.25427093479E+02  0.25427093479E+02  0.00000000000E+00 0. -1.
          6    2    1    2  501    0 -0.70540144746E+02  0.21461258787E+02  0.48136969922E+03  0.51616784554E+03  0.17110219106E+03 0.  0.
         24    2    3    3    0    0 -0.11545052040E+02 -0.46173494036E+02  0.29447051832E+03  0.30878348119E+03  0.79806467903E+02 0.  0.
         -6    2    1    2    0  502  0.70540144746E+02 -0.21461258787E+02  0.10793310970E+04  0.10953871376E+04  0.17169993219E+03 0.  0.
        -24    2    5    5    0    0  0.69358013891E+02  0.49026407171E+02  0.63891006216E+03  0.64933480168E+03  0.78838407245E+02 0.  0.
          5    1    3    3  501    0 -0.58995092706E+02  0.67634752824E+02  0.18689918091E+03  0.20738436435E+03  0.47000000000E+01 0. -1.
        -11    1    4    4    0    0 -0.32509339161E+02 -0.53652812703E+02  0.26207089566E+03  0.26947474055E+03  0.00000000000E+00 0.  1.
         12    1    4    4    0    0  0.20964287120E+02  0.74793186665E+01  0.32399622659E+02  0.39308740639E+02  0.00000000000E+00 0. -1.
         -5    1    5    5    0  502  0.11821308550E+01 -0.70487665959E+02  0.44042103482E+03  0.44605233594E+03  0.47000000000E+01 0.  1.
         13    1    6    6    0    0  0.19707023548E+02 -0.21261198823E+02  0.12930845595E+03  0.13251823321E+03  0.00000000000E+00 0. -1.
        -14    1    6    6    0    0  0.49650990344E+02  0.70287605994E+02  0.50960160621E+03  0.51681656848E+03  0.00000000000E+00 0.  1.
</event>
<event>
12    1  0.8133506E-002  0.2169127E+03  0.7818608E-02  0.1136235E+00
         21   -1    0    0  501  502  0.00000000000E+00  0.00000000000E+00  0.69872129892E+02  0.69872129892E+02  0.00000000000E+00 0.  1.
         21   -1    0    0  502  503 -0.00000000000E+00 -0.00000000000E+00 -0.12952077279E+04  0.12952077279E+04  0.00000000000E+00 0. -1.
         -6    2    1    2    0  503  0.53169027075E+02  0.12170963275E+03 -0.10858827397E+04  0.11073357380E+04  0.17149615773E+03 0.  0.
        -24    2    3    3    0    0  0.28292753467E+02  0.87637820608E+02 -0.10296790383E+04  0.10369037607E+04  0.80309523711E+02 0.  0.
          6    2    1    2  501    0 -0.53169027075E+02 -0.12170963275E+03 -0.13945285826E+03  0.25774411975E+03  0.17130309818E+03 0.  0.
         24    2    5    5    0    0  0.43459953240E+01 -0.66304392721E+02 -0.84055076187E+01  0.10420840230E+03  0.79834694097E+02 0.  0.
          5    1    5    5  501    0 -0.57515022399E+02 -0.55405240028E+02 -0.13104735064E+03  0.15353571746E+03  0.47000000000E+01 0. -1.
        -13    1    6    6    0    0  0.27750679335E+00  0.18702362108E+02 -0.28835473436E+01  0.18925385167E+02  0.00000000000E+00 0.  1.
         14    1    6    6    0    0  0.40684885306E+01 -0.85006754829E+02 -0.55219602751E+01  0.85283017129E+02  0.00000000000E+00 0. -1.
         -5    1    3    3    0  503  0.24876273608E+02  0.34071812140E+02 -0.56203701429E+02  0.70431977293E+02  0.47000000000E+01 0.  1.
         13    1    4    4    0    0 -0.10768954883E+02  0.77796502508E+02 -0.55674532344E+03  0.56225761121E+03  0.00000000000E+00 0. -1.
        -14    1    4    4    0    0  0.39061708350E+02  0.98413181004E+01 -0.47293371483E+03  0.47464614949E+03  0.00000000000E+00 0.  1.
</event>
<event>
12    1  0.8133506E-002  0.1778373E+03  0.7818608E-02  0.1170137E+00
         21   -1    0    0  503  502  0.00000000000E+00  0.00000000000E+00  0.11512283844E+03  0.11512283844E+03  0.00000000000E+00 0. -1.
         21   -1    0    0  501  503 -0.00000000000E+00 -0.00000000000E+00 -0.32088023391E+03  0.32088023391E+03  0.00000000000E+00 0. -1.
          6    2    1    2  501    0  0.43006378656E+02 -0.71025799034E+01 -0.19167171669E+02  0.17886723441E+03  0.17241262086E+03 0.  0.
         24    2    3    3    0    0  0.61725711637E+02  0.41969885698E+02 -0.47500303707E+02  0.11900592238E+03  0.79590174811E+02 0.  0.
         -6    2    1    2    0  502 -0.43006378656E+02  0.71025799034E+01 -0.18659022381E+03  0.25713583793E+03  0.17147283249E+03 0.  0.
        -24    2    5    5    0    0  0.34169836107E+02 -0.29638441750E+02 -0.10089296555E+03  0.13600705989E+03  0.79199210310E+02 0.  0.
          5    1    3    3  501    0 -0.18719332981E+02 -0.49072465602E+02  0.28333132038E+02  0.59861312035E+02  0.47000000000E+01 0. -1.
        -11    1    4    4    0    0 -0.16630998955E+02  0.48783090629E+01 -0.23224769612E+02  0.28978922497E+02  0.00000000000E+00 0.  1.
         12    1    4    4    0    0  0.78356710592E+02  0.37091576636E+02 -0.24275534095E+02  0.90026999882E+02  0.00000000000E+00 0. -1.
         -5    1    5    5    0  502 -0.77176214763E+02  0.36741021653E+02 -0.85697258263E+02  0.12112877805E+03  0.47000000000E+01 0.  1.
         11    1    6    6    0    0 -0.62494095724E+01 -0.81704615790E+00 -0.82998949007E+02  0.83237901347E+02  0.00000000000E+00 0. -1.
        -12    1    6    6    0    0  0.40419245680E+02 -0.28821395592E+02 -0.17894016538E+02  0.52769158540E+02  0.00000000000E+00 0.  1.
</event>
<event>
12    1  0.8133506E-002  0.1941334E+03  0.7818608E-02  0.1155209E+00
         21   -1    0    0  503  502  0.00000000000E+00  0.00000000000E+00  0.28055703502E+03  0.28055703502E+03  0.00000000000E+00 0.  1.
         21   -1    0    0  501  503 -0.00000000000E+00 -0.00000000000E+00 -0.20924101084E+03  0.20924101084E+03  0.00000000000E+00 0.  1.
          6    2    1    2  501    0 -0.28446137997E+02  0.83202169890E+02 -0.11205081161E+03  0.22414989165E+03  0.17307803356E+03 0.  0.
         24    2    3    3    0    0  0.43240975154E+02  0.15324413507E+02 -0.61761467034E+02  0.11325561686E+03  0.83112792984E+02 0.  0.
         -6    2    1    2    0  502  0.28446137997E+02 -0.83202169890E+02  0.18336683579E+03  0.26564815421E+03  0.17092033678E+03 0.  0.
        -24    2    5    5    0    0 -0.78176681289E+01  0.30942781824E+02  0.11115807840E+03  0.12571842799E+03  0.49299422505E+02 0.  0.
          5    1    3    3  501    0 -0.71687113152E+02  0.67877756382E+02 -0.50289344579E+02  0.11089427479E+03  0.47000000000E+01 0. -1.
        -13    1    4    4    0    0 -0.16219209276E+02  0.28685859527E+02 -0.29851129835E+02  0.44463819435E+02  0.00000000000E+00 0.  1.
         14    1    4    4    0    0  0.59460184430E+02 -0.13361446020E+02 -0.31910337199E+02  0.68791797421E+02  0.00000000000E+00 0. -1.
         -5    1    5    5    0  502  0.36263806126E+02 -0.11414495171E+03  0.72208757389E+02  0.13992972622E+03  0.47000000000E+01 0.  1.
         13    1    6    6    0    0 -0.28087590042E+02  0.24949791359E+02  0.72784642638E+02  0.81908540502E+02  0.00000000000E+00 0. -1.
        -14    1    6    6    0    0  0.20269921913E+02  0.59929904654E+01  0.38373435763E+02  0.43809887484E+02  0.00000000000E+00 0.  1.
</event>
<event>
12    1  0.8133506E-002  0.1782625E+03  0.7818608E-02  0.1169692E+00
         21   -1    0    0  501  502  0.00000000000E+00  0.00000000000E+00  0.10155592835E+03  0.10155592835E+03  0.00000000000E+00 0. -1.
         21   -1    0    0  502  503 -0.00000000000E+00 -0.00000000000E+00 -0.33194533810E+03  0.33194533810E+03  0.00000000000E+00 0. -1.
         -6    2    1    2    0  503  0.43236902819E+02 -0.18780718396E+02 -0.16922379443E+03  0.24579305722E+03  0.17191680903E+03 0.  0.
        -24    2    3    3    0    0  0.62329990929E+02  0.13934391002E+02 -0.17991866801E+03  0.20615349721E+03  0.77777517911E+02 0.  0.
          6    2    1    2  501    0 -0.43236902819E+02  0.18780718396E+02 -0.61165615321E+02  0.18770820923E+03  0.17108767976E+03 0.  0.
         24    2    5    5    0    0  0.15417647533E+02 -0.37886861100E+02 -0.56443676267E+02  0.10587937842E+03  0.79695897544E+02 0.  0.
          5    1    5    5  501    0 -0.58654550352E+02  0.56667579497E+02 -0.47219390542E+01  0.81828830808E+02  0.47000000000E+01 0. -1.
        -13    1    6    6    0    0 -0.19769669007E+02 -0.42648746950E+02 -0.51993772965E+02  0.70093565012E+02  0.00000000000E+00 0.  1.
         14    1    6    6    0    0  0.35187316540E+02  0.47618858497E+01 -0.44499033023E+01  0.35785813411E+02  0.00000000000E+00 0. -1.
         -5    1    3    3    0  503 -0.19093088110E+02 -0.32715109398E+02  0.10694873581E+02  0.39639560005E+02  0.47000000000E+01 0.  1.
         11    1    4    4    0    0  0.28089523722E+02 -0.68517546123E+01 -0.15773892130E+03  0.16036687680E+03  0.00000000000E+00 0. -1.
        -12    1    4    4    0    0  0.34240467207E+02  0.20786145614E+02 -0.22179746712E+02  0.45786620406E+02  0.00000000000E+00 0.  1.
</event>
<event>
12    1  0.8133506E-002  0.2121856E+03  0.7818608E-02  0.1140527E+00
         21   -1    0    0  501  502  0.00000000000E+00  0.00000000000E+00  0.51797056370E+03  0.51797056370E+03  0.00000000000E+00 0.  1.
         21   -1    0    0  502  503 -0.00000000000E+00 -0.00000000000E+00 -0.15226291336E+03  0.15226291336E+03  0.00000000000E+00 0.  1.
         -6    2    1    2    0  503 -0.10316292866E+03  0.56069150842E+02 -0.39866472960E+02  0.21250747613E+03  0.17257969816E+03 0.  0.
        -24    2    3    3    0    0 -0.11053148449E+03 -0.12878456396E+01 -0.65273249107E+02  0.14916937594E+03  0.75973930140E+02 0.  0.
          6    2    1    2  501    0  0.10316292866E+03 -0.56069150842E+02  0.40557412331E+03  0.45772600093E+03  0.17673817615E+03 0.  0.
         24    2    5    5    0    0  0.10102379120E+03  0.26344373665E+01  0.16758792702E+03  0.21255217117E+03  0.82945557669E+02 0.  0.
          5    1    5    5  501    0  0.21391374568E+01 -0.58703588209E+02  0.23798619629E+03  0.24517382977E+03  0.47000000000E+01 0. -1.
        -11    1    6    6    0    0  0.49543707204E+02 -0.20196845957E+02  0.13993341021E+03  0.14981271909E+03  0.00000000000E+00 0.  1.
         12    1    6    6    0    0  0.51480083995E+02  0.22831283323E+02  0.27654516810E+02  0.62739452072E+02  0.00000000000E+00 0. -1.
         -5    1    3    3    0  503  0.73685558330E+01  0.57356996482E+02  0.25406776147E+02  0.63338100182E+02  0.47000000000E+01 0.  1.
         13    1    4    4    0    0 -0.28416786132E+02 -0.22766139655E+02  0.77213739464E+01  0.37221371072E+02  0.00000000000E+00 0. -1.
        -14    1    4    4    0    0 -0.82114698357E+02  0.21478294016E+02 -0.72994623053E+02  0.11194800487E+03  0.00000000000E+00 0.  1.
</event>
<event>
12    1  0.8133506E-002  0.2391856E+03  0.7818608E-02  0.1120611E+00
         21   -1    0    0  501  502  0.00000000000E+00  0.00000000000E+00  0.14688718669E+03  0.14688718669E+03  0.00000000000E+00 0.  1.
         21   -1    0    0  502  503 -0.00000000000E+00 -0.00000000000E+00 -0.47895340027E+03  0.47895340027E+03  0.00000000000E+00 0. -1.
         -6    2    1    2    0  503 -0.58737652541E+02 -0.15571277067E+03 -0.30373621081E+03  0.38660760942E+03  0.17179400202E+03 0.  0.
        -24    2    3    3    0    0 -0.64408239076E+02 -0.12410081882E+03 -0.31408783999E+03  0.35253830831E+03  0.77991365578E+02 0.  0.
          6    2    1    2  501    0  0.58737652541E+02  0.15571277067E+03 -0.28330002760E+02  0.23923297754E+03  0.16950884847E+03 0.  0.
         24    2    5    5    0    0 -0.17438501812E+02  0.83775186180E+02 -0.53144152971E+02  0.13145703122E+03  0.84464589601E+02 0.  0.
          5    1    5    5  501    0  0.76176154353E+02  0.71937584490E+02  0.24814150211E+02  0.10777594632E+03  0.47000000000E+01 0. -1.
        -11    1    6    6    0    0  0.28365270327E+02  0.23033634739E+02  0.33588565744E+01  0.36693579922E+02  0.00000000000E+00 0.  1.
         12    1    6    6    0    0 -0.45803772139E+02  0.60741551441E+02 -0.56503009545E+02  0.94763451295E+02  0.00000000000E+00 0. -1.
         -5    1    3    3    0  503  0.56705865353E+01 -0.31611951852E+02  0.10351629179E+02  0.34069301111E+02  0.47000000000E+01 0.  1.
         11    1    4    4    0    0 -0.53292273036E+02 -0.26991250104E+02 -0.15121719514E+03  0.16258915724E+03  0.00000000000E+00 0. -1.
        -12    1    4    4    0    0 -0.11115966040E+02 -0.97109568714E+02 -0.16287064485E+03  0.18994915107E+03  0.00000000000E+00 0.  1.
</event>
<event>
12    1  0.8133506E-002  0.2022351E+03  0.7818608E-02  0.1149896E+00
         21   -1    0    0  503  502  0.00000000000E+00  0.00000000000E+00  0.61874580445E+02  0.61874580445E+02  0.00000000000E+00 0. -1.
         21   -1    0    0  501  503 -0.00000000000E+00 -0.00000000000E+00 -0.84330283193E+03  0.84330283193E+03  0.00000000000E+00 0. -1.
          6    2    1    2  501    0 -0.10486354059E+03  0.62725489145E+01 -0.61110415677E+03  0.64077370550E+03  0.16157643462E+03 0.  0.
         24    2    3    3    0    0 -0.82195886328E+02  0.44421662162E+02 -0.55975392922E+03  0.57274346767E+03  0.77338028634E+02 0.  0.
         -6    2    1    2    0  502  0.10486354059E+03 -0.62725489145E+01 -0.17032409472E+03  0.26440370687E+03  0.17281005745E+03 0.  0.
        -24    2    5    5    0    0  0.10860311922E+03  0.45481970430E+02 -0.15317922653E+03  0.20955344502E+03  0.81151239903E+02 0.  0.
          5    1    3    3  501    0 -0.22667654258E+02 -0.38149113247E+02 -0.51350227549E+02  0.68030237839E+02  0.47000000000E+01 0. -1.
        -13    1    4    4    0    0 -0.18321397826E+01  0.20458626992E+02 -0.27842572236E+03  0.27918236876E+03  0.00000000000E+00 0.  1.
         14    1    4    4    0    0 -0.80363746546E+02  0.23963035169E+02 -0.28132820687E+03  0.29356109891E+03  0.00000000000E+00 0. -1.
         -5    1    5    5    0  502 -0.37395786384E+01 -0.51754519344E+02 -0.17144868185E+02  0.54850261859E+02  0.47000000000E+01 0.  1.
         11    1    6    6    0    0  0.79846640561E+02  0.10177201745E+02 -0.45082352413E+02  0.92257682300E+02  0.00000000000E+00 0. -1.
        -12    1    6    6    0    0  0.28756478664E+02  0.35304768685E+02 -0.10809687412E+03  0.11729576272E+03  0.00000000000E+00 0.  1.
</event>
<event>
12    1  0.8133506E-002  0.2690665E+03  0.7818608E-02  0.1102080E+00
         21   -1    0    0  503  502  0.00000000000E+00  0.00000000000E+00  0.38555936498E+03  0.38555936498E+03  0.00000000000E+00 0.  1.
         21   -1    0    0  501  503 -0.00000000000E+00 -0.00000000000E+00 -0.19828268179E+03  0.19828268179E+03  0.00000000000E+00 0.  1.
          6    2    1    2  501    0 -0.35209528464E+01  0.20609412897E+03  0.22748737401E+02  0.27002649069E+03  0.17294396062E+03 0.  0.
         24    2    3    3    0    0  0.25514066131E+01  0.23194199901E+03  0.19338129973E+02  0.24284730421E+03  0.69262178083E+02 0.  0.
         -6    2    1    2    0  502  0.35209528464E+01 -0.20609412897E+03  0.16452794579E+03  0.31381555608E+03  0.17006931289E+03 0.  0.
        -24    2    5    5    0    0 -0.54188413112E+02 -0.16515944331E+03  0.14717962052E+03  0.24081505061E+03  0.78205000306E+02 0.  0.
          5    1    3    3  501    0 -0.60723594595E+01 -0.25847870034E+02  0.34106074280E+01  0.27179186480E+02  0.47000000000E+01 0. -1.
        -13    1    4    4    0    0  0.30725032918E+02  0.12320167947E+03 -0.80360334205E+01  0.12722916059E+03  0.00000000000E+00 0.  1.
         14    1    4    4    0    0 -0.28173626305E+02  0.10874031953E+03  0.27374163394E+02  0.11561814362E+03  0.00000000000E+00 0. -1.
         -5    1    5    5    0  502  0.57709365958E+02 -0.40934685662E+02  0.17348325266E+02  0.73000505472E+02  0.47000000000E+01 0.  1.
         11    1    6    6    0    0 -0.29067476044E+01 -0.30365842850E+02  0.71959920223E+02  0.78158580541E+02  0.00000000000E+00 0. -1.
        -12    1    6    6    0    0 -0.51281665507E+02 -0.13479360046E+03  0.75219700299E+02  0.16265647007E+03  0.00000000000E+00 0.  1.
</event>
<event>
12    1  0.8133506E-002  0.2178947E+03  0.7818608E-02  0.1135992E+00
         21   -1    0    0  503  502  0.00000000000E+00  0.00000000000E+00  0.27259733846E+03  0.27259733846E+03  0.00000000000E+00 0. -1.
         21   -1    0    0  501  503 -0.00000000000E+00 -0.00000000000E+00 -0.63700381530E+03  0.63700381530E+03  0.00000000000E+00 0. -1.
          6    2    1    2  501    0 -0.33204028291E+02  0.12332419978E+03 -0.57111682421E+03  0.61127123970E+03  0.17654103161E+03 0.  0.
         24    2    3    3    0    0 -0.19738175516E+01 -0.45978450656E+01 -0.17148093120E+03  0.19047400515E+03  0.82762314727E+02 0.  0.
         -6    2    1    2    0  502  0.33204028291E+02 -0.12332419978E+03  0.20671034736E+03  0.29832991406E+03  0.17309016196E+03 0.  0.
        -24    2    5    5    0    0 -0.22576853484E+02 -0.23132155347E+02  0.13967915644E+03  0.16541933097E+03  0.82513498239E+02 0.  0.
          5    1    3    3  501    0 -0.31230210740E+02  0.12792204485E+03 -0.39963589301E+03  0.42079723455E+03  0.47000000000E+01 0. -1.
        -13    1    4    4    0    0 -0.39771580172E+02 -0.22732328629E+01 -0.12085812551E+03  0.12725420496E+03  0.00000000000E+00 0.  1.
         14    1    4    4    0    0  0.37797762621E+02 -0.23246122027E+01 -0.50622805684E+02  0.63219800192E+02  0.00000000000E+00 0. -1.
         -5    1    5    5    0  502  0.55780881775E+02 -0.10019204443E+03  0.67031190925E+02  0.13291058309E+03  0.47000000000E+01 0.  1.
         11    1    6    6    0    0 -0.32799420709E+02 -0.29584841581E+02  0.14546057744E+03  0.15201922392E+03  0.00000000000E+00 0. -1.
        -12    1    6    6    0    0  0.10222567225E+02  0.64526862337E+01 -0.57814210037E+01  0.13400107056E+02  0.00000000000E+00 0.  1.
</event>
<event>
12    1  0.8133506E-002  0.2311861E+03  0.7818608E-02  0.1126110E+00
         21   -1    0    0  503  502  0.00000000000E+00  0.00000000000E+00  0.10626051234E+03  0.10626051234E+03  0.00000000000E+00 0. -1.
         21   -1    0    0  501  503 -0.00000000000E+00 -0.00000000000E+00 -0.51890524317E+03  0.51890524317E+03  0.00000000000E+00 0.  1.
          6    2    1    2  501    0 -0.13105110208E+03  0.79450308913E+02 -0.26790641839E+03  0.35386561965E+03  0.17309039491E+03 0.  0.
         24    2    3    3    0    0  0.14217723847E+01  0.54069640181E+02 -0.10991703336E+03  0.14607732210E+03  0.79569355805E+02 0.  0.
         -6    2    1    2    0  502  0.13105110208E+03 -0.79450308913E+02 -0.14473831244E+03  0.27130013587E+03  0.17078595285E+03 0.  0.
        -24    2    5    5    0    0  0.39446415361E+02 -0.63874808392E+02 -0.13930404973E+02  0.11077969012E+03  0.80262523817E+02 0.  0.
          5    1    3    3  501    0 -0.13247287447E+03  0.25380668732E+02 -0.15798938503E+03  0.20778829755E+03  0.47000000000E+01 0. -1.
        -11    1    4    4    0    0 -0.20809189347E+02 -0.90134001456E+01 -0.55149094374E+02  0.59629576166E+02  0.00000000000E+00 0.  1.
         12    1    4    4    0    0  0.22230961731E+02  0.63083040326E+02 -0.54767938986E+02  0.86447745934E+02  0.00000000000E+00 0. -1.
         -5    1    5    5    0  502  0.91604686721E+02 -0.15575500521E+02 -0.13080790746E+03  0.16052044574E+03  0.47000000000E+01 0.  1.
         13    1    6    6    0    0  0.39989806455E+02 -0.27568085044E+02 -0.42528778615E+02  0.64559127502E+02  0.00000000000E+00 0. -1.
        -14    1    6    6    0    0 -0.54339109412E+00 -0.36306723348E+02  0.28598373642E+02  0.46220562623E+02  0.00000000000E+00 0.  1.
</event>
<event>
12    1  0.8133506E-002  0.2036858E+03  0.7818608E-02  0.1146701E+00
         21   -1    0    0  503  502  0.00000000000E+00  0.00000000000E+00  0.35555948022E+03  0.35555948022E+03  0.00000000000E+00 0.  1.
         21   -1    0    0  501  503 -0.00000000000E+00 -0.00000000000E+00 -0.12948424391E+03  0.12948424391E+03  0.00000000000E+00 0. -1.
          6    2    1    2  501    0 -0.10759563366E+03  0.79515298870E+01  0.36536928849E+02  0.20693684987E+03  0.17276534795E+03 0.  0.
         24    2    3    3    0    0 -0.35561463409E+02  0.52434222139E+02  0.60501098637E+02  0.11882326960E+03  0.80278397659E+02 0.  0.
         -6    2    1    2    0  502  0.10759563366E+03 -0.79515298870E+01  0.18953830746E+03  0.27810687427E+03  0.17256481770E+03 0.  0.
        -24    2    5    5    0    0  0.13218997286E+03 -0.43255942744E+02  0.16072673601E+03  0.22611187703E+03  0.77124780439E+02 0.  0.
          5    1    3    3  501    0 -0.72034170253E+02 -0.44482692252E+02 -0.23964169787E+02  0.88113580268E+02  0.47000000000E+01 0. -1.
        -13    1    4    4    0    0 -0.16654946331E+02  0.13648358659E+02  0.71185982913E+02  0.74371426601E+02  0.00000000000E+00 0.  1.
         14    1    4    4    0    0 -0.18906517078E+02  0.38785863480E+02 -0.10684884276E+02  0.44451842997E+02  0.00000000000E+00 0. -1.
         -5    1    5    5    0  502 -0.24594339203E+02  0.35304412857E+02  0.28811571446E+02  0.51994997232E+02  0.47000000000E+01 0.  1.
         11    1    6    6    0    0  0.52763680086E+02 -0.50641209805E+02  0.46064689052E+02  0.86432017472E+02  0.00000000000E+00 0. -1.
        -12    1    6    6    0    0  0.79426292779E+02  0.73852670610E+01  0.11466204696E+03  0.13967985956E+03  0.00000000000E+00 0.  1.
</event>
<event>
12    1  0.8133506E-002  0.3182842E+03  0.7818608E-02  0.1076550E+00
         21   -1    0    0  501  502  0.00000000000E+00  0.00000000000E+00  0.53327465444E+03  0.53327465444E+03  0.00000000000E+00 0.  1.
         21   -1    0    0  502  503 -0.00000000000E+00 -0.00000000000E+00 -0.22690521843E+03  0.22690521843E+03  0.00000000000E+00 0. -1.
         -6    2    1    2    0  503 -0.22363456258E+03 -0.14668755589E+03  0.30788210710E+03  0.44282752474E+03  0.17255482655E+03 0.  0.
        -24    2    3    3    0    0 -0.15904288594E+03 -0.36619749341E+02  0.12832933461E+03  0.22249074879E+03  0.79987933871E+02 0.  0.
          6    2    1    2  501    0  0.22363456258E+03  0.14668755589E+03 -0.15126710877E+01  0.31735234813E+03  0.17082320702E+03 0.  0.
         24    2    5    5    0    0  0.88183522081E+02  0.40130669214E+02 -0.53865355941E+02  0.13717396962E+03  0.80798621236E+02 0.  0.
          5    1    5    5  501    0  0.13545104050E+03  0.10655688668E+03  0.52352684853E+02  0.18017837851E+03  0.47000000000E+01 0. -1.
        -11    1    6    6    0    0  0.54205552293E+01 -0.14355389003E+02  0.10878184167E+02  0.18809425914E+02  0.00000000000E+00 0.  1.
         12    1    6    6    0    0  0.82762966852E+02  0.54486058218E+02 -0.64743540108E+02  0.11836454371E+03  0.00000000000E+00 0. -1.
         -5    1    3    3    0  503 -0.64591676636E+02 -0.11006780655E+03  0.17955277249E+03  0.22033677596E+03  0.47000000000E+01 0.  1.
         11    1    4    4    0    0 -0.10569800829E+03  0.70468538284E+01  0.10641644568E+03  0.15015387779E+03  0.00000000000E+00 0. -1.
        -12    1    4    4    0    0 -0.53344877656E+02 -0.43666603169E+02  0.21912888926E+02  0.72336870996E+02  0.00000000000E+00 0.  1.
</event>
<event>
12    1  0.8133506E-002  0.2018473E+03  0.7818608E-02  0.1148242E+00
         21   -1    0    0  501  502  0.00000000000E+00  0.00000000000E+00  0.38876483408E+03  0.38876483408E+03  0.00000000000E+00 0. -1.
         21   -1    0    0  502  503 -0.00000000000E+00 -0.00000000000E+00 -0.21164596364E+03  0.21164596364E+03  0.00000000000E+00 0.  1.
         -6    2    1    2    0  503 -0.76758490288E+02  0.72062823199E+02 -0.12484449254E+03  0.23733621522E+03  0.17221328467E+03 0.  0.
        -24    2    3    3    0    0 -0.70838512614E+02 -0.20785023565E+02 -0.68813311974E+02  0.12862857068E+03  0.79749139288E+02 0.  0.
          6    2    1    2  501    0  0.76758490288E+02 -0.72062823199E+02  0.30196336298E+03  0.36307458250E+03  0.17191964274E+03 0.  0.
         24    2    5    5    0    0  0.28935476265E+02 -0.19358736416E+02  0.27232103222E+03  0.28583780884E+03  0.79576918169E+02 0.  0.
          5    1    5    5  501    0  0.47823014023E+02 -0.52704086784E+02  0.29642330751E+02  0.77236773666E+02  0.47000000000E+01 0. -1.
        -13    1    6    6    0    0  0.53577951061E+00  0.24964867843E+02  0.36576493576E+02  0.44287374820E+02  0.00000000000E+00 0.  1.
         14    1    6    6    0    0  0.28399696754E+02 -0.44323604259E+02  0.23574453865E+03  0.24155043402E+03  0.00000000000E+00 0. -1.
         -5    1    3    3    0  503 -0.59199776737E+01  0.92847846765E+02 -0.56031180565E+02  0.10870764453E+03  0.47000000000E+01 0.  1.
         13    1    4    4    0    0 -0.73751330603E+02 -0.26615580649E+02 -0.22098942949E+02  0.81461716030E+02  0.00000000000E+00 0. -1.
        -14    1    4    4    0    0  0.29128179888E+01  0.58305570831E+01 -0.46714369025E+02  0.47166854654E+02  0.00000000000E+00 0.  1.
</event>
<event>
12    1  0.8133506E-002  0.2003333E+03  0.7818608E-02  0.1149937E+00
         21   -1    0    0  501  502  0.00000000000E+00  0.00000000000E+00  0.45002057136E+03  0.45002057136E+03  0.00000000000E+00 0.  1.
         21   -1    0    0  502  503 -0.00000000000E+00 -0.00000000000E+00 -0.92048256506E+02  0.92048256506E+02  0.00000000000E+00 0. -1.
         -6    2    1    2    0  503 -0.79924861178E+02  0.55793362692E+02  0.12242999777E+03  0.23285431875E+03  0.17242722132E+03 0.  0.
        -24    2    3    3    0    0 -0.12216182359E+03  0.29936307169E+02  0.91467906331E+02  0.17426004070E+03  0.78616094197E+02 0.  0.
          6    2    1    2  501    0  0.79924861178E+02 -0.55793362692E+02  0.23554231709E+03  0.30921450912E+03  0.17502156084E+03 0.  0.
         24    2    5    5    0    0  0.20984952649E+02 -0.78859445698E+02  0.77221971644E+02  0.13864669626E+03  0.81243418600E+02 0.  0.
          5    1    5    5  501    0  0.58939908529E+02  0.23066083006E+02  0.15832034545E+03  0.17056781286E+03  0.47000000000E+01 0. -1.
        -13    1    6    6    0    0 -0.31224464851E+02 -0.24384138046E+02  0.24169620035E+02  0.46408231232E+02  0.00000000000E+00 0.  1.
         14    1    6    6    0    0  0.52209417500E+02 -0.54475307652E+02  0.53052351609E+02  0.92238465028E+02  0.00000000000E+00 0. -1.
         -5    1    3    3    0  503  0.42236962409E+02  0.25857055523E+02  0.30962091437E+02  0.58594278048E+02  0.47000000000E+01 0.  1.
         11    1    4    4    0    0 -0.91676629119E+02  0.30476450078E+02  0.22999421224E+02  0.99309575131E+02  0.00000000000E+00 0. -1.
        -12    1    4    4    0    0 -0.30485194468E+02 -0.54014290896E+00  0.68468485106E+02  0.74950465568E+02  0.00000000000E+00 0.  1.
</event>
<event>
12    1  0.8133506E-002  0.2381594E+03  0.7818608E-02  0.1121834E+00
         21   -1    0    0  503  502  0.00000000000E+00  0.00000000000E+00  0.53893984716E+02  0.53893984716E+02  0.00000000000E+00 0.  1.
         21   -1    0    0  501  503 -0.00000000000E+00 -0.00000000000E+00 -0.10332846353E+04  0.10332846353E+04  0.00000000000E+00 0. -1.
          6    2    1    2  501    0  0.15707594301E+03 -0.25474146261E+02 -0.51705486331E+03  0.56926763767E+03  0.17719516818E+03 0.  0.
         24    2    3    3    0    0  0.10952369065E+03 -0.25932468003E+02 -0.16999664643E+03  0.21893504902E+03  0.79785739227E+02 0.  0.
         -6    2    1    2    0  502 -0.15707594301E+03  0.25474146261E+02 -0.46233578725E+03  0.51791098232E+03  0.17075017257E+03 0.  0.
        -24    2    5    5    0    0 -0.16268713707E+02 -0.18138019887E+02 -0.13592797218E+03  0.15973107138E+03  0.80274172263E+02 0.  0.
          5    1    3    3  501    0  0.47552252362E+02  0.45832174174E+00 -0.34705821688E+03  0.35033258865E+03  0.47000000000E+01 0. -1.
        -11    1    4    4    0    0 -0.88247205313E+01  0.10882667373E+02 -0.18043913964E+02  0.22844933197E+02  0.00000000000E+00 0.  1.
         12    1    4    4    0    0  0.11834841118E+03 -0.36815135376E+02 -0.15195273246E+03  0.19609011583E+03  0.00000000000E+00 0. -1.
         -5    1    5    5    0  502 -0.14080722931E+03  0.43612166149E+02 -0.32640781506E+03  0.35817991093E+03  0.47000000000E+01 0.  1.
         11    1    6    6    0    0  0.99667013796E+01 -0.48349783594E+01  0.74610905749E+01  0.13355898498E+02  0.00000000000E+00 0. -1.
        -12    1    6    6    0    0 -0.26235415087E+02 -0.13303041528E+02 -0.14338906276E+03  0.14637517289E+03  0.00000000000E+00 0.  1.
</event>
<event>
12    1  0.8133506E-002  0.2130805E+03  0.7818608E-02  0.1139152E+00
         21   -1    0    0  501  502  0.00000000000E+00  0.00000000000E+00  0.32023805968E+03  0.32023805968E+03  0.00000000000E+00 0.  1.
         21   -1    0    0  502  503 -0.00000000000E+00 -0.00000000000E+00 -0.14475623541E+03  0.14475623541E+03  0.00000000000E+00 0. -1.
         -6    2    1    2    0  503 -0.11866008343E+03  0.41301829583E+02  0.12112080056E+03  0.24508880418E+03  0.17208200685E+03 0.  0.
        -24    2    3    3    0    0 -0.29526809875E+02  0.64315544265E+02  0.10794283549E+03  0.15197532352E+03  0.80227934605E+02 0.  0.
          6    2    1    2  501    0  0.11866008343E+03 -0.41301829583E+02  0.54361023709E+02  0.21990549090E+03  0.17209662258E+03 0.  0.
         24    2    5    5    0    0  0.76974627134E+02 -0.86588500187E+02  0.16994012952E+01  0.13876427895E+03  0.76354276646E+02 0.  0.
          5    1    5    5  501    0  0.41685456293E+02  0.45286670603E+02  0.52661622414E+02  0.81141211946E+02  0.47000000000E+01 0. -1.
        -11    1    6    6    0    0  0.32337401593E+02 -0.14231221389E+02  0.32827037813E+02  0.48227063103E+02  0.00000000000E+00 0.  1.
         12    1    6    6    0    0  0.44637225542E+02 -0.72357278798E+02 -0.31127636517E+02  0.90537215852E+02  0.00000000000E+00 0. -1.
         -5    1    3    3    0  503 -0.89133273553E+02 -0.23013714682E+02  0.13177965071E+02  0.93113480663E+02  0.47000000000E+01 0.  1.
         13    1    4    4    0    0 -0.46291308252E+02  0.45333139796E+02  0.32682323522E+02  0.72567989185E+02  0.00000000000E+00 0. -1.
        -14    1    4    4    0    0  0.16764498377E+02  0.18982404469E+02  0.75260511965E+02  0.79407334337E+02  0.00000000000E+00 0.  1.
</event>
<event>
12    1  0.8133506E-002  0.1945661E+03  0.7818608E-02  0.1154795E+00
         21   -1    0    0  503  502  0.00000000000E+00  0.00000000000E+00  0.11397496712E+04  0.11397496712E+04  0.00000000000E+00 0.  1.
         21   -1    0    0  501  503 -0.00000000000E+00 -0.00000000000E+00 -0.89454835958E+02  0.89454835958E+02  0.00000000000E+00 0.  1.
          6    2    1    2  501    0  0.53837157130E+02 -0.72139225810E+02  0.37405327846E+02  0.19812904782E+03  0.17249189445E+03 0.  0.
         24    2    3    3    0    0  0.97873388204E+02 -0.44831356052E+02  0.46898133710E+02  0.14524131048E+03  0.85478375744E+02 0.  0.
         -6    2    1    2    0  502 -0.53837157130E+02  0.72139225810E+02  0.10128895074E+04  0.10310754593E+04  0.17049616203E+03 0.  0.
        -24    2    5    5    0    0  0.37103567738E+01  0.80614054132E+02  0.86275335169E+03  0.86999630389E+03  0.77703477685E+02 0.  0.
          5    1    3    3  501    0 -0.44036231074E+02 -0.27307869758E+02 -0.94928058640E+01  0.52887737341E+02  0.47000000000E+01 0. -1.
        -11    1    4    4    0    0 -0.12388112199E+02 -0.73239147005E+01 -0.80215136948E+01  0.16475731618E+02  0.00000000000E+00 0.  1.
         12    1    4    4    0    0  0.11026150040E+03 -0.37507441351E+02  0.54919647405E+02  0.12876557886E+03  0.00000000000E+00 0. -1.
         -5    1    5    5    0  502 -0.57547513904E+02 -0.84748283228E+01  0.15013615566E+03  0.16107915541E+03  0.47000000000E+01 0.  1.
         13    1    6    6    0    0  0.27166586711E+02  0.20684221504E+00  0.16308698482E+03  0.16533430024E+03  0.00000000000E+00 0. -1.
        -14    1    6    6    0    0 -0.23456229937E+02  0.80407211917E+02  0.69966636687E+03  0.70466200365E+03  0.00000000000E+00 0.  1.
</event>
<event>
12    1  0.8133506E-002  0.2205962E+03  0.7818608E-02  0.1133442E+00
         21   -1    0    0  503  502  0.00000000000E+00  0.00000000000E+00  0.11805611912E+04  0.11805611912E+04  0.00000000000E+00 0. -1.
         21   -1    0    0  501  503 -0.00000000000E+00 -0.00000000000E+00 -0.67727874606E+02  0.67727874606E+02  0.00000000000E+00 0. -1.
          6    2    1    2  501    0 -0.11210248960E+03 -0.79994439902E+02  0.16593746229E+03  0.27603972818E+03  0.17232704825E+03 0.  0.
         24    2    3    3    0    0  0.10256648825E+02 -0.34607927973E+02  0.86106664492E+02  0.12298176369E+03  0.80045293462E+02 0.  0.
         -6    2    1    2    0  502  0.11210248960E+03  0.79994439902E+02  0.94689585435E+03  0.97224933767E+03  0.17231058300E+03 0.  0.
        -24    2    5    5    0    0  0.11682229494E+03 -0.16449933685E+00  0.62740502865E+03  0.64278885474E+03  0.76765657349E+02 0.  0.
          5    1    3    3  501    0 -0.12235913842E+03 -0.45386511930E+02  0.79830797795E+02  0.15305796450E+03  0.47000000000E+01 0. -1.
        -11    1    4    4    0    0 -0.21976015157E+02 -0.41936088172E+02  0.73857932428E+02  0.87730125475E+02  0.00000000000E+00 0.  1.
         12    1    4    4    0    0  0.32232663982E+02  0.73281601992E+01  0.12248732064E+02  0.35251638210E+02  0.00000000000E+00 0. -1.
         -5    1    5    5    0  502 -0.47198053389E+01  0.80158939239E+02  0.31949082571E+03  0.32946048293E+03  0.47000000000E+01 0.  1.
         11    1    6    6    0    0  0.41939139895E+02 -0.13294998472E+02  0.41236357123E+03  0.41470394659E+03  0.00000000000E+00 0. -1.
        -12    1    6    6    0    0  0.74883155040E+02  0.13130499135E+02  0.21504145741E+03  0.22808490814E+03  0.00000000000E+00 0.  1.
</event>
<event>
12    1  0.8133506E-002  0.1999516E+03  0.7818608E-02  0.1150623E+00
         21   -1    0    0  503  502  0.00000000000E+00  0.00000000000E+00  0.26846583945E+03  0.26846583945E+03  0.00000000000E+00 0.  1.
         21   -1    0    0  501  503 -0.00000000000E+00 -0.00000000000E+00 -0.35981377548E+03  0.35981377548E+03  0.00000000000E+00 0.  1.
          6    2    1    2  501    0 -0.12234798725E+02 -0.97759062094E+02 -0.28801890437E+03  0.35062163066E+03  0.17399458064E+03 0.  0.
         24    2    3    3    0    0  0.29936542085E+02  0.43928864418E+01 -0.90474649118E+02  0.12421653938E+03  0.79552451368E+02 0.  0.
         -6    2    1    2    0  502  0.12234798725E+02  0.97759062094E+02  0.19667096835E+03  0.27765798427E+03  0.16943424068E+03 0.  0.
        -24    2    5    5    0    0  0.17330901189E+02  0.38665990840E+02  0.19865994222E+03  0.21812641829E+03  0.79485487553E+02 0.  0.
          5    1    3    3  501    0 -0.42171340810E+02 -0.10215194854E+03 -0.19754425525E+03  0.22640509128E+03  0.47000000000E+01 0. -1.
        -11    1    4    4    0    0  0.43848796291E+02 -0.13206324548E+02 -0.19486572583E+02  0.49767966156E+02  0.00000000000E+00 0.  1.
         12    1    4    4    0    0 -0.13912254207E+02  0.17599210990E+02 -0.70988076535E+02  0.74448573222E+02  0.00000000000E+00 0. -1.
         -5    1    5    5    0  502 -0.50961024637E+01  0.59093071254E+02 -0.19889738645E+01  0.59531565977E+02  0.47000000000E+01 0.  1.
         13    1    6    6    0    0  0.39558080366E+02 -0.31870982327E+01  0.63312977295E+02  0.74723038023E+02  0.00000000000E+00 0. -1.
        -14    1    6    6    0    0 -0.22227179177E+02  0.41853089073E+02  0.13534696492E+03  0.14340338027E+03  0.00000000000E+00 0.  1.
</event>
<event>
12    1  0.8133506E-002  0.1900769E+03  0.7818608E-02  0.1158507E+00
         21   -1    0    0  503  502  0.00000000000E+00  0.00000000000E+00  0.53165479083E+03  0.53165479083E+03  0.00000000000E+00 0. -1.
         21   -1    0    0  501  503 -0.00000000000E+00 -0.00000000000E+00 -0.18356532453E+03  0.18356532453E+03  0.00000000000E+00 0. -1.
          6    2    1    2  501    0 -0.27359252950E+02 -0.74445745628E+02 -0.10989102413E+03  0.21955698670E+03  0.17273834392E+03 0.  0.
         24    2    3    3    0    0  0.31843603038E+02 -0.52614211077E+02 -0.10036612644E+02  0.10134282701E+03  0.79920990554E+02 0.  0.
         -6    2    1    2    0  502  0.27359252950E+02  0.74445745628E+02  0.45798049043E+03  0.49566312865E+03  0.17217755292E+03 0.  0.
        -24    2    5    5    0    0  0.75891608060E+01  0.11046618452E+03  0.41081457907E+03  0.43293321749E+03  0.80013618475E+02 0.  0.
          5    1    3    3  501    0 -0.59202855988E+02 -0.21831534551E+02 -0.99854411484E+02  0.11821415969E+03  0.47000000000E+01 0. -1.
        -11    1    4    4    0    0  0.13233546624E+02  0.79650897926E+01  0.24656327931E+02  0.29094740396E+02  0.00000000000E+00 0.  1.
         12    1    4    4    0    0  0.18610056413E+02 -0.60579300870E+02 -0.34692940575E+02  0.72248086613E+02  0.00000000000E+00 0. -1.
         -5    1    5    5    0  502  0.19770092144E+02 -0.36020438888E+02  0.47165911354E+02  0.62729911166E+02  0.47000000000E+01 0.  1.
         13    1    6    6    0    0 -0.32470147515E+02  0.30115209539E+02  0.17746123190E+03  0.18290359524E+03  0.00000000000E+00 0. -1.
        -14    1    6    6    0    0  0.40059308321E+02  0.80350974976E+02  0.23335334718E+03  0.25002962225E+03  0.00000000000E+00 0.  1.
</event>
<event>
12    1  0.8133506E-002  0.1747356E+03  0.7818608E-02  0.1178162E+00
         21   -1    0    0  501  502  0.00000000000E+00  0.00000000000E+00  0.12695349334E+02  0.12695349334E+02  0.00000000000E+00 0.  1.
         21   -1    0    0  502  503 -0.00000000000E+00 -0.00000000000E+00 -0.22540883344E+04  0.22540883344E+04  0.00000000000E+00 0.  1.
         -6    2    1    2    0  503 -0.29808570016E+02  0.15571575477E+02 -0.14298835534E+04  0.14405205647E+04  0.17146864505E+03 0.  0.
        -24    2    3    3    0    0  0.36661591752E+02  0.82648715290E+01 -0.45764486328E+03  0.46597357717E+03  0.79247544623E+02 0.  0.
          6    2    1    2  501    0  0.29808570016E+02 -0.15571575477E+02 -0.81150943161E+03  0.82626311898E+03  0.15176349818E+03 0.  0.
         24    2    5    5    0    0  0.22788668521E+02 -0.29305622899E+01 -0.80530341783E+03  0.80984121779E+03  0.82469943991E+02 0.  0.
          5    1    5    5  501    0  0.70199014950E+01 -0.12641013188E+02 -0.62060137792E+01  0.16421901182E+02  0.47000000000E+01 0. -1.
        -11    1    6    6    0    0  0.43389780788E+02 -0.28867638293E+02 -0.52837196736E+03  0.53093591846E+03  0.00000000000E+00 0.  1.
         12    1    6    6    0    0 -0.20601112267E+02  0.25937076004E+02 -0.27693145047E+03  0.27890529934E+03  0.00000000000E+00 0. -1.
         -5    1    3    3    0  503 -0.66470161768E+02  0.73067039485E+01 -0.97223869017E+03  0.97454698758E+03  0.47000000000E+01 0.  1.
         11    1    4    4    0    0  0.19855647946E+02  0.26950357509E+02 -0.70816645292E+02  0.78329852391E+02  0.00000000000E+00 0. -1.
        -12    1    4    4    0    0  0.16805943806E+02 -0.18685485980E+02 -0.38682821798E+03  0.38764372478E+03  0.00000000000E+00 0.  1.
</event>
<event>
12    1  0.8133506E-002  0.1817689E+03  0.7818608E-02  0.1166145E+00
         21   -1    0    0  501  502  0.00000000000E+00  0.00000000000E+00  0.11136605672E+03  0.11136605672E+03  0.00000000000E+00 0. -1.
         21   -1    0    0  502  503 -0.00000000000E+00 -0.00000000000E+00 -0.34556004331E+03  0.34556004331E+03  0.00000000000E+00 0. -1.
         -6    2    1    2    0  503 -0.27065266997E+02  0.53037340505E+02 -0.20332722987E+03  0.27273046713E+03  0.17173950370E+03 0.  0.
        -24    2    3    3    0    0  0.49492596183E+02  0.14689811518E+02 -0.12056269219E+03  0.15355119842E+03  0.79857999898E+02 0.  0.
          6    2    1    2  501    0  0.27065266997E+02 -0.53037340505E+02 -0.30866756719E+02  0.18419563290E+03  0.17155111875E+03 0.  0.
         24    2    5    5    0    0  0.87075850393E+01  0.28530803727E+02 -0.48505837368E+02  0.98617634525E+02  0.80515792128E+02 0.  0.
          5    1    5    5  501    0  0.18357681958E+02 -0.81568144232E+02  0.17639080650E+02  0.85577998378E+02  0.47000000000E+01 0. -1.
        -11    1    6    6    0    0 -0.31650999809E+02  0.23780689755E+02 -0.64052187709E+01  0.40104037473E+02  0.00000000000E+00 0.  1.
         12    1    6    6    0    0  0.40358584848E+02  0.47501139720E+01 -0.42100618597E+02  0.58513597052E+02  0.00000000000E+00 0. -1.
         -5    1    3    3    0  503 -0.76557863180E+02  0.38347528987E+02 -0.82764537680E+02  0.11917926872E+03  0.47000000000E+01 0.  1.
         13    1    4    4    0    0  0.31897979886E+02  0.47758132491E+02 -0.68003276852E+02  0.89009920809E+02  0.00000000000E+00 0. -1.
        -14    1    4    4    0    0  0.17594616297E+02 -0.33068320972E+02 -0.52559415337E+02  0.64541277607E+02  0.00000000000E+00 0.  1.
</event>
<event>
12    1  0.8133506E-002  0.1762340E+03  0.7818608E-02  0.1171560E+00
         21   -1    0    0  501  502  0.00000000000E+00  0.00000000000E+00  0.18243950173E+04  0.18243950173E+04  0.00000000000E+00 0. -1.
         21   -1    0    0  502  503 -0.00000000000E+00 -0.00000000000E+00 -0.32882274734E+02  0.32882274734E+02  0.00000000000E+00 0. -1.
         -6    2    1    2    0  503 -0.28584257904E+02  0.24803110281E+02  0.25069274732E+03  0.30643966499E+03  0.17212251638E+03 0.  0.
        -24    2    3    3    0    0  0.17422930043E+02  0.27760813274E+02  0.33636076441E+02  0.84491252698E+02  0.70236492646E+02 0.  0.
          6    2    1    2  501    0  0.28584257904E+02 -0.24803110281E+02  0.15408199953E+04  0.15508376271E+04  0.17186865217E+03 0.  0.
         24    2    5    5    0    0 -0.44603575901E+02 -0.45541747796E+01  0.58840527975E+03  0.59538885358E+03  0.79100532470E+02 0.  0.
          5    1    5    5  501    0  0.73187833805E+02 -0.20248935501E+02  0.95241471553E+03  0.95544877349E+03  0.47000000000E+01 0. -1.
        -11    1    6    6    0    0  0.43784841564E+01  0.16915590781E+02  0.32346697765E+02  0.36764346741E+02  0.00000000000E+00 0.  1.
         12    1    6    6    0    0 -0.48982060058E+02 -0.21469765561E+02  0.55605858199E+03  0.55862450684E+03  0.00000000000E+00 0. -1.
         -5    1    3    3    0  503 -0.46007187947E+02 -0.29577029933E+01  0.21705667087E+03  0.22194841230E+03  0.47000000000E+01 0.  1.
         13    1    4    4    0    0  0.95603938972E+01 -0.64143532953E+01 -0.18421869005E+02  0.21723496894E+02  0.00000000000E+00 0. -1.
        -14    1    4    4    0    0  0.78625361454E+01  0.34175166569E+02  0.52057945446E+02  0.62767755804E+02  0.00000000000E+00 0.  1.
</event>
<event>
12    1  0.8133506E-002  0.1987989E+03  0.7818608E-02  0.1150962E+00
         21   -1    0    0  501  502  0.00000000000E+00  0.00000000000E+00  0.13354159024E+03  0.13354159024E+03  0.00000000000E+00 0.  1.
         21   -1    0    0  502  503 -0.00000000000E+00 -0.00000000000E+00 -0.32912701268E+03  0.32912701268E+03  0.00000000000E+00 0.  1.
         -6    2    1    2    0  503  0.88436798602E+02 -0.40601319217E+02 -0.17260174487E+03  0.26254553226E+03  0.17224766968E+03 0.  0.
        -24    2    3    3    0    0  0.50936518741E+02 -0.58223239194E+02 -0.31598388130E+02  0.11550526681E+03  0.79740416384E+02 0.  0.
          6    2    1    2  501    0 -0.88436798602E+02  0.40601319217E+02 -0.22983677575E+02  0.20012307066E+03  0.17335356790E+03 0.  0.
         24    2    5    5    0    0  0.17376482391E+01 -0.17667849878E+01 -0.52140306796E+02  0.96206343684E+02  0.80814033569E+02 0.  0.
          5    1    5    5  501    0 -0.90174446841E+02  0.42368104205E+02  0.29156629221E+02  0.10391672697E+03  0.47000000000E+01 0. -1.
        -11    1    6    6    0    0  0.36985554164E+02  0.32751520207E+01 -0.55115315305E+01  0.37537112534E+02  0.00000000000E+00 0.  1.
         12    1    6    6    0    0 -0.35247905925E+02 -0.50419370085E+01 -0.46628775266E+02  0.58669231150E+02  0.00000000000E+00 0. -1.
         -5    1    3    3    0  503  0.37500279861E+02  0.17621919976E+02 -0.14100335674E+03  0.14704026545E+03  0.47000000000E+01 0.  1.
         13    1    4    4    0    0  0.55780523711E+02 -0.41541846621E+01 -0.23279450425E+02  0.60585946289E+02  0.00000000000E+00 0. -1.
        -14    1    4    4    0    0 -0.48440049695E+01 -0.54069054532E+02 -0.83189377056E+01  0.54919320522E+02  0.00000000000E+00 0.  1.
</event>
<event>
12    1  0.8133506E-002  0.2164470E+03  0.7818608E-02  0.1136878E+00
         21   -1    0    0  501  502  0.00000000000E+00  0.00000000000E+00  0.18826561890E+03  0.18826561890E+03  0.00000000000E+00 0. -1.
         21   -1    0    0  502  503 -0.00000000000E+00 -0.00000000000E+00 -0.24988010744E+03  0.24988010744E+03  0.00000000000E+00 0. -1.
         -6    2    1    2    0  503 -0.12514879775E+03  0.34175624030E+02 -0.71619168751E+01  0.21656545054E+03  0.17326022757E+03 0.  0.
        -24    2    3    3    0    0 -0.12106872500E+03 -0.15954324702E+02  0.35704753879E+02  0.15031365649E+03  0.80044920064E+02 0.  0.
          6    2    1    2  501    0  0.12514879775E+03 -0.34175624030E+02 -0.54452571664E+02  0.22158027580E+03  0.17117985047E+03 0.  0.
         24    2    5    5    0    0  0.69404580107E+02  0.34968383312E+02  0.76655324315E+01  0.11309497538E+03  0.81804214422E+02 0.  0.
          5    1    5    5  501    0  0.55744217640E+02 -0.69144007342E+02 -0.62118104095E+02  0.10848530042E+03  0.47000000000E+01 0. -1.
        -11    1    6    6    0    0  0.38693474671E+02  0.24754682068E+02  0.44573721584E+02  0.64006217840E+02  0.00000000000E+00 0.  1.
         12    1    6    6    0    0  0.30711105436E+02  0.10213701244E+02 -0.36908189152E+02  0.49088757539E+02  0.00000000000E+00 0. -1.
         -5    1    3    3    0  503 -0.40800727510E+01  0.50129948733E+02 -0.42866670754E+02  0.66251794052E+02  0.47000000000E+01 0.  1.
         13    1    4    4    0    0 -0.53676057579E+02  0.27903508457E+02  0.35025976569E+02  0.69903819467E+02  0.00000000000E+00 0. -1.
        -14    1    4    4    0    0 -0.67392667417E+02 -0.43857833159E+02  0.67877730987E+00  0.80409837020E+02  0.00000000000E+00 0.  1.
</event>
<event>
12    1  0.8133506E-002  0.1974505E+03  0.7818608E-02  0.1152308E+00
         21   -1    0    0  501  502  0.00000000000E+00  0.00000000000E+00  0.56291813936E+03  0.56291813936E+03  0.00000000000E+00 0. -1.
         21   -1    0    0  502  503 -0.00000000000E+00 -0.00000000000E+00 -0.11947303429E+03  0.11947303429E+03  0.00000000000E+00 0. -1.
         -6    2    1    2    0  503  0.84597816537E+02 -0.45950118697E+02 -0.14999023374E+01  0.19560295345E+03  0.17026468136E+03 0.  0.
        -24    2    3    3    0    0  0.81118691682E+02  0.95398033982E+01  0.46002141907E+02  0.12232423913E+03  0.78586082930E+02 0.  0.
          6    2    1    2  501    0 -0.84597816537E+02  0.45950118697E+02  0.44494500741E+03  0.48678822020E+03  0.17239056741E+03 0.  0.
         24    2    5    5    0    0  0.89657761827E+01  0.25673614485E+02  0.30943743472E+03  0.32080727321E+03  0.80163962707E+02 0.  0.
          5    1    5    5  501    0 -0.93563592720E+02  0.20276504212E+02  0.13550757269E+03  0.16598094699E+03  0.47000000000E+01 0. -1.
        -13    1    6    6    0    0  0.37232900308E+02  0.11903855971E+02  0.78030772002E+02  0.87274234637E+02  0.00000000000E+00 0.  1.
         14    1    6    6    0    0 -0.28267124125E+02  0.13769758513E+02  0.23140666272E+03  0.23353303857E+03  0.00000000000E+00 0. -1.
         -5    1    3    3    0  503  0.34791248548E+01 -0.55489922095E+02 -0.47502044245E+02  0.73278714313E+02  0.47000000000E+01 0.  1.
         13    1    4    4    0    0  0.88038487625E+02 -0.12413997893E+02  0.44049064717E+02  0.99222995064E+02  0.00000000000E+00 0. -1.
        -14    1    4    4    0    0 -0.69197959429E+01  0.21953801291E+02  0.19530771900E+01  0.23101244069E+02  0.00000000000E+00 0.  1.
</event>
<event>
12    1  0.8133506E-002  0.2164300E+03  0.7818608E-02  0.1136792E+00
         21   -1    0    0  503  502  0.00000000000E+00  0.00000000000E+00  0.97873957918E+03  0.97873957918E+03  0.00000000000E+00 0.  1.
         21   -1    0    0  501  503 -0.00000000000E+00 -0.00000000000E+00 -0.47968244043E+02  0.47968244043E+02  0.00000000000E+00 0.  1.
          6    2    1    2  501    0  0.75482055074E+02  0.10509253290E+03  0.41958145071E+03  0.47158888935E+03  0.17206250512E+03 0.  0.
         24    2    3    3    0    0  0.24695494702E+02  0.73229270255E+02  0.11064164857E+03  0.15685021431E+03  0.79925101500E+02 0.  0.
         -6    2    1    2    0  502 -0.75482055074E+02 -0.10509253290E+03  0.51118988443E+03  0.55511893388E+03  0.17349337652E+03 0.  0.
        -24    2    5    5    0    0 -0.36230462192E+02  0.22685576774E+02  0.19268463577E+03  0.20966905867E+03  0.70756367338E+02 0.  0.
          5    1    3    3  501    0  0.50786560372E+02  0.31863262640E+02  0.30893980213E+03  0.31473867503E+03  0.47000000000E+01 0. -1.
        -11    1    4    4    0    0  0.36556807857E+02  0.51578034472E+02  0.11551820982E+03  0.13168580273E+03  0.00000000000E+00 0.  1.
         12    1    4    4    0    0 -0.11861313154E+02  0.21651235783E+02 -0.48765612461E+01  0.25164411582E+02  0.00000000000E+00 0. -1.
         -5    1    5    5    0  502 -0.39251592882E+02 -0.12777810967E+03  0.31850524866E+03  0.34544987521E+03  0.47000000000E+01 0.  1.
         13    1    6    6    0    0  0.68260880341E+01  0.36352393404E+02  0.98376152566E+02  0.10509975917E+03  0.00000000000E+00 0. -1.
        -14    1    6    6    0    0 -0.43056550226E+02 -0.13666816630E+02  0.94308483205E+02  0.10456929950E+03  0.00000000000E+00 0.  1.
</event>
<event>
12    1  0.8133506E-002  0.1766259E+03  0.7818608E-02  0.1171801E+00
         21   -1    0    0  501  502  0.00000000000E+00  0.00000000000E+00  0.79738060000E+02  0.79738060000E+02  0.00000000000E+00 0. -1.
         21   -1    0    0  502  503 -0.00000000000E+00 -0.00000000000E+00 -0.60808995245E+03  0.60808995245E+03  0.00000000000E+00 0. -1.
         -6    2    1    2    0  503  0.26041648720E+02  0.25738724219E+02 -0.47109586283E+03  0.50215371060E+03  0.16995995910E+03 0.  0.
        -24    2    3    3    0    0 -0.42326230470E+01 -0.37153441994E+02 -0.36088062768E+03  0.37161082814E+03  0.80383373921E+02 0.  0.
          6    2    1    2  501    0 -0.26041648720E+02 -0.25738724219E+02 -0.57256029624E+02  0.18567430186E+03  0.17278901600E+03 0.  0.
         24    2    5    5    0    0  0.32015950089E+02 -0.20411752564E+02  0.16872647103E+02  0.91248605568E+02  0.81240144602E+02 0.  0.
          5    1    5    5  501    0 -0.58057598809E+02 -0.53269716556E+01 -0.74128676727E+02  0.94425696289E+02  0.47000000000E+01 0. -1.
        -13    1    6    6    0    0  0.51927662441E+02  0.28554094411E+01 -0.69248604581E+01  0.52465123482E+02  0.00000000000E+00 0.  1.
         14    1    6    6    0    0 -0.19911712352E+02 -0.23267162005E+02  0.23797507561E+02  0.38783482085E+02  0.00000000000E+00 0. -1.
         -5    1    3    3    0  503  0.30274271767E+02  0.62892166214E+02 -0.11021523515E+03  0.13054288246E+03  0.47000000000E+01 0.  1.
         11    1    4    4    0    0  0.34896710265E+02 -0.19424462063E+02 -0.24052766688E+03  0.24382093563E+03  0.00000000000E+00 0. -1.
        -12    1    4    4    0    0 -0.39129333312E+02 -0.17728979931E+02 -0.12035296080E+03  0.12778989251E+03  0.00000000000E+00 0.  1.
</event>
<event>
12    1  0.8133506E-002  0.2062426E+03  0.7818608E-02  0.1144647E+00
         21   -1    0    0  503  502  0.00000000000E+00  0.00000000000E+00  0.74200057189E+02  0.74200057189E+02  0.00000000000E+00 0. -1.
         21   -1    0    0  501  503 -0.00000000000E+00 -0.00000000000E+00 -0.83913438404E+03  0.83913438404E+03  0.00000000000E+00 0.  1.
          6    2    1    2  501    0 -0.11136770494E+03 -0.15304056171E+02 -0.63976739486E+03  0.67208194811E+03  0.17249592924E+03 0.  0.
         24    2    3    3    0    0 -0.67553589850E+02  0.35257463699E+02 -0.54430178748E+03  0.55541183126E+03  0.80070532665E+02 0.  0.
         -6    2    1    2    0  502  0.11136770494E+03  0.15304056171E+02 -0.12516693199E+03  0.24125249312E+03  0.17291334458E+03 0.  0.
        -24    2    5    5    0    0  0.66563102813E+02 -0.41579151239E+02 -0.12675486446E+03  0.16867313527E+03  0.78894603256E+02 0.  0.
          5    1    3    3  501    0 -0.43814115089E+02 -0.50561519870E+02 -0.95465607385E+02  0.11667011685E+03  0.47000000000E+01 0. -1.
        -11    1    4    4    0    0  0.10564322235E+02  0.91281038750E+01 -0.23231382518E+03  0.23273298124E+03  0.00000000000E+00 0.  1.
         12    1    4    4    0    0 -0.78117912085E+02  0.26129359824E+02 -0.31198796230E+03  0.32267885002E+03  0.00000000000E+00 0. -1.
         -5    1    5    5    0  502  0.44804602126E+02  0.56883207410E+02  0.15879324699E+01  0.72579357854E+02  0.47000000000E+01 0.  1.
         11    1    6    6    0    0  0.75418037418E+02 -0.49034514982E+02 -0.79600294386E+02  0.12011857015E+03  0.00000000000E+00 0. -1.
        -12    1    6    6    0    0 -0.88549346049E+01  0.74553637431E+01 -0.47154570072E+02  0.48554565121E+02  0.00000000000E+00 0.  1.
</event>
<event>
12    1  0.8133506E-002  0.2415377E+03  0.7818608E-02  0.1119350E+00
         21   -1    0    0  503  502  0.00000000000E+00  0.00000000000E+00  0.13710779875E+04  0.13710779875E+04  0.00000000000E+00 0. -1.
         21   -1    0    0  501  503 -0.00000000000E+00 -0.00000000000E+00 -0.42922635506E+02  0.42922635506E+02  0.00000000000E+00 0.  1.
          6    2    1    2  501    0  0.13497977145E+03 -0.97025367959E+02  0.76623007383E+03  0.80236307126E+03  0.17042450337E+03 0.  0.
         24    2    3    3    0    0  0.14015499956E+03 -0.23811732219E+02  0.56808849632E+03  0.59101219195E+03  0.79752422507E+02 0.  0.
         -6    2    1    2    0  502 -0.13497977145E+03  0.97025367959E+02  0.56192527812E+03  0.61163755170E+03  0.17523417399E+03 0.  0.
        -24    2    5    5    0    0 -0.10330702628E+03  0.74532518800E+02  0.54954794949E+03  0.57059636124E+03  0.85731094921E+02 0.  0.
          5    1    3    3  501    0 -0.51752281019E+01 -0.73213635740E+02  0.19814157751E+03  0.21135087930E+03  0.47000000000E+01 0. -1.
        -11    1    4    4    0    0  0.46617222878E+02 -0.43326773900E+02  0.16744208418E+03  0.17912907737E+03  0.00000000000E+00 0.  1.
         12    1    4    4    0    0  0.93537776678E+02  0.19515041681E+02  0.40064641214E+03  0.41188311458E+03  0.00000000000E+00 0. -1.
         -5    1    5    5    0  502 -0.31672745177E+02  0.22492849159E+02  0.12377328627E+02  0.41041190459E+02  0.47000000000E+01 0.  1.
         13    1    6    6    0    0 -0.48567072033E+01  0.10724678417E+02  0.22817831526E+03  0.22848183710E+03  0.00000000000E+00 0. -1.
        -14    1    6    6    0    0 -0.98450319073E+02  0.63807840383E+02  0.32136963423E+03  0.34211452414E+03  0.00000000000E+00 0.  1.
</event>
<event>
12    1  0.8133506E-002  0.4726993E+03  0.7818608E-02  0.1021180E+00
         21   -1    0    0  501  502  0.00000000000E+00  0.00000000000E+00  0.84798418743E+03  0.84798418743E+03  0.00000000000E+00 0.  1.
         21   -1    0    0  502  503 -0.00000000000E+00 -0.00000000000E+00 -0.31254880748E+03  0.31254880748E+03  0.00000000000E+00 0.  1.
         -6    2    1    2    0  503  0.43849332687E+03  0.39385668444E+02  0.37426987853E+02  0.47390575851E+03  0.17134252228E+03 0.  0.
        -24    2    3    3    0    0  0.19579144932E+03 -0.42523742902E+02  0.87725817766E+01  0.21611414107E+03  0.80534486052E+02 0.  0.
          6    2    1    2  501    0 -0.43849332687E+03 -0.39385668444E+02  0.49800839210E+03  0.68662723640E+03  0.17209582962E+03 0.  0.
         24    2    5    5    0    0 -0.24642942982E+03  0.44016276272E+02  0.26305469992E+03  0.37187375763E+03  0.80171191831E+02 0.  0.
          5    1    5    5  501    0 -0.19206389704E+03 -0.83401944715E+02  0.23495369218E+03  0.31475347877E+03  0.47000000000E+01 0. -1.
        -11    1    6    6    0    0 -0.17655501239E+03  0.61508355350E+02  0.21674885286E+03  0.28624293073E+03  0.00000000000E+00 0.  1.
         12    1    6    6    0    0 -0.69874417438E+02 -0.17492079079E+02  0.46305847060E+02  0.85630826895E+02  0.00000000000E+00 0. -1.
         -5    1    3    3    0  503  0.24270187755E+03  0.81909411346E+02  0.28654406076E+02  0.25779161744E+03  0.47000000000E+01 0.  1.
         13    1    4    4    0    0  0.12527160045E+03 -0.24915772083E+02 -0.33480121400E+02  0.13204047904E+03  0.00000000000E+00 0. -1.
        -14    1    4    4    0    0  0.70519848871E+02 -0.17607970819E+02  0.42252703176E+02  0.84073662028E+02  0.00000000000E+00 0.  1.
</event>
<event>
12    1  0.8133506E-002  0.1928177E+03  0.7818608E-02  0.1156050E+00
         21   -1    0    0  503  502  0.00000000000E+00  0.00000000000E+00  0.44272911715E+03  0.44272911715E+03  0.00000000000E+00 0.  1.
         21   -1    0    0  501  503 -0.00000000000E+00 -0.00000000000E+00 -0.16486148264E+03  0.16486148264E+03  0.00000000000E+00 0.  1.
          6    2    1    2  501    0 -0.29914674449E+02  0.81568499526E+02 -0.74043714401E+02  0.20654570095E+03  0.17213467715E+03 0.  0.
         24    2    3    3    0    0  0.28218513488E+02 -0.66553830797E+01 -0.50037898829E+02  0.98096218785E+02  0.79236974912E+02 0.  0.
         -6    2    1    2    0  502  0.29914674449E+02 -0.81568499526E+02  0.35191134891E+03  0.40104489883E+03  0.17160158951E+03 0.  0.
        -24    2    5    5    0    0  0.27177249810E+02  0.11440286326E+02  0.24553584584E+03  0.25963780780E+03  0.79085122425E+02 0.  0.
          5    1    3    3  501    0 -0.58133187936E+02  0.88223882606E+02 -0.24005815572E+02  0.10844948217E+03  0.47000000000E+01 0. -1.
        -13    1    4    4    0    0  0.47966128229E+02  0.19338590117E+02 -0.29852918188E+02  0.59715385365E+02  0.00000000000E+00 0.  1.
         14    1    4    4    0    0 -0.19747614741E+02 -0.25993973197E+02 -0.20184980641E+02  0.38380833420E+02  0.00000000000E+00 0. -1.
         -5    1    5    5    0  502  0.27374246387E+01 -0.93008785852E+02  0.10637550307E+03  0.14140709103E+03  0.47000000000E+01 0.  1.
         11    1    6    6    0    0 -0.17977277688E+01  0.36322719660E+02  0.59594768338E+02  0.69814813627E+02  0.00000000000E+00 0. -1.
        -12    1    6    6    0    0  0.28974977579E+02 -0.24882433334E+02  0.18594107750E+03  0.18982299417E+03  0.00000000000E+00 0.  1.
</event>
<event>
12    1  0.8133506E-002  0.1796301E+03  0.7818608E-02  0.1168378E+00
         21   -1    0    0  501  502  0.00000000000E+00  0.00000000000E+00  0.81351833964E+02  0.81351833964E+02  0.00000000000E+00 0.  1.
         21   -1    0    0  502  503 -0.00000000000E+00 -0.00000000000E+00 -0.52470075035E+03  0.52470075035E+03  0.00000000000E+00 0.  1.
         -6    2    1    2    0  503 -0.53130954793E+02  0.79935571938E+01 -0.37293870950E+03  0.41394473463E+03  0.17140643796E+03 0.  0.
        -24    2    3    3    0    0 -0.38071454828E+02 -0.50806580691E+02 -0.31025774783E+03  0.32656488735E+03  0.79712052108E+02 0.  0.
          6    2    1    2  501    0  0.53130954793E+02 -0.79935571938E+01 -0.70410206888E+02  0.19210784968E+03  0.17047296959E+03 0.  0.
         24    2    5    5    0    0  0.45167626923E+02  0.59503862029E+02 -0.55144990800E+02  0.12229070985E+03  0.79581553051E+02 0.  0.
          5    1    5    5  501    0  0.79633278707E+01 -0.67497419223E+02 -0.15265216089E+02  0.69817139835E+02  0.47000000000E+01 0. -1.
        -13    1    6    6    0    0  0.52971251678E+02  0.16230198740E+02 -0.50452121144E+01  0.55631169507E+02  0.00000000000E+00 0.  1.
         14    1    6    6    0    0 -0.78036247552E+01  0.43273663289E+02 -0.50099778685E+02  0.66659540338E+02  0.00000000000E+00 0. -1.
         -5    1    3    3    0  503 -0.15059499966E+02  0.58800137884E+02 -0.62680961669E+02  0.87379847277E+02  0.47000000000E+01 0.  1.
         13    1    4    4    0    0 -0.13588901677E+02  0.75771085399E+01 -0.75243466771E+01  0.17282552344E+02  0.00000000000E+00 0. -1.
        -14    1    4    4    0    0 -0.24482553151E+02 -0.58383689231E+02 -0.30273340115E+03  0.30928233501E+03  0.00000000000E+00 0.  1.
</event>
<event>
12    1  0.8133506E-002  0.1764189E+03  0.7818608E-02  0.1172416E+00
         21   -1    0    0  501  502  0.00000000000E+00  0.00000000000E+00  0.69897963561E+02  0.69897963561E+02  0.00000000000E+00 0. -1.
         21   -1    0    0  502  503 -0.00000000000E+00 -0.00000000000E+00 -0.10809398569E+04  0.10809398569E+04  0.00000000000E+00 0. -1.
         -6    2    1    2    0  503 -0.10817358349E+02 -0.99187080368E+00 -0.94801329201E+03  0.96349796871E+03  0.17170071296E+03 0.  0.
        -24    2    3    3    0    0 -0.16816725407E+02 -0.20965086733E+02 -0.93442253249E+03  0.93816576580E+03  0.79291851990E+02 0.  0.
          6    2    1    2  501    0  0.10817358349E+02  0.99187080368E+00 -0.63028601372E+02  0.18733985179E+03  0.17608411748E+03 0.  0.
         24    2    5    5    0    0  0.13443747781E+02  0.68342602995E+02 -0.53074949901E+02  0.11904501871E+03  0.80643167314E+02 0.  0.
          5    1    5    5  501    0 -0.26263894320E+01 -0.67350732191E+02 -0.99536514711E+01  0.68294833083E+02  0.47000000000E+01 0. -1.
        -11    1    6    6    0    0  0.40552931907E+02  0.48306053368E+02 -0.92365647888E+01  0.63744248426E+02  0.00000000000E+00 0.  1.
         12    1    6    6    0    0 -0.27109184126E+02  0.20036549627E+02 -0.43838385112E+02  0.55300770286E+02  0.00000000000E+00 0. -1.
         -5    1    3    3    0  503  0.59993670583E+01  0.19973215929E+02 -0.13590759522E+02  0.25332202905E+02  0.47000000000E+01 0.  1.
         13    1    4    4    0    0  0.25973951017E+02 -0.25355728971E+02 -0.58144022139E+03  0.58257213303E+03  0.00000000000E+00 0. -1.
        -14    1    4    4    0    0 -0.42790676424E+02  0.43906422386E+01 -0.35298231109E+03  0.35559363278E+03  0.00000000000E+00 0.  1.
</event>
<event>
12    1  0.8133506E-002  0.2054843E+03  0.7818608E-02  0.1145268E+00
         21   -1    0    0  503  502  0.00000000000E+00  0.00000000000E+00  0.10480058486E+04  0.10480058486E+04  0.00000000000E+00 0.  1.
         21   -1    0    0  501  503 -0.00000000000E+00 -0.00000000000E+00 -0.40234372315E+02  0.40234372315E+02  0.00000000000E+00 0.  1.
          6    2    1    2  501    0  0.11121237106E+03 -0.14321916062E+02  0.49222917334E+03  0.53325582827E+03  0.17175246878E+03 0.  0.
         24    2    3    3    0    0  0.26373379943E+02 -0.30446706839E+02  0.11139088614E+03  0.14272086915E+03  0.79616329034E+02 0.  0.
         -6    2    1    2    0  502 -0.11121237106E+03  0.14321916062E+02  0.51554230299E+03  0.55498439270E+03  0.17219320896E+03 0.  0.
        -24    2    5    5    0    0 -0.99262170623E+02 -0.61855594979E+01  0.18417759424E+03  0.22273746036E+03  0.76153465870E+02 0.  0.
          5    1    3    3  501    0  0.84838991114E+02  0.16124790777E+02  0.38083828721E+03  0.39053495912E+03  0.47000000000E+01 0. -1.
        -11    1    4    4    0    0  0.25456413812E+01 -0.34194443273E+02  0.11344418175E+03  0.11851296391E+03  0.00000000000E+00 0.  1.
         12    1    4    4    0    0  0.23827738562E+02  0.37477364344E+01 -0.20532956117E+01  0.24207905242E+02  0.00000000000E+00 0. -1.
         -5    1    5    5    0  502 -0.11950200434E+02  0.20507475560E+02  0.33136470875E+03  0.33224693234E+03  0.47000000000E+01 0.  1.
         13    1    6    6    0    0 -0.40440994721E+01  0.28734022685E+01 -0.72264171292E+01  0.87654027667E+01  0.00000000000E+00 0. -1.
        -14    1    6    6    0    0 -0.95218071151E+02 -0.90589617663E+01  0.19140401137E+03  0.21397205759E+03  0.00000000000E+00 0.  1.
</event>
<event>
12    1  0.8133506E-002  0.2854559E+03  0.7818608E-02  0.1092901E+00
         21   -1    0    0  503  502  0.00000000000E+00  0.00000000000E+00  0.53496027847E+03  0.53496027847E+03  0.00000000000E+00 0. -1.
         21   -1    0    0  501  503 -0.00000000000E+00 -0.00000000000E+00 -0.28119939898E+03  0.28119939898E+03  0.00000000000E+00 0.  1.
          6    2    1    2  501    0 -0.18253390758E+03  0.13376361389E+03 -0.14991209616E+03  0.32242629467E+03  0.17399352604E+03 0.  0.
         24    2    3    3    0    0 -0.84155955457E+02  0.57465972428E+02 -0.15013022293E+03  0.19784022348E+03  0.78848635773E+02 0.  0.
         -6    2    1    2    0  502  0.18253390758E+03 -0.13376361389E+03  0.40367297565E+03  0.49373338277E+03  0.17207396715E+03 0.  0.
        -24    2    5    5    0    0  0.19949687071E+03 -0.83850361044E+02  0.31756278115E+03  0.39265850693E+03  0.80651711849E+02 0.  0.
          5    1    3    3  501    0 -0.98377952123E+02  0.76297641464E+02  0.21812676989E+00  0.12458607120E+03  0.47000000000E+01 0. -1.
        -13    1    4    4    0    0 -0.61057028255E+02  0.77129282821E+02 -0.11859325491E+03  0.15408194923E+03  0.00000000000E+00 0.  1.
         14    1    4    4    0    0 -0.23098927202E+02 -0.19663310393E+02 -0.31536968015E+02  0.43758274247E+02  0.00000000000E+00 0. -1.
         -5    1    5    5    0  502 -0.16962963131E+02 -0.49913252849E+02  0.86110194501E+02  0.10107487584E+03  0.47000000000E+01 0.  1.
         13    1    6    6    0    0  0.46627621194E+02 -0.53675793853E+02  0.13549484034E+03  0.15301659277E+03  0.00000000000E+00 0. -1.
        -14    1    6    6    0    0  0.15286924952E+03 -0.30174567192E+02  0.18206794081E+03  0.23964191416E+03  0.00000000000E+00 0.  1.
</event>
<event>
12    1  0.8133506E-002  0.2113761E+03  0.7818608E-02  0.1140559E+00
         21   -1    0    0  501  502  0.00000000000E+00  0.00000000000E+00  0.78371406939E+02  0.78371406939E+02  0.00000000000E+00 0. -1.
         21   -1    0    0  502  503 -0.00000000000E+00 -0.00000000000E+00 -0.69144518636E+03  0.69144518636E+03  0.00000000000E+00 0. -1.
         -6    2    1    2    0  503  0.45528154546E+02 -0.11377170833E+03 -0.46825635327E+03  0.51359021129E+03  0.17173840071E+03 0.  0.
        -24    2    3    3    0    0  0.65724298820E+02 -0.34068612393E+02 -0.36795480121E+03  0.38380978483E+03  0.80242516118E+02 0.  0.
          6    2    1    2  501    0 -0.45528154546E+02  0.11377170833E+03 -0.14481742614E+03  0.25622638201E+03  0.17222966484E+03 0.  0.
         24    2    5    5    0    0  0.20115182042E+02  0.69739437305E+02 -0.14309724384E+03  0.17702450351E+03  0.74783982154E+02 0.  0.
          5    1    5    5  501    0 -0.65643336588E+02  0.44032271020E+02 -0.17201823076E+01  0.79201878493E+02  0.47000000000E+01 0. -1.
        -13    1    6    6    0    0 -0.15947257485E+01 -0.14805260297E+02 -0.10290072757E+02  0.18100399996E+02  0.00000000000E+00 0.  1.
         14    1    6    6    0    0  0.21709907790E+02  0.84544697602E+02 -0.13280717108E+03  0.15892410352E+03  0.00000000000E+00 0. -1.
         -5    1    3    3    0  503 -0.20196144274E+02 -0.79703095932E+02 -0.10030155206E+03  0.12978042645E+03  0.47000000000E+01 0.  1.
         11    1    4    4    0    0  0.83909844473E+02 -0.23759593258E+02 -0.31583781659E+03  0.32765669024E+03  0.00000000000E+00 0. -1.
        -12    1    4    4    0    0 -0.18185545652E+02 -0.10309019136E+02 -0.52116984620E+02  0.56153094591E+02  0.00000000000E+00 0.  1.
</event>
<event>
12    1  0.8133506E-002  0.1835143E+03  0.7818608E-02  0.1165071E+00
         21   -1    0    0  503  502  0.00000000000E+00  0.00000000000E+00  0.30823930176E+03  0.30823930176E+03  0.00000000000E+00 0. -1.
         21   -1    0    0  501  503 -0.00000000000E+00 -0.00000000000E+00 -0.10769914020E+03  0.10769914020E+03  0.00000000000E+00 0. -1.
          6    2    1    2  501    0  0.35203201364E+02 -0.48233066403E+02  0.10249631142E+03  0.21019751426E+03  0.17352753979E+03 0.  0.
         24    2    3    3    0    0  0.48358122416E+02  0.20768856521E+02  0.10178549834E+03  0.13979216950E+03  0.80073151405E+02 0.  0.
         -6    2    1    2    0  502 -0.35203201364E+02  0.48233066403E+02  0.98043850136E+02  0.20574092770E+03  0.17073675264E+03 0.  0.
        -24    2    5    5    0    0 -0.50800921764E+02  0.51714812032E+02  0.13053337713E+03  0.16922968562E+03  0.79652799798E+02 0.  0.
          5    1    3    3  501    0 -0.13154921052E+02 -0.69001922924E+02  0.71081307659E+00  0.70405344757E+02  0.47000000000E+01 0. -1.
        -11    1    4    4    0    0  0.43841691997E+02 -0.18841725528E+02  0.82956749588E+02  0.95702282524E+02  0.00000000000E+00 0.  1.
         12    1    4    4    0    0  0.45164304192E+01  0.39610582049E+02  0.18828748756E+02  0.44089886978E+02  0.00000000000E+00 0. -1.
         -5    1    5    5    0  502  0.15597720400E+02 -0.34817456286E+01 -0.32489526992E+02  0.36511242083E+02  0.47000000000E+01 0.  1.
         11    1    6    6    0    0  0.11711373814E+01  0.33818389873E+02  0.77655361847E+01  0.34718274850E+02  0.00000000000E+00 0. -1.
        -12    1    6    6    0    0 -0.51972059146E+02  0.17896422159E+02  0.12276784094E+03  0.13451141077E+03  0.00000000000E+00 0.  1.
</event>
<event>
12    1  0.8133506E-002  0.1798366E+03  0.7818608E-02  0.1168280E+00
         21   -1    0    0  501  502  0.00000000000E+00  0.00000000000E+00  0.12591929930E+04  0.12591929930E+04  0.00000000000E+00 0. -1.
         21   -1    0    0  502  503 -0.00000000000E+00 -0.00000000000E+00 -0.83118678094E+02  0.83118678094E+02  0.00000000000E+00 0. -1.
         -6    2    1    2    0  503  0.17828357939E+02  0.44727519988E+02  0.28565037098E+02  0.18079596126E+03  0.17190932748E+03 0.  0.
        -24    2    3    3    0    0 -0.30360026412E+02  0.24540880209E+02 -0.37423367306E+02  0.96497798010E+02  0.79920776993E+02 0.  0.
          6    2    1    2  501    0 -0.17828357939E+02 -0.44727519988E+02  0.11475092778E+04  0.11615157098E+04  0.17327088659E+03 0.  0.
         24    2    5    5    0    0 -0.18714544580E+02 -0.93919435916E+02  0.67373153843E+03  0.68516702846E+03  0.79803360741E+02 0.  0.
          5    1    5    5  501    0  0.88618664170E+00  0.49191915928E+02  0.47377773939E+03  0.47634868139E+03  0.47000000000E+01 0. -1.
        -11    1    6    6    0    0 -0.29278905197E+02 -0.80683512700E+02  0.32874735646E+03  0.33976743207E+03  0.00000000000E+00 0.  1.
         12    1    6    6    0    0  0.10564360617E+02 -0.13235923216E+02  0.34498418197E+03  0.34539959639E+03  0.00000000000E+00 0. -1.
         -5    1    3    3    0  503  0.48188384351E+02  0.20186639780E+02  0.65988404403E+02  0.84298163251E+02  0.47000000000E+01 0.  1.
         13    1    4    4    0    0  0.19706064854E+02 -0.15307504206E+02 -0.10927219197E+02  0.27240646035E+02  0.00000000000E+00 0. -1.
        -14    1    4    4    0    0 -0.50066091265E+02  0.39848384415E+02 -0.26496148109E+02  0.69257151975E+02  0.00000000000E+00 0.  1.
</event>
<event>
12    1  0.8133506E-002  0.1797641E+03  0.7818608E-02  0.1168048E+00
         21   -1    0    0  501  502  0.00000000000E+00  0.00000000000E+00  0.46844889282E+02  0.46844889282E+02  0.00000000000E+00 0.  1.
         21   -1    0    0  502  503 -0.00000000000E+00 -0.00000000000E+00 -0.22172360887E+04  0.22172360887E+04  0.00000000000E+00 0.  1.
         -6    2    1    2    0  503  0.49755895872E+02 -0.86821710037E+01 -0.20247896257E+04  0.20327480041E+04  0.17245402472E+03 0.  0.
        -24    2    3    3    0    0  0.49395201404E+02  0.10328114071E+02 -0.19941343737E+04  0.19963700504E+04  0.79843108995E+02 0.  0.
          6    2    1    2  501    0 -0.49755895872E+02  0.86821710037E+01 -0.14560157367E+03  0.23133297381E+03  0.17252274416E+03 0.  0.
         24    2    5    5    0    0 -0.62714818688E+02 -0.46542418749E+02 -0.55437883185E+02  0.12470619446E+03  0.79868209057E+02 0.  0.
          5    1    5    5  501    0  0.12958922816E+02  0.55224589753E+02 -0.90163690485E+02  0.10662677936E+03  0.47000000000E+01 0. -1.
        -11    1    6    6    0    0 -0.11387107362E+02  0.14312203325E+02  0.10715472152E+02  0.21197328170E+02  0.00000000000E+00 0.  1.
         12    1    6    6    0    0 -0.51327711326E+02 -0.60854622075E+02 -0.66153355337E+02  0.10350886629E+03  0.00000000000E+00 0. -1.
         -5    1    3    3    0  503  0.36069446805E+00 -0.19010285075E+02 -0.30655252024E+02  0.36377953705E+02  0.47000000000E+01 0.  1.
         11    1    4    4    0    0  0.51349880920E+02 -0.20251796446E+02 -0.83054996931E+03  0.83238224215E+03  0.00000000000E+00 0. -1.
        -12    1    4    4    0    0 -0.19546795154E+01  0.30579910517E+02 -0.11635844044E+04  0.11639878083E+04  0.00000000000E+00 0.  1.
</event>
<event>
12    1  0.8133506E-002  0.2339325E+03  0.7818608E-02  0.1124166E+00
         21   -1    0    0  501  502  0.00000000000E+00  0.00000000000E+00  0.10602036724E+03  0.10602036724E+03  0.00000000000E+00 0.  1.
         21   -1    0    0  502  503 -0.00000000000E+00 -0.00000000000E+00 -0.55320531419E+03  0.55320531419E+03  0.00000000000E+00 0.  1.
         -6    2    1    2    0  503 -0.83742531662E+02  0.13435116155E+03 -0.31334480776E+03  0.39103626491E+03  0.17222469539E+03 0.  0.
        -24    2    3    3    0    0 -0.20332439799E+02  0.13152125536E+03 -0.16206118145E+03  0.22690926010E+03  0.86676046651E+02 0.  0.
          6    2    1    2  501    0  0.83742531662E+02 -0.13435116155E+03 -0.13384013919E+03  0.26818941652E+03  0.17014503829E+03 0.  0.
         24    2    5    5    0    0 -0.12492099297E+02 -0.26589281680E+02 -0.56915721482E+01  0.75011073570E+02  0.68783898694E+02 0.  0.
          5    1    5    5  501    0  0.96234630960E+02 -0.10776187987E+03 -0.12814856704E+03  0.19317834295E+03  0.47000000000E+01 0. -1.
        -13    1    6    6    0    0  0.22774193992E+02 -0.31804213010E+02 -0.19592231022E+01  0.39166445234E+02  0.00000000000E+00 0.  1.
         14    1    6    6    0    0 -0.35266293289E+02  0.52149313293E+01 -0.37323490460E+01  0.35844628336E+02  0.00000000000E+00 0. -1.
         -5    1    3    3    0  503 -0.63410091863E+02  0.28299061877E+01 -0.15128362631E+03  0.16412700481E+03  0.47000000000E+01 0.  1.
         13    1    4    4    0    0  0.17484856945E+02 -0.22948615943E+01 -0.31844169589E+02  0.36401067965E+02  0.00000000000E+00 0. -1.
        -14    1    4    4    0    0 -0.37817296744E+02  0.13381611696E+03 -0.13021701186E+03  0.19050819213E+03  0.00000000000E+00 0.  1.
</event>
<event>
12    1  0.8133506E-002  0.2281168E+03  0.7818608E-02  0.1128419E+00
         21   -1    0    0  503  502  0.00000000000E+00  0.00000000000E+00  0.32474087583E+03  0.32474087583E+03  0.00000000000E+00 0. -1.
         21   -1    0    0  501  503 -0.00000000000E+00 -0.00000000000E+00 -0.18630012421E+03  0.18630012421E+03  0.00000000000E+00 0.  1.
          6    2    1    2  501    0  0.28828329031E+02 -0.14462561489E+03 -0.29170458877E+02  0.22997428025E+03  0.17403911303E+03 0.  0.
         24    2    3    3    0    0  0.83415815461E+02 -0.92892554193E+02 -0.35610013066E+02  0.15434583915E+03  0.83470594459E+02 0.  0.
         -6    2    1    2    0  502 -0.28828329031E+02  0.14462561489E+03  0.16761121049E+03  0.28106671980E+03  0.17075521092E+03 0.  0.
        -24    2    5    5    0    0 -0.43101622730E+02  0.17093752545E+03  0.15284668464E+03  0.24736026977E+03  0.82143816368E+02 0.  0.
          5    1    3    3  501    0 -0.54587486431E+02 -0.51733060701E+02  0.64395541884E+01  0.75628441095E+02  0.47000000000E+01 0. -1.
        -11    1    4    4    0    0  0.36087383710E+02  0.82137545359E+01 -0.18602111762E+02  0.41422259579E+02  0.00000000000E+00 0.  1.
         12    1    4    4    0    0  0.47328431752E+02 -0.10110630873E+03 -0.17007901304E+02  0.11292357957E+03  0.00000000000E+00 0. -1.
         -5    1    5    5    0  502  0.14273293700E+02 -0.26311910551E+02  0.14764525855E+02  0.33706450030E+02  0.47000000000E+01 0.  1.
         13    1    6    6    0    0 -0.16071743862E+02  0.52611240228E+02  0.10175006435E+03  0.11566900685E+03  0.00000000000E+00 0. -1.
        -14    1    6    6    0    0 -0.27029878869E+02  0.11832628522E+03  0.51096620281E+02  0.13169126292E+03  0.00000000000E+00 0.  1.
</event>
<event>
12    1  0.8133506E-002  0.2197249E+03  0.7818608E-02  0.1134187E+00
         21   -1    0    0  503  502  0.00000000000E+00  0.00000000000E+00  0.50084428980E+02  0.50084428980E+02  0.00000000000E+00 0.  1.
         21   -1    0    0  501  503 -0.00000000000E+00 -0.00000000000E+00 -0.11553507261E+04  0.11553507261E+04  0.00000000000E+00 0. -1.
          6    2    1    2  501    0 -0.14502095536E+02 -0.13588163525E+03 -0.79998176282E+03  0.82960824129E+03  0.17206069744E+03 0.  0.
         24    2    3    3    0    0  0.10058491816E+02 -0.31292068718E+02 -0.56072594646E+03  0.56729614561E+03  0.79567348645E+02 0.  0.
         -6    2    1    2    0  502  0.14502095536E+02  0.13588163525E+03 -0.30528453430E+03  0.37582691378E+03  0.17138580066E+03 0.  0.
        -24    2    5    5    0    0  0.54926738711E+02  0.28567406321E+02 -0.17583493628E+03  0.20282464809E+03  0.79917893664E+02 0.  0.
          5    1    3    3  501    0 -0.24560587352E+02 -0.10458956654E+03 -0.23925581636E+03  0.26231209568E+03  0.47000000000E+01 0. -1.
        -13    1    4    4    0    0  0.72636786146E+01  0.58651586090E+01 -0.55294425856E+01  0.10850615090E+02  0.00000000000E+00 0.  1.
         14    1    4    4    0    0  0.27948132013E+01 -0.37157227327E+02 -0.55519650387E+03  0.55644553052E+03  0.00000000000E+00 0. -1.
         -5    1    5    5    0  502 -0.40424643175E+02  0.10731422893E+03 -0.12944959802E+03  0.17300226569E+03  0.47000000000E+01 0.  1.
         13    1    6    6    0    0  0.46399950123E+02 -0.13242602985E+01 -0.33781085105E+02  0.57409674686E+02  0.00000000000E+00 0. -1.
        -14    1    6    6    0    0  0.85267885886E+01  0.29891666620E+02 -0.14205385117E+03  0.14541497340E+03  0.00000000000E+00 0.  1.
</event>
<event>
12    1  0.8133506E-002  0.2378645E+03  0.7818608E-02  0.1121757E+00
         21   -1    0    0  503  502  0.00000000000E+00  0.00000000000E+00  0.22489786930E+03  0.22489786930E+03  0.00000000000E+00 0.  1.
         21   -1    0    0  501  503 -0.00000000000E+00 -0.00000000000E+00 -0.28009230080E+03  0.28009230080E+03  0.00000000000E+00 0.  1.
          6    2    1    2  501    0  0.10696113240E+03 -0.12114820569E+03  0.57355377009E+02  0.24468177319E+03  0.17453354771E+03 0.  0.
         24    2    3    3    0    0  0.10919318495E+03 -0.18862647567E+02  0.29408815887E+02  0.13851954951E+03  0.77742112340E+02 0.  0.
         -6    2    1    2    0  502 -0.10696113240E+03  0.12114820569E+03 -0.11254980851E+03  0.26030839691E+03  0.17022170989E+03 0.  0.
        -24    2    5    5    0    0 -0.38171836164E+01  0.86570451138E+01 -0.49170150049E+02  0.94984452828E+02  0.80714480128E+02 0.  0.
          5    1    3    3  501    0 -0.22320525533E+01 -0.10228555813E+03  0.27946561123E+02  0.10616222369E+03  0.47000000000E+01 0. -1.
        -11    1    4    4    0    0  0.86985438817E+02 -0.42083823369E+02  0.40150871191E+02  0.10464037086E+03  0.00000000000E+00 0.  1.
         12    1    4    4    0    0  0.22207746132E+02  0.23221175802E+02 -0.10742055304E+02  0.33879178650E+02  0.00000000000E+00 0. -1.
         -5    1    5    5    0  502 -0.10314394878E+03  0.11249116058E+03 -0.63379658462E+02  0.16532394408E+03  0.47000000000E+01 0.  1.
         11    1    6    6    0    0 -0.22005667790E+02  0.39529515082E+02 -0.24174147022E+02  0.51295432173E+02  0.00000000000E+00 0. -1.
        -12    1    6    6    0    0  0.18188484174E+02 -0.30872469969E+02 -0.24996003027E+02  0.43689020655E+02  0.00000000000E+00 0.  1.
</event>
<event>
12    1  0.8133506E-002  0.1773578E+03  0.7818608E-02  0.1170403E+00
         21   -1    0    0  501  502  0.00000000000E+00  0.00000000000E+00  0.56840174768E+02  0.56840174768E+02  0.00000000000E+00 0. -1.
         21   -1    0    0  502  503 -0.00000000000E+00 -0.00000000000E+00 -0.67774552919E+03  0.67774552919E+03  0.00000000000E+00 0. -1.
         -6    2    1    2    0  503 -0.34221635783E+02  0.27262617279E+02 -0.46796761762E+03  0.50044927087E+03  0.17187614991E+03 0.  0.
        -24    2    3    3    0    0 -0.87374584357E+02  0.34920574032E+02 -0.31143378316E+03  0.33489320310E+03  0.79427273047E+02 0.  0.
          6    2    1    2  501    0  0.34221635783E+02 -0.27262617279E+02 -0.15293773680E+03  0.23413643309E+03  0.17180089437E+03 0.  0.
         24    2    5    5    0    0  0.24158290809E+02  0.44123886782E+02 -0.12868291420E+03  0.15792822951E+03  0.76495051273E+02 0.  0.
          5    1    5    5  501    0  0.10063344974E+02 -0.71386504061E+02 -0.24254822597E+02  0.76208203583E+02  0.47000000000E+01 0. -1.
        -13    1    6    6    0    0  0.41894682353E+02  0.57606364308E+01 -0.94638966323E+02  0.10365752885E+03  0.00000000000E+00 0.  1.
         14    1    6    6    0    0 -0.17736391544E+02  0.38363250351E+02 -0.34043947880E+02  0.54270700656E+02  0.00000000000E+00 0. -1.
         -5    1    3    3    0  503  0.53152948574E+02 -0.76579567527E+01 -0.15653383446E+03  0.16555606777E+03  0.47000000000E+01 0.  1.
         13    1    4    4    0    0 -0.66111563074E+02 -0.54683425326E+01 -0.24816462905E+03  0.25687803459E+03  0.00000000000E+00 0. -1.
        -14    1    4    4    0    0 -0.21263021283E+02  0.40388916565E+02 -0.63269154106E+02  0.78015168504E+02  0.00000000000E+00 0.  1.
</event>
<event>
12    1  0.8133506E-002  0.1807532E+03  0.7818608E-02  0.1167327E+00
         21   -1    0    0  501  502  0.00000000000E+00  0.00000000000E+00  0.11914534637E+03  0.11914534637E+03  0.00000000000E+00 0.  1.
         21   -1    0    0  502  503 -0.00000000000E+00 -0.00000000000E+00 -0.52962392270E+03  0.52962392270E+03  0.00000000000E+00 0. -1.
         -6    2    1    2    0  503  0.44191383422E+02  0.31461547475E+02 -0.43089205150E+03  0.46686699990E+03  0.17133046491E+03 0.  0.
        -24    2    3    3    0    0  0.61708056602E+02  0.18628045189E+01 -0.13350163716E+03  0.16745746771E+03  0.80049747507E+02 0.  0.
          6    2    1    2  501    0 -0.44191383422E+02 -0.31461547475E+02  0.20413475175E+02  0.18190226917E+03  0.17242104924E+03 0.  0.
         24    2    5    5    0    0  0.97178241784E+01  0.22813928525E+02 -0.31567786494E+02  0.89294647865E+02  0.79762757925E+02 0.  0.
          5    1    5    5  501    0 -0.53909207601E+02 -0.54275476000E+02  0.51981261668E+02  0.92607621305E+02  0.47000000000E+01 0. -1.
        -13    1    6    6    0    0 -0.13377734303E+02  0.17391976124E+02  0.21776038317E+02  0.30913434836E+02  0.00000000000E+00 0.  1.
         14    1    6    6    0    0  0.23095558481E+02  0.54219524012E+01 -0.53343824810E+02  0.58381213030E+02  0.00000000000E+00 0. -1.
         -5    1    3    3    0  503 -0.17516673179E+02  0.29598742956E+02 -0.29739041434E+03  0.29940953219E+03  0.47000000000E+01 0.  1.
         13    1    4    4    0    0  0.15658657077E+02 -0.10443884052E+02 -0.11467375153E+03  0.11620816471E+03  0.00000000000E+00 0. -1.
        -14    1    4    4    0    0  0.46049399525E+02  0.12306688571E+02 -0.18827885630E+02  0.51249302995E+02  0.00000000000E+00 0.  1.
</event>
<event>
12    1  0.8133506E-002  0.3203130E+03  0.7818608E-02  0.1075543E+00
         21   -1    0    0  501  502  0.00000000000E+00  0.00000000000E+00  0.82308159066E+02  0.82308159066E+02  0.00000000000E+00 0. -1.
         21   -1    0    0  502  503 -0.00000000000E+00 -0.00000000000E+00 -0.17650813602E+04  0.17650813602E+04  0.00000000000E+00 0. -1.
         -6    2    1    2    0  503 -0.19684135668E+03 -0.18491013445E+03 -0.13423555964E+04  0.13799662068E+04  0.17160975224E+03 0.  0.
        -24    2    3    3    0    0 -0.24546269896E+02 -0.38012418496E+02 -0.32052313063E+03  0.33333914137E+03  0.79576645915E+02 0.  0.
          6    2    1    2  501    0  0.19684135668E+03  0.18491013445E+03 -0.34041760464E+03  0.46742331243E+03  0.17222697212E+03 0.  0.
         24    2    5    5    0    0  0.62198938434E+02  0.16914241417E+02 -0.91104481721E+02  0.13798390354E+03  0.81146358765E+02 0.  0.
          5    1    5    5  501    0  0.13464241825E+03  0.16799589303E+03 -0.24931312292E+03  0.32943940889E+03  0.47000000000E+01 0. -1.
        -13    1    6    6    0    0  0.68968510299E+02 -0.17808780507E+01 -0.95311189083E+02  0.11766073986E+03  0.00000000000E+00 0.  1.
         14    1    6    6    0    0 -0.67695718650E+01  0.18695119468E+02  0.42067073617E+01  0.20323163680E+02  0.00000000000E+00 0. -1.
         -5    1    3    3    0  503 -0.17229508679E+03 -0.14689771595E+03 -0.10218324658E+04  0.10466270654E+04  0.47000000000E+01 0.  1.
         13    1    4    4    0    0 -0.51683890261E+02 -0.30043516324E+02 -0.25603007283E+03  0.26291678451E+03  0.00000000000E+00 0. -1.
        -14    1    4    4    0    0  0.27137620365E+02 -0.79689021720E+01 -0.64493057803E+02  0.70422356860E+02  0.00000000000E+00 0.  1.
</event>
<event>
12    1  0.8133506E-002  0.2221177E+03  0.7818608E-02  0.1132604E+00
         21   -1    0    0  501  502  0.00000000000E+00  0.00000000000E+00  0.41074383973E+03  0.41074383973E+03  0.00000000000E+00 0.  1.
         21   -1    0    0  502  503 -0.00000000000E+00 -0.00000000000E+00 -0.21298743824E+03  0.21298743824E+03  0.00000000000E+00 0.  1.
         -6    2    1    2    0  503 -0.73262809865E+02  0.11482306307E+03 -0.10779909521E+03  0.24689454559E+03  0.17545511276E+03 0.  0.
        -24    2    3    3    0    0 -0.90611229864E+02  0.14161030092E+03 -0.76975899191E+02  0.20227747262E+03  0.82018379456E+02 0.  0.
          6    2    1    2  501    0  0.73262809865E+02 -0.11482306307E+03  0.30555549671E+03  0.37683673237E+03  0.17346465397E+03 0.  0.
         24    2    5    5    0    0  0.35726846609E+02  0.11624039798E+02  0.10469680910E+03  0.13649505737E+03  0.79107224567E+02 0.  0.
          5    1    5    5  501    0  0.37535963256E+02 -0.12644710286E+03  0.20085868760E+03  0.24034167501E+03  0.47000000000E+01 0. -1.
        -13    1    6    6    0    0  0.54102623778E+02 -0.10616782164E+02  0.48964466649E+02  0.73738246232E+02  0.00000000000E+00 0.  1.
         14    1    6    6    0    0 -0.18375777168E+02  0.22240821962E+02  0.55732342455E+02  0.62756811134E+02  0.00000000000E+00 0. -1.
         -5    1    3    3    0  503  0.17348419998E+02 -0.26787237851E+02 -0.30823196021E+02  0.44617072977E+02  0.47000000000E+01 0.  1.
         11    1    4    4    0    0 -0.39857391725E+02  0.30295315451E+02  0.11412843232E+02  0.51348522900E+02  0.00000000000E+00 0. -1.
        -12    1    4    4    0    0 -0.50753838139E+02  0.11131498547E+03 -0.88388742424E+02  0.15092894972E+03  0.00000000000E+00 0.  1.
</event>
<event>
12    1  0.8133506E-002  0.1744512E+03  0.7818608E-02  0.1173327E+00
         21   -1    0    0  501  502  0.00000000000E+00  0.00000000000E+00  0.43133746352E+03  0.43133746352E+03  0.00000000000E+00 0. -1.
         21   -1    0    0  502  503 -0.00000000000E+00 -0.00000000000E+00 -0.99318416545E+02  0.99318416545E+02  0.00000000000E+00 0. -1.
         -6    2    1    2    0  503 -0.22113989783E+01  0.28716939600E+02  0.22994791462E+02  0.17579084147E+03  0.17188399170E+03 0.  0.
        -24    2    3    3    0    0  0.47245877877E+02 -0.17574876151E+01 -0.30423028420E+02  0.96732214934E+02  0.78716573914E+02 0.  0.
          6    2    1    2  501    0  0.22113989783E+01 -0.28716939600E+02  0.30902425552E+03  0.35486503860E+03  0.17205711906E+03 0.  0.
         24    2    5    5    0    0 -0.50287593943E+02 -0.19454205669E+02  0.92335232320E+02  0.13166520601E+03  0.76828530653E+02 0.  0.
          5    1    5    5  501    0  0.52498992922E+02 -0.92627339308E+01  0.21668902320E+03  0.22319983260E+03  0.47000000000E+01 0. -1.
        -11    1    6    6    0    0 -0.34795167864E+02 -0.40953558595E+02  0.24934371926E+02  0.59242050704E+02  0.00000000000E+00 0.  1.
         12    1    6    6    0    0 -0.15492426079E+02  0.21499352926E+02  0.67400860394E+02  0.72423155302E+02  0.00000000000E+00 0. -1.
         -5    1    3    3    0  503 -0.49457276855E+02  0.30474427215E+02  0.53417819882E+02  0.79058626531E+02  0.47000000000E+01 0.  1.
         11    1    4    4    0    0 -0.48126789049E+01 -0.27597108494E+02  0.53028869852E+01  0.28511101099E+02  0.00000000000E+00 0. -1.
        -12    1    4    4    0    0  0.52058556782E+02  0.25839620879E+02 -0.35725915405E+02  0.68221113835E+02  0.00000000000E+00 0.  1.
</event>
<event>
12    1  0.8133506E-002  0.1933699E+03  0.7818608E-02  0.1155610E+00
         21   -1    0    0  501  502  0.00000000000E+00  0.00000000000E+00  0.43748994885E+03  0.43748994885E+03  0.00000000000E+00 0.  1.
         21   -1    0    0  502  503 -0.00000000000E+00 -0.00000000000E+00 -0.87367122788E+02  0.87367122788E+02  0.00000000000E+00 0.  1.
         -6    2    1    2    0  503 -0.88313331769E+02  0.10841884077E+02  0.13367220765E+03  0.23507481984E+03  0.17168319897E+03 0.  0.
        -24    2    3    3    0    0 -0.14116821272E+02  0.58377343594E+02  0.98014070349E+02  0.13989953504E+03  0.79736585268E+02 0.  0.
          6    2    1    2  501    0  0.88313331769E+02 -0.10841884077E+02  0.21645061841E+03  0.28978225179E+03  0.17089790000E+03 0.  0.
         24    2    5    5    0    0  0.58437281453E+02  0.33974795099E+02  0.21090700746E+03  0.23543213922E+03  0.79858148073E+02 0.  0.
          5    1    5    5  501    0  0.29876050317E+02 -0.44816679176E+02  0.55436109503E+01  0.54350112578E+02  0.47000000000E+01 0. -1.
        -13    1    6    6    0    0  0.25139565942E+02 -0.14687806258E+02  0.14101722212E+03  0.14399161908E+03  0.00000000000E+00 0.  1.
         14    1    6    6    0    0  0.33297715511E+02  0.48662601356E+02  0.69889785339E+02  0.91440520141E+02  0.00000000000E+00 0. -1.
         -5    1    3    3    0  503 -0.74196510497E+02 -0.47535459516E+02  0.35658137299E+02  0.95175284801E+02  0.47000000000E+01 0.  1.
         11    1    4    4    0    0  0.24320898578E+02  0.15949554819E+02  0.33586536834E+01  0.29277550463E+02  0.00000000000E+00 0. -1.
        -12    1    4    4    0    0 -0.38437719850E+02  0.42427788775E+02  0.94655416666E+02  0.11062198458E+03  0.00000000000E+00 0.  1.
</event>
<event>
12    1  0.8133506E-002  0.2164795E+03  0.7818608E-02  0.1137475E+00
         21   -1    0    0  501  502  0.00000000000E+00  0.00000000000E+00  0.10015054408E+03  0.10015054408E+03  0.00000000000E+00 0. -1.
         21   -1    0    0  502  503 -0.00000000000E+00 -0.00000000000E+00 -0.51027785407E+03  0.51027785407E+03  0.00000000000E+00 0. -1.
         -6    2    1    2    0  503 -0.13327960122E+03 -0.59920447141E+00 -0.30116922643E+03  0.36807483935E+03  0.16435441360E+03 0.  0.
        -24    2    3    3    0    0 -0.15202631102E+03 -0.24461509842E+02 -0.21305976679E+03  0.27476773553E+03  0.79952983428E+02 0.  0.
          6    2    1    2  501    0  0.13327960122E+03  0.59920447141E+00 -0.10895808357E+03  0.24235355879E+03  0.17058596759E+03 0.  0.
         24    2    5    5    0    0  0.11542034823E+03  0.58693373134E+02 -0.55148948074E+02  0.16104305263E+03  0.78273172241E+02 0.  0.
          5    1    5    5  501    0  0.17859252991E+02 -0.58094168662E+02 -0.53809135493E+02  0.81310506162E+02  0.47000000000E+01 0. -1.
        -13    1    6    6    0    0  0.16255651187E+02  0.65981928612E+00 -0.42431433519E+02  0.45443460558E+02  0.00000000000E+00 0.  1.
         14    1    6    6    0    0  0.99164697040E+02  0.58033553848E+02 -0.12717514555E+02  0.11559959207E+03  0.00000000000E+00 0. -1.
         -5    1    3    3    0  503  0.18746709798E+02  0.23862305370E+02 -0.88109459632E+02  0.93307103816E+02  0.47000000000E+01 0.  1.
         13    1    4    4    0    0 -0.10455673989E+02 -0.26853269048E+02 -0.18893047011E+02  0.34458183390E+02  0.00000000000E+00 0. -1.
        -14    1    4    4    0    0 -0.14157063703E+03  0.23917592066E+01 -0.19416671978E+03  0.24030955214E+03  0.00000000000E+00 0.  1.
</event>
<event>
12    1  0.8133506E-002  0.2281906E+03  0.7818608E-02  0.1128982E+00
         21   -1    0    0  503  502  0.00000000000E+00  0.00000000000E+00  0.65369300982E+03  0.65369300982E+03  0.00000000000E+00 0.  1.
         21   -1    0    0  501  503 -0.00000000000E+00 -0.00000000000E+00 -0.10279919299E+04  0.10279919299E+04  0.00000000000E+00 0.  1.
          6    2    1    2  501    0 -0.97338102689E+01  0.14091201147E+03 -0.99543754071E+03  0.10199568127E+04  0.17165389671E+03 0.  0.
         24    2    3    3    0    0  0.16764648929E+02  0.13944210360E+03 -0.96809795424E+03  0.98156577262E+03  0.80824274017E+02 0.  0.
         -6    2    1    2    0  502  0.97338102689E+01 -0.14091201147E+03  0.62113862065E+03  0.66172812702E+03  0.17922049541E+03 0.  0.
        -24    2    5    5    0    0  0.59913924544E+02 -0.29595931928E+02  0.27741306927E+03  0.29692865044E+03  0.82115862724E+02 0.  0.
          5    1    3    3  501    0 -0.26498459198E+02  0.14699078757E+01 -0.27339586468E+02  0.38391040065E+02  0.47000000000E+01 0. -1.
        -13    1    4    4    0    0 -0.23260539643E+02  0.28432034470E+02 -0.12619423987E+03  0.13143218580E+03  0.00000000000E+00 0.  1.
         14    1    4    4    0    0  0.40025188572E+02  0.11101006913E+03 -0.84190371437E+03  0.85013358682E+03  0.00000000000E+00 0. -1.
         -5    1    5    5    0  502 -0.50180114276E+02 -0.11131607954E+03  0.34372555139E+03  0.36479947658E+03  0.47000000000E+01 0.  1.
         11    1    6    6    0    0  0.11990356902E+02  0.22739272907E+02  0.29839303740E+02  0.39385622233E+02  0.00000000000E+00 0. -1.
        -12    1    6    6    0    0  0.47923567643E+02 -0.52335204835E+02  0.24757376553E+03  0.25754302821E+03  0.00000000000E+00 0.  1.
</event>
<event>
12    1  0.8133506E-002  0.2081766E+03  0.7818608E-02  0.1143115E+00
         21   -1    0    0  503  502  0.00000000000E+00  0.00000000000E+00  0.16270779829E+03  0.16270779829E+03  0.00000000000E+00 0. -1.
         21   -1    0    0  501  503 -0.00000000000E+00 -0.00000000000E+00 -0.70030605861E+03  0.70030605861E+03  0.00000000000E+00 0. -1.
          6    2    1    2  501    0 -0.48194568497E+02  0.10733093180E+03 -0.60859915596E+03  0.64306247564E+03  0.17115422749E+03 0.  0.
         24    2    3    3    0    0 -0.67573178406E+02  0.11090725894E+02 -0.29331158080E+03  0.31281097632E+03  0.84438645373E+02 0.  0.
         -6    2    1    2    0  502  0.48194568497E+02 -0.10733093180E+03  0.71000895638E+02  0.21995138126E+03  0.17174061134E+03 0.  0.
        -24    2    5    5    0    0  0.13893117405E+02 -0.10457872961E+03  0.10659383152E+03  0.17022099569E+03  0.80518401983E+02 0.  0.
          5    1    3    3  501    0  0.19378609909E+02  0.96240205908E+02 -0.31528757516E+03  0.33025149932E+03  0.47000000000E+01 0. -1.
        -13    1    4    4    0    0 -0.68428141593E+02  0.93401776287E+01 -0.11262395643E+03  0.13211284965E+03  0.00000000000E+00 0.  1.
         14    1    4    4    0    0  0.85496318742E+00  0.17505482650E+01 -0.18068762438E+03  0.18069812667E+03  0.00000000000E+00 0. -1.
         -5    1    5    5    0  502  0.34301451092E+02 -0.27522021889E+01 -0.35592935884E+02  0.49730385568E+02  0.47000000000E+01 0.  1.
         11    1    6    6    0    0 -0.23504841575E+01 -0.77160378636E+02  0.22679267097E+02  0.80458672392E+02  0.00000000000E+00 0. -1.
        -12    1    6    6    0    0  0.16243601562E+02 -0.27418350977E+02  0.83914564424E+02  0.89762323302E+02  0.00000000000E+00 0.  1.
</event>
<event>
12    1  0.8133506E-002  0.2754831E+03  0.7818608E-02  0.1098340E+00
         21   -1    0    0  503  502  0.00000000000E+00  0.00000000000E+00  0.27361564886E+03  0.27361564886E+03  0.00000000000E+00 0.  1.
         21   -1    0    0  501  503 -0.00000000000E+00 -0.00000000000E+00 -0.34404358910E+03  0.34404358910E+03  0.00000000000E+00 0.  1.
          6    2    1    2  501    0 -0.19938021000E+03  0.76206121844E+02 -0.17239035860E+03  0.32497597679E+03  0.17415828605E+03 0.  0.
         24    2    3    3    0    0 -0.19323734981E+02  0.15388912761E+02 -0.77703299176E+02  0.11259237021E+03  0.77646724062E+02 0.  0.
         -6    2    1    2    0  502  0.19938021000E+03 -0.76206121844E+02  0.10196241837E+03  0.29268326118E+03  0.17235810241E+03 0.  0.
        -24    2    5    5    0    0  0.11187080263E+03 -0.11342064424E+03  0.58425497306E+02  0.18799147281E+03  0.80919318415E+02 0.  0.
          5    1    3    3  501    0 -0.18005647502E+03  0.60817209083E+02 -0.94687059427E+02  0.21238360657E+03  0.47000000000E+01 0. -1.
        -13    1    4    4    0    0 -0.39090537310E+02  0.35739219737E+02 -0.53767230017E+02  0.75473683879E+02  0.00000000000E+00 0.  1.
         14    1    4    4    0    0  0.19766802329E+02 -0.20350306976E+02 -0.23936069159E+02  0.37118686333E+02  0.00000000000E+00 0. -1.
         -5    1    5    5    0  502  0.87509407369E+02  0.37214522395E+02  0.43536921064E+02  0.10469178836E+03  0.47000000000E+01 0.  1.
         13    1    6    6    0    0  0.23667955006E+02 -0.16630007029E+02  0.48746936137E+02  0.56683269231E+02  0.00000000000E+00 0. -1.
        -14    1    6    6    0    0  0.88202847627E+02 -0.96790637210E+02  0.96785611690E+01  0.13130820358E+03  0.00000000000E+00 0.  1.
</event>
<event>
12    1  0.8133506E-002  0.1793366E+03  0.7818608E-02  0.1168646E+00
         21   -1    0    0  503  502  0.00000000000E+00  0.00000000000E+00  0.35988238020E+03  0.35988238020E+03  0.00000000000E+00 0. -1.
         21   -1    0    0  501  503 -0.00000000000E+00 -0.00000000000E+00 -0.22102554709E+03  0.22102554709E+03  0.00000000000E+00 0. -1.
          6    2    1    2  501    0 -0.47708690241E+02 -0.38309831003E+01 -0.15515300207E+03  0.23651949721E+03  0.17198320544E+03 0.  0.
         24    2    3    3    0    0  0.81072786292E+01 -0.65749302531E+02 -0.85720589724E+02  0.12792736791E+03  0.68034500124E+02 0.  0.
         -6    2    1    2    0  502  0.47708690241E+02  0.38309831003E+01  0.29400983518E+03  0.34438843009E+03  0.17283174488E+03 0.  0.
        -24    2    5    5    0    0 -0.50065217971E+02  0.78566486639E+01  0.13080879022E+03  0.15403976529E+03  0.63632198730E+02 0.  0.
          5    1    3    3  501    0 -0.55815968870E+02  0.61918319431E+02 -0.69432412342E+02  0.10859212930E+03  0.47000000000E+01 0. -1.
        -11    1    4    4    0    0  0.22995282052E+02 -0.26757364550E+02 -0.31670678625E+01  0.35422731024E+02  0.00000000000E+00 0.  1.
         12    1    4    4    0    0 -0.14888003423E+02 -0.38991937981E+02 -0.82553521861E+02  0.92504636884E+02  0.00000000000E+00 0. -1.
         -5    1    5    5    0  502  0.97773908212E+02 -0.40256655636E+01  0.16320104497E+03  0.19034866479E+03  0.47000000000E+01 0.  1.
         13    1    6    6    0    0  0.14019900678E+02  0.47432214356E+01  0.41599218984E+02  0.44153717677E+02  0.00000000000E+00 0. -1.
        -14    1    6    6    0    0 -0.64085118649E+02  0.31134272283E+01  0.89209571234E+02  0.10988604762E+03  0.00000000000E+00 0.  1.
</event>
<event>
12    1  0.8133506E-002  0.1972578E+03  0.7818608E-02  0.1152158E+00
         21   -1    0    0  503  502  0.00000000000E+00  0.00000000000E+00  0.14420353384E+03  0.14420353384E+03  0.00000000000E+00 0. -1.
         21   -1    0    0  501  503 -0.00000000000E+00 -0.00000000000E+00 -0.56350478820E+03  0.56350478820E+03  0.00000000000E+00 0. -1.
          6    2    1    2  501    0 -0.66735964074E+02 -0.69360235958E+02 -0.46543578990E+03  0.50551074394E+03  0.17218044746E+03 0.  0.
         24    2    3    3    0    0 -0.24942598773E+02 -0.95764439288E+02 -0.21903143976E+03  0.25415231240E+03  0.82617584277E+02 0.  0.
         -6    2    1    2    0  502  0.66735964074E+02  0.69360235958E+02  0.46134535537E+02  0.20219757810E+03  0.17172924617E+03 0.  0.
        -24    2    5    5    0    0 -0.27030542371E+02  0.75437947011E+01  0.18085323062E+02  0.86343020745E+02  0.79627126420E+02 0.  0.
          5    1    3    3  501    0 -0.41793365301E+02  0.26404203330E+02 -0.24640435014E+03  0.25135843154E+03  0.47000000000E+01 0. -1.
        -11    1    4    4    0    0  0.12347010048E+02 -0.64646964887E+02 -0.64434048344E+02  0.92105511845E+02  0.00000000000E+00 0.  1.
         12    1    4    4    0    0 -0.37289608822E+02 -0.31117474401E+02 -0.15459739141E+03  0.16204680056E+03  0.00000000000E+00 0. -1.
         -5    1    5    5    0  502  0.93766506445E+02  0.61816441257E+02  0.28049212475E+02  0.11585455736E+03  0.47000000000E+01 0.  1.
         11    1    6    6    0    0 -0.49274751992E+02  0.23105644514E+02  0.13259803848E+01  0.54439234164E+02  0.00000000000E+00 0. -1.
        -12    1    6    6    0    0  0.22244209622E+02 -0.15561849813E+02  0.16759342677E+02  0.31903786582E+02  0.00000000000E+00 0.  1.
</event>
<event>
12    1  0.8133506E-002  0.1967292E+03  0.7818608E-02  0.1152550E+00
         21   -1    0    0  501  502  0.00000000000E+00  0.00000000000E+00  0.25646980056E+03  0.25646980056E+03  0.00000000000E+00 0.  1.
         21   -1    0    0  502  503 -0.00000000000E+00 -0.00000000000E+00 -0.20324987017E+03  0.20324987017E+03  0.00000000000E+00 0. -1.
         -6    2    1    2    0  503 -0.95724350395E+02 -0.10274464565E+02 -0.90132050525E+02  0.21630199205E+03  0.17144692868E+03 0.  0.
        -24    2    3    3    0    0  0.99599239523E-01  0.37845091300E+02 -0.45930591210E+02  0.10022624099E+03  0.80643780405E+02 0.  0.
          6    2    1    2  501    0  0.95724350395E+02  0.10274464565E+02  0.14335198091E+03  0.24341767868E+03  0.17156240842E+03 0.  0.
         24    2    5    5    0    0  0.10485090926E+03  0.59623391453E+02  0.87998665687E+02  0.16855320000E+03  0.78216073070E+02 0.  0.
          5    1    5    5  501    0 -0.91265588657E+01 -0.49348926888E+02  0.55353315227E+02  0.74864478682E+02  0.47000000000E+01 0. -1.
        -13    1    6    6    0    0 -0.39420022095E+01 -0.83545730554E+01  0.22907290735E+02  0.24699842938E+02  0.00000000000E+00 0.  1.
         14    1    6    6    0    0  0.10879291147E+03  0.67977964508E+02  0.65091374952E+02  0.14385335706E+03  0.00000000000E+00 0. -1.
         -5    1    3    3    0  503 -0.95823949634E+02 -0.48119555865E+02 -0.44201459315E+02  0.11607575107E+03  0.47000000000E+01 0.  1.
         13    1    4    4    0    0  0.97851338499E+01 -0.33209279856E+01 -0.55842176211E+02  0.56790193265E+02  0.00000000000E+00 0. -1.
        -14    1    4    4    0    0 -0.96855346104E+01  0.41166019286E+02  0.99115850004E+01  0.43436047723E+02  0.00000000000E+00 0.  1.
</event>
<event>
12    1  0.8133506E-002  0.1921466E+03  0.7818608E-02  0.1156590E+00
         21   -1    0    0  503  502  0.00000000000E+00  0.00000000000E+00  0.16301680707E+04  0.16301680707E+04  0.00000000000E+00 0. -1.
         21   -1    0    0  501  503 -0.00000000000E+00 -0.00000000000E+00 -0.13303652170E+03  0.13303652170E+03  0.00000000000E+00 0. -1.
          6    2    1    2  501    0 -0.75387216361E+02 -0.46232566245E+02 -0.54517874408E+02  0.19973108419E+03  0.17058612133E+03 0.  0.
         24    2    3    3    0    0 -0.80578772867E+01 -0.61617894608E+02 -0.77609164537E+02  0.12675680167E+03  0.78628302969E+02 0.  0.
         -6    2    1    2    0  502  0.75387216361E+02  0.46232566245E+02  0.15516494234E+04  0.15634735082E+04  0.17033142743E+03 0.  0.
        -24    2    5    5    0    0  0.75504007975E+02  0.54743094358E+02  0.15483746729E+04  0.15532140384E+04  0.79448473102E+02 0.  0.
          5    1    3    3  501    0 -0.67329339074E+02  0.15385328363E+02  0.23091290129E+02  0.72974282517E+02  0.47000000000E+01 0. -1.
        -11    1    4    4    0    0 -0.30248360761E+02 -0.68926694707E+02 -0.48980648560E+02  0.89805102891E+02  0.00000000000E+00 0.  1.
         12    1    4    4    0    0  0.22190483474E+02  0.73088000994E+01 -0.28628515978E+02  0.36951698781E+02  0.00000000000E+00 0. -1.
         -5    1    5    5    0  502 -0.11679161433E+00 -0.85105281129E+01  0.32747504675E+01  0.10259469756E+02  0.47000000000E+01 0.  1.
         11    1    6    6    0    0  0.71446934635E+02  0.39719434506E+01  0.88936294242E+03  0.89223701120E+03  0.00000000000E+00 0. -1.
        -12    1    6    6    0    0  0.40570733406E+01  0.50771150907E+02  0.65901173048E+03  0.66097702723E+03  0.00000000000E+00 0.  1.
</event>
<event>
12    1  0.8133506E-002  0.1741460E+03  0.7818608E-02  0.1174516E+00
         21   -1    0    0  503  502  0.00000000000E+00  0.00000000000E+00  0.11145802374E+03  0.11145802374E+03  0.00000000000E+00 0. -1.
         21   -1    0    0  501  503 -0.00000000000E+00 -0.00000000000E+00 -0.46777849532E+03  0.46777849532E+03  0.00000000000E+00 0. -1.
          6    2    1    2  501    0  0.30424128643E+01  0.25489808538E+02 -0.36921082942E+03  0.40821989350E+03  0.17224360155E+03 0.  0.
         24    2    3    3    0    0 -0.41755865232E+02  0.78282499517E+01 -0.10331441640E+03  0.13795741215E+03  0.80953969341E+02 0.  0.
         -6    2    1    2    0  502 -0.30424128643E+01 -0.25489808538E+02  0.12890357835E+02  0.17101662556E+03  0.16858688644E+03 0.  0.
        -24    2    5    5    0    0  0.54665400148E+02  0.22194655762E+02  0.52863036468E+01  0.95624905472E+02  0.75068427602E+02 0.  0.
          5    1    3    3  501    0  0.44798278096E+02  0.17661558586E+02 -0.26589641301E+03  0.27026248135E+03  0.47000000000E+01 0. -1.
        -11    1    4    4    0    0  0.57009879934E+01 -0.24143608606E+02 -0.63702562573E+02  0.68362501263E+02  0.00000000000E+00 0.  1.
         12    1    4    4    0    0 -0.47456853225E+02  0.31971858557E+02 -0.39611853831E+02  0.69594910889E+02  0.00000000000E+00 0. -1.
         -5    1    5    5    0  502 -0.57707813012E+02 -0.47684464300E+02  0.76040541879E+01  0.75391720091E+02  0.47000000000E+01 0.  1.
         13    1    6    6    0    0  0.63128070193E+00  0.38793132952E+02  0.48234671782E+01  0.39096950203E+02  0.00000000000E+00 0. -1.
        -14    1    6    6    0    0  0.54034119446E+02 -0.16598477190E+02  0.46283646852E+00  0.56527955269E+02  0.00000000000E+00 0.  1.
</event>
<event>
12    1  0.8133506E-002  0.2252554E+03  0.7818608E-02  0.1132508E+00
         21   -1    0    0  501  502  0.00000000000E+00  0.00000000000E+00  0.43445842337E+03  0.43445842337E+03  0.00000000000E+00 0.  1.
         21   -1    0    0  502  503 -0.00000000000E+00 -0.00000000000E+00 -0.14624511568E+03  0.14624511568E+03  0.00000000000E+00 0. -1.
         -6    2    1    2    0  503  0.11911173589E+03 -0.48372808145E+02  0.29190761895E+03  0.36871405761E+03  0.18496611604E+03 0.  0.
        -24    2    3    3    0    0  0.36828925390E+02 -0.77245558425E+01  0.25732691437E+03  0.27052721303E+03  0.74510359164E+02 0.  0.
          6    2    1    2  501    0 -0.11911173589E+03  0.48372808145E+02 -0.36943112693E+01  0.21198948144E+03  0.16851812398E+03 0.  0.
         24    2    5    5    0    0 -0.33700546705E+00  0.26617433190E+02  0.32360730858E+02  0.85883220729E+02  0.74967388769E+02 0.  0.
          5    1    5    5  501    0 -0.11877473042E+03  0.21755374955E+02 -0.36055042128E+02  0.12610626071E+03  0.47000000000E+01 0. -1.
        -11    1    6    6    0    0  0.48245920610E+01  0.50942636904E+02  0.33208608613E+02  0.61001972339E+02  0.00000000000E+00 0.  1.
         12    1    6    6    0    0 -0.51615975280E+01 -0.24325203714E+02 -0.84787775448E+00  0.24881248390E+02  0.00000000000E+00 0. -1.
         -5    1    3    3    0  503  0.82282810500E+02 -0.40648252302E+02  0.34580704582E+02  0.98186844579E+02  0.47000000000E+01 0.  1.
         13    1    4    4    0    0 -0.17239867422E+02 -0.20970755252E+02  0.10098419042E+03  0.10456955733E+03  0.00000000000E+00 0. -1.
        -14    1    4    4    0    0  0.54068792812E+02  0.13246199410E+02  0.15634272395E+03  0.16595765570E+03  0.00000000000E+00 0.  1.
</event>
<event>
12    1  0.8133506E-002  0.1887315E+03  0.7818608E-02  0.1159780E+00
         21   -1    0    0  501  502  0.00000000000E+00  0.00000000000E+00  0.58723581924E+03  0.58723581924E+03  0.00000000000E+00 0. -1.
         21   -1    0    0  502  503 -0.00000000000E+00 -0.00000000000E+00 -0.68224110386E+02  0.68224110386E+02  0.00000000000E+00 0. -1.
         -6    2    1    2    0  503 -0.73134749510E+02  0.17890378151E+02  0.14818726058E+03  0.23937059517E+03  0.17224999395E+03 0.  0.
        -24    2    3    3    0    0  0.22160955203E+02 -0.10748853659E+02  0.49288904546E+02  0.98998048839E+02  0.82247016797E+02 0.  0.
          6    2    1    2  501    0  0.73134749510E+02 -0.17890378151E+02  0.37082444827E+03  0.41608933446E+03  0.17306301049E+03 0.  0.
         24    2    5    5    0    0  0.37426399889E+02  0.51028323528E+02  0.26445643819E+03  0.28432774202E+03  0.83068838754E+02 0.  0.
          5    1    5    5  501    0  0.35708349621E+02 -0.68918701680E+02  0.10636801009E+03  0.13176159245E+03  0.47000000000E+01 0. -1.
        -13    1    6    6    0    0  0.14452019728E+02  0.67915588696E+02  0.13548256085E+03  0.15223965435E+03  0.00000000000E+00 0.  1.
         14    1    6    6    0    0  0.22974380160E+02 -0.16887265168E+02  0.12897387733E+03  0.13208808767E+03  0.00000000000E+00 0. -1.
         -5    1    3    3    0  503 -0.95295704713E+02  0.28639231810E+02  0.98898356039E+02  0.14037254633E+03  0.47000000000E+01 0.  1.
         13    1    4    4    0    0 -0.14058463964E+02  0.35544281517E+01 -0.16859915360E+02  0.22238055546E+02  0.00000000000E+00 0. -1.
        -14    1    4    4    0    0  0.36219419167E+02 -0.14303281810E+02  0.66148819906E+02  0.76759993293E+02  0.00000000000E+00 0.  1.
</event>
<event>
12    1  0.8133506E-002  0.1741450E+03  0.7818608E-02  0.1173631E+00
         21   -1    0    0  503  502  0.00000000000E+00  0.00000000000E+00  0.32471320822E+04  0.32471320822E+04  0.00000000000E+00 0. -1.
         21   -1    0    0  501  503 -0.00000000000E+00 -0.00000000000E+00 -0.93316249626E+01  0.93316249626E+01  0.00000000000E+00 0. -1.
          6    2    1    2  501    0 -0.23492233974E+02 -0.15492857291E+02  0.16274476955E+04  0.16367383700E+04  0.17185626683E+03 0.  0.
         24    2    3    3    0    0 -0.42138035205E+02 -0.12781863343E+02  0.43981746842E+03  0.44894938969E+03  0.78594903998E+02 0.  0.
         -6    2    1    2    0  502  0.23492233974E+02  0.15492857291E+02  0.16103527618E+04  0.16197253372E+04  0.17170392260E+03 0.  0.
        -24    2    5    5    0    0 -0.17985434125E+01  0.55644354755E+02  0.14240888925E+04  0.14274544731E+04  0.80607507509E+02 0.  0.
          5    1    3    3  501    0  0.18645801231E+02 -0.27109939484E+01  0.11876302271E+04  0.11877889803E+04  0.47000000000E+01 0. -1.
        -13    1    4    4    0    0 -0.27104937593E+02 -0.45654287856E+02  0.23069675670E+03  0.23672766039E+03  0.00000000000E+00 0.  1.
         14    1    4    4    0    0 -0.15033097612E+02  0.32872424513E+02  0.20912071172E+03  0.21222172930E+03  0.00000000000E+00 0. -1.
         -5    1    5    5    0  502  0.25290777387E+02 -0.40151497464E+02  0.18626386931E+03  0.19227086409E+03  0.47000000000E+01 0.  1.
         13    1    6    6    0    0 -0.72602175202E+01 -0.17010598114E+02  0.12916578524E+03  0.13048322223E+03  0.00000000000E+00 0. -1.
        -14    1    6    6    0    0  0.54616741076E+01  0.72654952869E+02  0.12949231072E+04  0.12969712509E+04  0.00000000000E+00 0.  1.
</event>
<event>
12    1  0.8133506E-002  0.2042559E+03  0.7818608E-02  0.1146271E+00
         21   -1    0    0  501  502  0.00000000000E+00  0.00000000000E+00  0.11615550518E+03  0.11615550518E+03  0.00000000000E+00 0. -1.
         21   -1    0    0  502  503 -0.00000000000E+00 -0.00000000000E+00 -0.37718626146E+03  0.37718626146E+03  0.00000000000E+00 0.  1.
         -6    2    1    2    0  503  0.40735386879E+02 -0.10172881261E+03 -0.18545649146E+03  0.27588873785E+03  0.17237274260E+03 0.  0.
        -24    2    3    3    0    0 -0.18403706859E+02 -0.65829392327E+02 -0.40639412366E+02  0.11532636000E+03  0.83524859488E+02 0.  0.
          6    2    1    2  501    0 -0.40735386879E+02  0.10172881261E+03 -0.75574264810E+02  0.21745302878E+03  0.17194832703E+03 0.  0.
         24    2    5    5    0    0 -0.50967995987E+02  0.52301340353E+02 -0.11157089002E+03  0.15527885144E+03  0.79563128304E+02 0.  0.
          5    1    5    5  501    0  0.10232609109E+02  0.49427472252E+02  0.35996625211E+02  0.62174177349E+02  0.47000000000E+01 0. -1.
        -13    1    6    6    0    0 -0.64555296626E+02  0.13515643392E+02 -0.58536289101E+02  0.88184783724E+02  0.00000000000E+00 0.  1.
         14    1    6    6    0    0  0.13587300638E+02  0.38785696962E+02 -0.53034600920E+02  0.67094067712E+02  0.00000000000E+00 0. -1.
         -5    1    3    3    0  503  0.59139093737E+02 -0.35899420279E+02 -0.14481707910E+03  0.16056237786E+03  0.47000000000E+01 0.  1.
         13    1    4    4    0    0  0.79449846452E+01 -0.18446422341E+02  0.23781145686E+02  0.31127739531E+02  0.00000000000E+00 0. -1.
        -14    1    4    4    0    0 -0.26348691504E+02 -0.47382969986E+02 -0.64420558052E+02  0.84198620466E+02  0.00000000000E+00 0.  1.
</event>
<event>
12    1  0.8133506E-002  0.2669681E+03  0.7818608E-02  0.1103083E+00
         21   -1    0    0  501  502  0.00000000000E+00  0.00000000000E+00  0.25923149794E+04  0.25923149794E+04  0.00000000000E+00 0. -1.
         21   -1    0    0  502  503 -0.00000000000E+00 -0.00000000000E+00 -0.33856107678E+02  0.33856107678E+02  0.00000000000E+00 0.  1.
         -6    2    1    2    0  503 -0.17108119461E+03 -0.10964675315E+03  0.70897736513E+03  0.75757565171E+03  0.17314958319E+03 0.  0.
        -24    2    3    3    0    0 -0.13455685839E+02 -0.58745177726E+02  0.29624974862E+03  0.31282521963E+03  0.80396847526E+02 0.  0.
          6    2    1    2  501    0  0.17108119461E+03  0.10964675315E+03  0.18494815066E+04  0.18685954354E+04  0.17255686674E+03 0.  0.
         24    2    5    5    0    0  0.10374855949E+03  0.20797444105E+02  0.61431670182E+03  0.62840106818E+03  0.79414073578E+02 0.  0.
          5    1    5    5  501    0  0.67332635125E+02  0.88849309043E+02  0.12351648048E+04  0.12401943672E+04  0.47000000000E+01 0. -1.
        -13    1    6    6    0    0  0.19330126973E+01 -0.16390223037E+02  0.31207940531E+02  0.35303137276E+02  0.00000000000E+00 0.  1.
         14    1    6    6    0    0  0.10181554679E+03  0.37187667142E+02  0.58310876129E+03  0.59309793091E+03  0.00000000000E+00 0. -1.
         -5    1    3    3    0  503 -0.15762550877E+03 -0.50901575422E+02  0.41272761651E+03  0.44475043207E+03  0.47000000000E+01 0.  1.
         11    1    4    4    0    0 -0.20106108440E+02 -0.30148956989E+02  0.27294675157E+03  0.27534186823E+03  0.00000000000E+00 0. -1.
        -12    1    4    4    0    0  0.66504226014E+01 -0.28596220737E+02  0.23302997051E+02  0.37483351408E+02  0.00000000000E+00 0.  1.
</event>
<event>
12    1  0.8133506E-002  0.2303631E+03  0.7818608E-02  0.1126773E+00
         21   -1    0    0  501  502  0.00000000000E+00  0.00000000000E+00  0.39941964543E+03  0.39941964543E+03  0.00000000000E+00 0. -1.
         21   -1    0    0  502  503 -0.00000000000E+00 -0.00000000000E+00 -0.13865989461E+03  0.13865989461E+03  0.00000000000E+00 0.  1.
         -6    2    1    2    0  503 -0.15201465148E+03  0.24530987224E+02  0.69049397440E+02  0.23837962965E+03  0.16836509420E+03 0.  0.
        -24    2    3    3    0    0 -0.76399418095E+02  0.29108927499E+02  0.10303019211E+03  0.15522071273E+03  0.82426017918E+02 0.  0.
          6    2    1    2  501    0  0.15201465148E+03 -0.24530987224E+02  0.19171035337E+03  0.29969991039E+03  0.17133870870E+03 0.  0.
         24    2    5    5    0    0  0.18116433652E+03 -0.13634917595E+02  0.15666445875E+03  0.25259647951E+03  0.79087299970E+02 0.  0.
          5    1    5    5  501    0 -0.29149685044E+02 -0.10896069630E+02  0.35045894620E+02  0.47103430886E+02  0.47000000000E+01 0. -1.
        -11    1    6    6    0    0  0.13932276285E+03 -0.38806768119E+02  0.91399809733E+02  0.17108688646E+03  0.00000000000E+00 0.  1.
         12    1    6    6    0    0  0.41841573670E+02  0.25171850524E+02  0.65264649021E+02  0.81509593042E+02  0.00000000000E+00 0. -1.
         -5    1    3    3    0  503 -0.75615233383E+02 -0.45779402743E+01 -0.33980794667E+02  0.83158916917E+02  0.47000000000E+01 0.  1.
         13    1    4    4    0    0 -0.69933540775E+02  0.20063326847E+02  0.25799299292E+02  0.77193529867E+02  0.00000000000E+00 0. -1.
        -14    1    4    4    0    0 -0.64658773208E+01  0.90456006517E+01  0.77230892815E+02  0.78027182864E+02  0.00000000000E+00 0.  1.
</event>
<event>
12    1  0.8133506E-002  0.2162275E+03  0.7818608E-02  0.1136855E+00
         21   -1    0    0  503  502  0.00000000000E+00  0.00000000000E+00  0.28805683166E+02  0.28805683166E+02  0.00000000000E+00 0.  1.
         21   -1    0    0  501  503 -0.00000000000E+00 -0.00000000000E+00 -0.20889155659E+04  0.20889155659E+04  0.00000000000E+00 0.  1.
          6    2    1    2  501    0 -0.12672190259E+03 -0.22080482606E+02 -0.15340004102E+04  0.15491648059E+04  0.17380549150E+03 0.  0.
         24    2    3    3    0    0 -0.14207347204E+03 -0.75044750588E+01 -0.15001739016E+04  0.15089845450E+04  0.79192381547E+02 0.  0.
         -6    2    1    2    0  502  0.12672190259E+03  0.22080482606E+02 -0.52610947255E+03  0.56855644323E+03  0.17297185820E+03 0.  0.
        -24    2    5    5    0    0  0.95698377010E+02  0.79868194580E+02 -0.39884871390E+03  0.42531095644E+03  0.79195992462E+02 0.  0.
          5    1    3    3  501    0  0.15351569456E+02 -0.14576007547E+02 -0.33826508613E+02  0.40180260897E+02  0.47000000000E+01 0. -1.
        -11    1    4    4    0    0 -0.79228025261E+02  0.24972200560E+02 -0.10506041844E+04  0.10538832208E+04  0.00000000000E+00 0.  1.
         12    1    4    4    0    0 -0.62845446781E+02 -0.32476675618E+02 -0.44956971721E+03  0.45510132418E+03  0.00000000000E+00 0. -1.
         -5    1    5    5    0  502  0.31023525575E+02 -0.57787711974E+02 -0.12726075865E+03  0.14324548679E+03  0.47000000000E+01 0.  1.
         13    1    6    6    0    0  0.35626774971E+02  0.40093884236E+02 -0.28905971573E+03  0.29399371746E+03  0.00000000000E+00 0. -1.
        -14    1    6    6    0    0  0.60071602039E+02  0.39774310344E+02 -0.10978899818E+03  0.13131723899E+03  0.00000000000E+00 0.  1.
</event>
<event>
12    1  0.8133506E-002  0.2275547E+03  0.7818608E-02  0.1129049E+00
         21   -1    0    0  501  502  0.00000000000E+00  0.00000000000E+00  0.79738175974E+02  0.79738175974E+02  0.00000000000E+00 0. -1.
         21   -1    0    0  502  503 -0.00000000000E+00 -0.00000000000E+00 -0.83065885938E+03  0.83065885938E+03  0.00000000000E+00 0. -1.
         -6    2    1    2    0  503  0.12112954797E+03  0.77408338815E+02 -0.59667557743E+03  0.63859447263E+03  0.17639936924E+03 0.  0.
        -24    2    3    3    0    0  0.15499254901E+01 -0.62800892474E+01 -0.24370309612E+03  0.25660664342E+03  0.80087006436E+02 0.  0.
          6    2    1    2  501    0 -0.12112954797E+03 -0.77408338815E+02 -0.15424510598E+03  0.27180256272E+03  0.17152452325E+03 0.  0.
         24    2    5    5    0    0 -0.75871456995E+02 -0.11898275595E+03 -0.11283919229E+03  0.19755118801E+03  0.79877496000E+02 0.  0.
          5    1    5    5  501    0 -0.45258090972E+02  0.41574417134E+02 -0.41405913687E+02  0.74251374713E+02  0.47000000000E+01 0. -1.
        -13    1    6    6    0    0  0.34624077912E+01 -0.27150692863E+02 -0.58499294519E+02  0.64585724815E+02  0.00000000000E+00 0.  1.
         14    1    6    6    0    0 -0.79333864786E+02 -0.91832063086E+02 -0.54339897771E+02  0.13296546319E+03  0.00000000000E+00 0. -1.
         -5    1    3    3    0  503  0.11957962248E+03  0.83688428063E+02 -0.35297248131E+03  0.38198782921E+03  0.47000000000E+01 0.  1.
         13    1    4    4    0    0 -0.37294153084E+02  0.92378648120E+01 -0.12300336057E+03  0.12886434229E+03  0.00000000000E+00 0. -1.
        -14    1    4    4    0    0  0.38844078574E+02 -0.15517954059E+02 -0.12069973555E+03  0.12774230114E+03  0.00000000000E+00 0.  1.
</event>
<event>
12    1  0.8133506E-002  0.2303594E+03  0.7818608E-02  0.1126605E+00
         21   -1    0    0  501  502  0.00000000000E+00  0.00000000000E+00  0.21269477484E+03  0.21269477484E+03  0.00000000000E+00 0. -1.
         21   -1    0    0  502  503 -0.00000000000E+00 -0.00000000000E+00 -0.44528867608E+03  0.44528867608E+03  0.00000000000E+00 0. -1.
         -6    2    1    2    0  503 -0.32482274125E+02  0.15005091816E+03 -0.33502297404E+03  0.40587794960E+03  0.17007686692E+03 0.  0.
        -24    2    3    3    0    0  0.53697404701E+01  0.36217169412E+01 -0.11092455845E+03  0.13547736555E+03  0.77510695810E+02 0.  0.
          6    2    1    2  501    0  0.32482274125E+02 -0.15005091816E+03  0.10242907279E+03  0.25210550132E+03  0.17174135398E+03 0.  0.
         24    2    5    5    0    0  0.39441347943E+02 -0.97845130524E+01  0.66884762701E+02  0.10716212930E+03  0.73203783043E+02 0.  0.
          5    1    5    5  501    0 -0.69590738182E+01 -0.14026640511E+03  0.35544310093E+02  0.14494337202E+03  0.47000000000E+01 0. -1.
        -13    1    6    6    0    0 -0.21809837962E+02 -0.23476821529E+01  0.15392948402E+02  0.26797826478E+02  0.00000000000E+00 0.  1.
         14    1    6    6    0    0  0.61251185906E+02 -0.74368308995E+01  0.51491814299E+02  0.80364302825E+02  0.00000000000E+00 0. -1.
         -5    1    3    3    0  503 -0.37852014595E+02  0.14642920122E+03 -0.22409841560E+03  0.27040058405E+03  0.47000000000E+01 0.  1.
         11    1    4    4    0    0 -0.18417165458E+02  0.34316429750E+02 -0.56011013581E+02  0.68220546587E+02  0.00000000000E+00 0. -1.
        -12    1    4    4    0    0  0.23786905928E+02 -0.30694712809E+02 -0.54913544864E+02  0.67256818967E+02  0.00000000000E+00 0.  1.
</event>
<event>
12    1  0.8133506E-002  0.1730009E+03  0.7818608E-02  0.1175316E+00
         21   -1    0    0  501  502  0.00000000000E+00  0.00000000000E+00  0.28394719147E+02  0.28394719147E+02  0.00000000000E+00 0.  1.
         21   -1    0    0  502  503 -0.00000000000E+00 -0.00000000000E+00 -0.20652337226E+04  0.20652337226E+04  0.00000000000E+00 0.  1.
         -6    2    1    2    0  503  0.11960845498E+01 -0.18491830555E+02 -0.17589706648E+04  0.17674578094E+04  0.17200561049E+03 0.  0.
        -24    2    3    3    0    0  0.50138498348E+02 -0.13981873876E+02 -0.15200056660E+04  0.15234453912E+04  0.88086738987E+02 0.  0.
          6    2    1    2  501    0 -0.11960845498E+01  0.18491830555E+02 -0.27786833872E+03  0.32617063239E+03  0.16980308995E+03 0.  0.
         24    2    5    5    0    0 -0.21835839742E+01 -0.14740873638E+02 -0.49430105116E+02  0.95277790678E+02  0.80077841568E+02 0.  0.
          5    1    5    5  501    0  0.98749942441E+00  0.33232704192E+02 -0.22843823360E+03  0.23089284171E+03  0.47000000000E+01 0. -1.
        -11    1    6    6    0    0 -0.31920053509E+02 -0.20739864702E+02 -0.93672586835E+00  0.38077674026E+02  0.00000000000E+00 0.  1.
         12    1    6    6    0    0  0.29736469535E+02  0.59989910644E+01 -0.48493379248E+02  0.57200116653E+02  0.00000000000E+00 0. -1.
         -5    1    3    3    0  503 -0.48942413798E+02 -0.45099566784E+01 -0.23896499877E+03  0.24401241816E+03  0.47000000000E+01 0.  1.
         13    1    4    4    0    0 -0.18576170701E+01  0.41034443805E+01 -0.29349455520E+01  0.53761419583E+01  0.00000000000E+00 0. -1.
        -14    1    4    4    0    0  0.51996115418E+02 -0.18085318257E+02 -0.15170707204E+04  0.15180692493E+04  0.00000000000E+00 0.  1.
</event>
<event>
12    1  0.8133506E-002  0.2159973E+03  0.7818608E-02  0.1137263E+00
         21   -1    0    0  501  502  0.00000000000E+00  0.00000000000E+00  0.54013285357E+02  0.54013285357E+02  0.00000000000E+00 0. -1.
         21   -1    0    0  502  503 -0.00000000000E+00 -0.00000000000E+00 -0.14056956747E+04  0.14056956747E+04  0.00000000000E+00 0. -1.
         -6    2    1    2    0  503 -0.20768675261E+02 -0.12703270442E+03 -0.11339330433E+04  0.11543218635E+04  0.17345365946E+03 0.  0.
        -24    2    3    3    0    0 -0.23529491282E+02 -0.15397912783E+03 -0.79535058073E+03  0.81462507840E+03  0.82269455598E+02 0.  0.
          6    2    1    2  501    0  0.20768675261E+02  0.12703270442E+03 -0.21774934599E+03  0.30538709651E+03  0.17110772973E+03 0.  0.
         24    2    5    5    0    0 -0.13353423189E+02  0.71574925398E+01 -0.12823213390E+03  0.15186248843E+03  0.79932419062E+02 0.  0.
          5    1    5    5  501    0  0.34122098451E+02  0.11987521188E+03 -0.89517212083E+02  0.15352460808E+03  0.47000000000E+01 0. -1.
        -11    1    6    6    0    0  0.33535844174E+02  0.62221831441E+01 -0.47142610097E+02  0.58187576804E+02  0.00000000000E+00 0.  1.
         12    1    6    6    0    0 -0.46889267363E+02  0.93530939570E+00 -0.81089523804E+02  0.93674911627E+02  0.00000000000E+00 0. -1.
         -5    1    3    3    0  503  0.27608160202E+01  0.26946423414E+02 -0.33858246258E+03  0.33969678510E+03  0.47000000000E+01 0.  1.
         13    1    4    4    0    0 -0.49323527006E+02 -0.11172036870E+03 -0.64096053780E+03  0.65249112034E+03  0.00000000000E+00 0. -1.
        -14    1    4    4    0    0  0.25794035724E+02 -0.42258759131E+02 -0.15439004292E+03  0.16213395806E+03  0.00000000000E+00 0.  1.
</event>
<event>
12    1  0.8133506E-002  0.2144222E+03  0.7818608E-02  0.1138201E+00
         21   -1    0    0  503  502  0.00000000000E+00  0.00000000000E+00  0.36122903351E+02  0.36122903351E+02  0.00000000000E+00 0.  1.
         21   -1    0    0  501  503 -0.00000000000E+00 -0.00000000000E+00 -0.15498398382E+04  0.15498398382E+04  0.00000000000E+00 0.  1.
          6    2    1    2  501    0 -0.31922985769E+02  0.12409775151E+03 -0.10931199340E+04  0.11138624154E+04  0.17134456934E+03 0.  0.
         24    2    3    3    0    0  0.35048091343E+02  0.23039365175E+02 -0.38266169552E+03  0.39311910381E+03  0.79708691541E+02 0.  0.
         -6    2    1    2    0  502  0.31922985769E+02 -0.12409775151E+03 -0.42059700087E+03  0.47210032615E+03  0.17192309866E+03 0.  0.
        -24    2    5    5    0    0 -0.25409706583E+02 -0.10074989513E+03 -0.17867229976E+03  0.22233681596E+03  0.81937015287E+02 0.  0.
          5    1    3    3  501    0 -0.66971077113E+02  0.10105838634E+03 -0.71045823847E+03  0.72074331161E+03  0.47000000000E+01 0. -1.
        -13    1    4    4    0    0 -0.11164837791E+02  0.39253170602E+02 -0.15846968259E+03  0.16364017021E+03  0.00000000000E+00 0.  1.
         14    1    4    4    0    0  0.46212929134E+02 -0.16213805428E+02 -0.22419201293E+03  0.22947893360E+03  0.00000000000E+00 0. -1.
         -5    1    5    5    0  502  0.57332692353E+02 -0.23347856380E+02 -0.24192470112E+03  0.24976351018E+03  0.47000000000E+01 0.  1.
         13    1    6    6    0    0 -0.37717171301E+02 -0.24087942221E+02 -0.27873996263E+02  0.52723558672E+02  0.00000000000E+00 0. -1.
        -14    1    6    6    0    0  0.12307464718E+02 -0.76661952909E+02 -0.15079830350E+03  0.16961325729E+03  0.00000000000E+00 0.  1.
</event>
<event>
12    1  0.8133506E-002  0.2028570E+03  0.7818608E-02  0.1147634E+00
         21   -1    0    0  503  502  0.00000000000E+00  0.00000000000E+00  0.11405515103E+03  0.11405515103E+03  0.00000000000E+00 0.  1.
         21   -1    0    0  501  503 -0.00000000000E+00 -0.00000000000E+00 -0.65941340607E+03  0.65941340607E+03  0.00000000000E+00 0.  1.
          6    2    1    2  501    0  0.38004820935E+02  0.10116161639E+03 -0.53448040235E+03  0.57168195551E+03  0.17167678561E+03 0.  0.
         24    2    3    3    0    0 -0.21142920733E+02  0.69233255381E+01 -0.30864341388E+03  0.31988095041E+03  0.81043876836E+02 0.  0.
         -6    2    1    2    0  502 -0.38004820935E+02 -0.10116161639E+03 -0.10877852692E+02  0.20178660159E+03  0.17006312316E+03 0.  0.
        -24    2    5    5    0    0 -0.69028127273E+02 -0.32250440131E+02  0.32434907473E+02  0.11455540911E+03  0.79157724131E+02 0.  0.
          5    1    3    3  501    0  0.59147741668E+02  0.94238290847E+02 -0.22583698846E+03  0.25180100509E+03  0.47000000000E+01 0. -1.
        -11    1    4    4    0    0  0.17282401828E+02 -0.18979209452E+02 -0.41865512295E+02  0.49108175736E+02  0.00000000000E+00 0.  1.
         12    1    4    4    0    0 -0.38425322562E+02  0.25902534990E+02 -0.26677790159E+03  0.27077277468E+03  0.00000000000E+00 0. -1.
         -5    1    5    5    0  502  0.31023306338E+02 -0.68911176255E+02 -0.43312760165E+02  0.87231192483E+02  0.47000000000E+01 0.  1.
         11    1    6    6    0    0  0.62142550961E+01 -0.29944037411E+02  0.23864365961E+02  0.38791368958E+02  0.00000000000E+00 0. -1.
        -12    1    6    6    0    0 -0.75242382369E+02 -0.23064027200E+01  0.85705415110E+01  0.75764040150E+02  0.00000000000E+00 0.  1.
</event>
<event>
12    1  0.8133506E-002  0.1931975E+03  0.7818608E-02  0.1155787E+00
         21   -1    0    0  501  502  0.00000000000E+00  0.00000000000E+00  0.14366242218E+02  0.14366242218E+02  0.00000000000E+00 0. -1.
         21   -1    0    0  502  503 -0.00000000000E+00 -0.00000000000E+00 -0.26911117594E+04  0.26911117594E+04  0.00000000000E+00 0.  1.
         -6    2    1    2    0  503 -0.82130281185E+02 -0.25924038697E+02 -0.16067880173E+04  0.16183612127E+04  0.17293884229E+03 0.  0.
        -24    2    3    3    0    0 -0.95819216022E+00  0.17547326339E+00 -0.11971871025E+04  0.11999534068E+04  0.81426477520E+02 0.  0.
          6    2    1    2  501    0  0.82130281185E+02  0.25924038697E+02 -0.10699574999E+04  0.10871167889E+04  0.17203610799E+03 0.  0.
         24    2    5    5    0    0  0.42492067858E+02  0.55025794762E+02 -0.96859401675E+03  0.97435710702E+03  0.79774612473E+02 0.  0.
          5    1    5    5  501    0  0.39638213327E+02 -0.29101756065E+02 -0.10136348310E+03  0.11275968193E+03  0.47000000000E+01 0. -1.
        -13    1    6    6    0    0  0.64118846439E+02  0.36015416876E+02 -0.57003145010E+03  0.57475576624E+03  0.00000000000E+00 0.  1.
         14    1    6    6    0    0 -0.21626778581E+02  0.19010377887E+02 -0.39856256665E+03  0.39960134078E+03  0.00000000000E+00 0. -1.
         -5    1    3    3    0  503 -0.81172089025E+02 -0.26099511961E+02 -0.40960091481E+03  0.41840780582E+03  0.47000000000E+01 0.  1.
         13    1    4    4    0    0  0.18903209164E+02  0.16615684259E+01 -0.68203464914E+02  0.70794101115E+02  0.00000000000E+00 0. -1.
        -14    1    4    4    0    0 -0.19861401324E+02 -0.14860951625E+01 -0.11289836376E+04  0.11291593057E+04  0.00000000000E+00 0.  1.
</event>
<event>
12    1  0.8133506E-002  0.1764347E+03  0.7818608E-02  0.1173384E+00
         21   -1    0    0  503  502  0.00000000000E+00  0.00000000000E+00  0.67169017219E+02  0.67169017219E+02  0.00000000000E+00 0.  1.
         21   -1    0    0  501  503 -0.00000000000E+00 -0.00000000000E+00 -0.44577168045E+03  0.44577168045E+03  0.00000000000E+00 0.  1.
          6    2    1    2  501    0 -0.23543771247E+01  0.31732662946E+02 -0.17079814859E+03  0.24556301640E+03  0.17354158715E+03 0.  0.
         24    2    3    3    0    0  0.41207918130E+02  0.22309380503E+02 -0.37815566352E+02  0.10523151958E+03  0.86300954110E+02 0.  0.
         -6    2    1    2    0  502  0.23543771247E+01 -0.31732662946E+02 -0.20780451464E+03  0.26737768127E+03  0.16521381040E+03 0.  0.
        -24    2    5    5    0    0  0.42927250819E+02  0.85515764095E+01 -0.18551569425E+03  0.20583209220E+03  0.77684612644E+02 0.  0.
          5    1    3    3  501    0 -0.43562295255E+02  0.94232824426E+01 -0.13298258223E+03  0.14033149681E+03  0.47000000000E+01 0. -1.
        -13    1    4    4    0    0  0.54446596900E+02  0.30732907506E+02 -0.54055395781E+02  0.82649436362E+02  0.00000000000E+00 0.  1.
         14    1    4    4    0    0 -0.13238678770E+02 -0.84235270025E+01  0.16239829429E+02  0.22582083222E+02  0.00000000000E+00 0. -1.
         -5    1    5    5    0  502 -0.40572873694E+02 -0.40284239356E+02 -0.22288820390E+02  0.61545589075E+02  0.47000000000E+01 0.  1.
         13    1    6    6    0    0  0.45993512445E+02 -0.10873560351E+02 -0.49638555590E+02  0.68539212884E+02  0.00000000000E+00 0. -1.
        -14    1    6    6    0    0 -0.30662616262E+01  0.19425136760E+02 -0.13587713866E+03  0.13729287931E+03  0.00000000000E+00 0.  1.
</event>
<event>
12    1  0.8133506E-002  0.2380147E+03  0.7818608E-02  0.1121393E+00
         21   -1    0    0  501  502  0.00000000000E+00  0.00000000000E+00  0.74490476263E+03  0.74490476263E+03  0.00000000000E+00 0.  1.
         21   -1    0    0  502  503 -0.00000000000E+00 -0.00000000000E+00 -0.87852021875E+02  0.87852021875E+02  0.00000000000E+00 0.  1.
         -6    2    1    2    0  503 -0.15760743986E+03  0.40366271544E+02  0.17169560563E+03  0.29218064599E+03  0.17152436539E+03 0.  0.
        -24    2    3    3    0    0 -0.68064156777E+02  0.20556577413E+02  0.11534820112E+02  0.10756214544E+03  0.79882793793E+02 0.  0.
          6    2    1    2  501    0  0.15760743986E+03 -0.40366271544E+02  0.48535713512E+03  0.54057613852E+03  0.17372815529E+03 0.  0.
         24    2    5    5    0    0  0.13928429005E+03  0.30323290079E+02  0.31391398265E+03  0.35416906657E+03  0.81080970862E+02 0.  0.
          5    1    5    5  501    0  0.18323149807E+02 -0.70689561622E+02  0.17144315247E+03  0.18640707194E+03  0.47000000000E+01 0. -1.
        -11    1    6    6    0    0  0.10435526341E+03 -0.16421516662E+02  0.20187243470E+03  0.22784241726E+03  0.00000000000E+00 0.  1.
         12    1    6    6    0    0  0.34929026645E+02  0.46744806741E+02  0.11204154795E+03  0.12632664931E+03  0.00000000000E+00 0. -1.
         -5    1    3    3    0  503 -0.89543283082E+02  0.19809694130E+02  0.16016078552E+03  0.18461850055E+03  0.47000000000E+01 0.  1.
         11    1    4    4    0    0 -0.39967687732E+02 -0.22815249931E+02  0.27330505490E+02  0.53524837435E+02  0.00000000000E+00 0. -1.
        -12    1    4    4    0    0 -0.28096469045E+02  0.43371827344E+02 -0.15795685378E+02  0.54037308006E+02  0.00000000000E+00 0.  1.
</event>
<event>
12    1  0.8133506E-002  0.1920792E+03  0.7818608E-02  0.1156972E+00
         21   -1    0    0  503  502  0.00000000000E+00  0.00000000000E+00  0.12305000151E+03  0.12305000151E+03  0.00000000000E+00 0.  1.
         21   -1    0    0  501  503 -0.00000000000E+00 -0.00000000000E+00 -0.58849335685E+03  0.58849335685E+03  0.00000000000E+00 0. -1.
          6    2    1    2  501    0  0.22182985499E+02  0.79347494610E+02 -0.48249537179E+03  0.51870871138E+03  0.17166488785E+03 0.  0.
         24    2    3    3    0    0  0.47269439067E+02  0.17851671838E+02 -0.12839818948E+03  0.15840610122E+03  0.77803057683E+02 0.  0.
         -6    2    1    2    0  502 -0.22182985499E+02 -0.79347494610E+02  0.17052016449E+02  0.19283464698E+03  0.17351172889E+03 0.  0.
        -24    2    5    5    0    0 -0.30524436193E+02  0.16766630516E+01 -0.36716861997E+02  0.95122435797E+02  0.82253251809E+02 0.  0.
          5    1    3    3  501    0 -0.25086453568E+02  0.61495822772E+02 -0.35409718231E+03  0.36030261017E+03  0.47000000000E+01 0. -1.
        -11    1    4    4    0    0  0.44581210938E+02  0.49294914279E+01 -0.13597877900E+03  0.14318523874E+03  0.00000000000E+00 0.  1.
         12    1    4    4    0    0  0.26882281293E+01  0.12922180410E+02  0.75805895241E+01  0.15220862477E+02  0.00000000000E+00 0. -1.
         -5    1    5    5    0  502  0.83414506946E+01 -0.81024157661E+02  0.53768878447E+02  0.97712211181E+02  0.47000000000E+01 0.  1.
         13    1    6    6    0    0  0.24573067179E+02 -0.46058512372E+00  0.60862881765E+01  0.25319768423E+02  0.00000000000E+00 0. -1.
        -14    1    6    6    0    0 -0.55097503373E+02  0.21372481754E+01 -0.42803150174E+02  0.69802667374E+02  0.00000000000E+00 0.  1.
</event>
<event>
12    1  0.8133506E-002  0.1804142E+03  0.7818608E-02  0.1167411E+00
         21   -1    0    0  501  502  0.00000000000E+00  0.00000000000E+00  0.48148141429E+02  0.48148141429E+02  0.00000000000E+00 0.  1.
         21   -1    0    0  502  503 -0.00000000000E+00 -0.00000000000E+00 -0.68026295169E+03  0.68026295169E+03  0.00000000000E+00 0.  1.
         -6    2    1    2    0  503  0.42838916934E+02 -0.34234321958E+02 -0.28683917182E+03  0.33884140034E+03  0.17184185314E+03 0.  0.
        -24    2    3    3    0    0  0.87675637856E+02 -0.42072735230E+02 -0.16013871859E+03  0.20413109221E+03  0.81042958330E+02 0.  0.
          6    2    1    2  501    0 -0.42838916934E+02  0.34234321958E+02 -0.34527563845E+03  0.38956969279E+03  0.17187820522E+03 0.  0.
         24    2    5    5    0    0  0.38993904041E+02  0.12765007529E+02 -0.22638374367E+03  0.24357340963E+03  0.79968346941E+02 0.  0.
          5    1    5    5  501    0 -0.81832820976E+02  0.21469314428E+02 -0.11889189478E+03  0.14599628315E+03  0.47000000000E+01 0. -1.
        -11    1    6    6    0    0  0.31175344885E+02  0.23092226421E+02 -0.36560549028E+02  0.53308787221E+02  0.00000000000E+00 0.  1.
         12    1    6    6    0    0  0.78185591569E+01 -0.10327218892E+02 -0.18982319464E+03  0.19026462241E+03  0.00000000000E+00 0. -1.
         -5    1    3    3    0  503 -0.44836720921E+02  0.78384132726E+01 -0.12670045323E+03  0.13471030812E+03  0.47000000000E+01 0.  1.
         11    1    4    4    0    0  0.69083728932E+02  0.65179780447E+01 -0.61995911017E+02  0.93051268792E+02  0.00000000000E+00 0. -1.
        -12    1    4    4    0    0  0.18591908924E+02 -0.48590713275E+02 -0.98142807570E+02  0.11107982342E+03  0.00000000000E+00 0.  1.
</event>
<event>
12    1  0.8133506E-002  0.1972727E+03  0.7818608E-02  0.1152771E+00
         21   -1    0    0  501  502  0.00000000000E+00  0.00000000000E+00  0.40765501251E+02  0.40765501251E+02  0.00000000000E+00 0.  1.
         21   -1    0    0  502  503 -0.00000000000E+00 -0.00000000000E+00 -0.10585876577E+04  0.10585876577E+04  0.00000000000E+00 0.  1.
         -6    2    1    2    0  503 -0.74781804911E+01  0.96014643682E+02 -0.68999785068E+03  0.71674984736E+03  0.16840004384E+03 0.  0.
        -24    2    3    3    0    0  0.53616366787E+02  0.62478551907E+02 -0.31760967779E+03  0.33786694399E+03  0.80621834389E+02 0.  0.
          6    2    1    2  501    0  0.74781804911E+01 -0.96014643682E+02 -0.32782430579E+03  0.38260331161E+03  0.17216789365E+03 0.  0.
         24    2    5    5    0    0  0.47913208312E+02 -0.25135713694E+02 -0.92920978689E+02  0.13388564582E+03  0.79772039232E+02 0.  0.
          5    1    5    5  501    0 -0.40435027821E+02 -0.70878929988E+02 -0.23490332710E+03  0.24871766579E+03  0.47000000000E+01 0. -1.
        -11    1    6    6    0    0  0.31194147265E+02 -0.52468616819E+02 -0.43377372067E+02  0.74884090313E+02  0.00000000000E+00 0.  1.
         12    1    6    6    0    0  0.16719061047E+02  0.27332903125E+02 -0.49543606622E+02  0.59001555510E+02  0.00000000000E+00 0. -1.
         -5    1    3    3    0  503 -0.61094547278E+02  0.33536091775E+02 -0.37238817288E+03  0.37888290336E+03  0.47000000000E+01 0.  1.
         13    1    4    4    0    0  0.37767999796E+02 -0.11467136934E+02 -0.11681360082E+03  0.12330180199E+03  0.00000000000E+00 0. -1.
        -14    1    4    4    0    0  0.15848366991E+02  0.73945688840E+02 -0.20079607697E+03  0.21456514200E+03  0.00000000000E+00 0.  1.
</event>
<event>
12    1  0.8133506E-002  0.2034631E+03  0.7818608E-02  0.1147042E+00
         21   -1    0    0  503  502  0.00000000000E+00  0.00000000000E+00  0.16519871290E+03  0.16519871290E+03  0.00000000000E+00 0.  1.
         21   -1    0    0  501  503 -0.00000000000E+00 -0.00000000000E+00 -0.25068628093E+03  0.25068628093E+03  0.00000000000E+00 0.  1.
          6    2    1    2  501    0  0.76517114335E+02 -0.75598008399E+02 -0.57259117381E+02  0.21047302807E+03  0.17161107587E+03 0.  0.
         24    2    3    3    0    0  0.58775711429E+02 -0.13350877831E+02  0.26275424883E+02  0.10469225291E+03  0.81469256007E+02 0.  0.
         -6    2    1    2    0  502 -0.76517114335E+02  0.75598008399E+02 -0.28228450650E+02  0.20541196576E+03  0.17270582674E+03 0.  0.
        -24    2    5    5    0    0 -0.64795955305E+02 -0.13622025766E+02 -0.19357428629E+02  0.11486703163E+03  0.91845791966E+02 0.  0.
          5    1    3    3  501    0  0.17741402906E+02 -0.62247130568E+02 -0.83534542264E+02  0.10578077515E+03  0.47000000000E+01 0. -1.
        -11    1    4    4    0    0  0.52005292860E+02 -0.26188584581E+02  0.50087346240E+02  0.76805824656E+02  0.00000000000E+00 0.  1.
         12    1    4    4    0    0  0.67704185696E+01  0.12837706750E+02 -0.23811921357E+02  0.27886428257E+02  0.00000000000E+00 0. -1.
         -5    1    5    5    0  502 -0.11721159030E+02  0.89220034165E+02 -0.88710220208E+01  0.90544934133E+02  0.47000000000E+01 0.  1.
         13    1    6    6    0    0 -0.74515705826E+01 -0.14951765586E+02  0.33138498817E+02  0.37111201842E+02  0.00000000000E+00 0. -1.
        -14    1    6    6    0    0 -0.57344384723E+02  0.13297398195E+01 -0.52495927447E+02  0.77755829786E+02  0.00000000000E+00 0.  1.
</event>
<event>
12    1  0.8133506E-002  0.2129251E+03  0.7818608E-02  0.1139477E+00
         21   -1    0    0  501  502  0.00000000000E+00  0.00000000000E+00  0.24241541089E+03  0.24241541089E+03  0.00000000000E+00 0.  1.
         21   -1    0    0  502  503 -0.00000000000E+00 -0.00000000000E+00 -0.91698383202E+03  0.91698383202E+03  0.00000000000E+00 0. -1.
         -6    2    1    2    0  503 -0.12319200172E+03  0.18301506090E+02  0.18043253989E+03  0.27828418468E+03  0.17139128209E+03 0.  0.
        -24    2    3    3    0    0 -0.40143262281E+02 -0.31742301393E+01  0.16634390258E+03  0.19122742118E+03  0.85299914682E+02 0.  0.
          6    2    1    2  501    0  0.12319200172E+03 -0.18301506090E+02 -0.85500096102E+03  0.88111505823E+03  0.17270173154E+03 0.  0.
         24    2    5    5    0    0  0.74530087174E+02 -0.77003474330E+02 -0.60626970048E+03  0.62091660901E+03  0.80561881048E+02 0.  0.
          5    1    5    5  501    0  0.48661914547E+02  0.58701968241E+02 -0.24873126054E+03  0.26019844922E+03  0.47000000000E+01 0. -1.
        -11    1    6    6    0    0  0.70643766303E+02 -0.48423143514E+02 -0.26648703207E+03  0.27991191615E+03  0.00000000000E+00 0.  1.
         12    1    6    6    0    0  0.38863208707E+01 -0.28580330817E+02 -0.33978266841E+03  0.34100469286E+03  0.00000000000E+00 0. -1.
         -5    1    3    3    0  503 -0.83048739439E+02  0.21475736229E+02  0.14088637317E+02  0.87056763496E+02  0.47000000000E+01 0.  1.
         13    1    4    4    0    0  0.20960453011E+02 -0.73873115022E+00  0.94880602617E+02  0.97171060852E+02  0.00000000000E+00 0. -1.
        -14    1    4    4    0    0 -0.61103715292E+02 -0.24354989891E+01  0.71463299959E+02  0.94056360332E+02  0.00000000000E+00 0.  1.
</event>
<event>
12    1  0.8133506E-002  0.1816566E+03  0.7818608E-02  0.1166436E+00
         21   -1    0    0  503  502  0.00000000000E+00  0.00000000000E+00  0.40136563447E+02  0.40136563447E+02  0.00000000000E+00 0. -1.
         21   -1    0    0  501  503 -0.00000000000E+00 -0.00000000000E+00 -0.12816785338E+04  0.12816785338E+04  0.00000000000E+00 0. -1.
          6    2    1    2  501    0  0.34105752043E+02 -0.43375455003E+02 -0.10173011444E+04  0.10332270352E+04  0.17208095609E+03 0.  0.
         24    2    3    3    0    0  0.26674974225E+02 -0.15686561488E+02 -0.23179536917E+03  0.24718422199E+03  0.80083231513E+02 0.  0.
         -6    2    1    2    0  502 -0.34105752043E+02  0.43375455003E+02 -0.22424082596E+03  0.28858806205E+03  0.17307365228E+03 0.  0.
        -24    2    5    5    0    0  0.33739353791E+02  0.55430695413E+02 -0.87257083054E+02  0.13517710082E+03  0.80300336576E+02 0.  0.
          5    1    3    3  501    0  0.74307778184E+01 -0.27688893515E+02 -0.78550577520E+03  0.78604281319E+03  0.47000000000E+01 0. -1.
        -13    1    4    4    0    0  0.54048718862E+02 -0.19070634521E+02 -0.13831829577E+03  0.14972275731E+03  0.00000000000E+00 0.  1.
         14    1    4    4    0    0 -0.27373744637E+02  0.33840730330E+01 -0.93477073399E+02  0.97461464677E+02  0.00000000000E+00 0. -1.
         -5    1    5    5    0  502 -0.67845105834E+02 -0.12055240410E+02 -0.13698374291E+03  0.15341096124E+03  0.47000000000E+01 0.  1.
         11    1    6    6    0    0  0.26877790828E+02  0.71438109689E+02 -0.89489203097E+02  0.11761860663E+03  0.00000000000E+00 0. -1.
        -12    1    6    6    0    0  0.68615629626E+01 -0.16007414276E+02  0.22321200432E+01  0.17558494183E+02  0.00000000000E+00 0.  1.
</event>
<event>
12    1  0.8133506E-002  0.2859194E+03  0.7818608E-02  0.1092544E+00
         21   -1    0    0  501  502  0.00000000000E+00  0.00000000000E+00  0.20776570355E+03  0.20776570355E+03  0.00000000000E+00 0. -1.
         21   -1    0    0  502  503 -0.00000000000E+00 -0.00000000000E+00 -0.56268882323E+03  0.56268882323E+03  0.00000000000E+00 0.  1.
         -6    2    1    2    0  503  0.22734320282E+03 -0.17790617616E+02 -0.38907699132E+03  0.48283623783E+03  0.17247750418E+03 0.  0.
        -24    2    3    3    0    0  0.98327083443E+02  0.35320278076E+02 -0.11342153175E+03  0.17384764793E+03  0.80267200309E+02 0.  0.
          6    2    1    2  501    0 -0.22734320282E+03  0.17790617616E+02  0.34153871636E+02  0.28761828894E+03  0.17191961855E+03 0.  0.
         24    2    5    5    0    0 -0.24725811647E+03  0.70627494939E+01  0.20135558278E+02  0.26059433568E+03  0.79482755951E+02 0.  0.
          5    1    5    5  501    0  0.19914913650E+02  0.10727868122E+02  0.14018313358E+02  0.27023953255E+02  0.47000000000E+01 0. -1.
        -11    1    6    6    0    0 -0.12165296592E+02  0.65463638501E+01 -0.17724030191E+02  0.22471995172E+02  0.00000000000E+00 0.  1.
         12    1    6    6    0    0 -0.23509281988E+03  0.51638564385E+00  0.37859588469E+02  0.23812234051E+03  0.00000000000E+00 0. -1.
         -5    1    3    3    0  503  0.12901611938E+03 -0.53110895692E+02 -0.27565545956E+03  0.30898858990E+03  0.47000000000E+01 0.  1.
         11    1    4    4    0    0  0.41134771506E+02 -0.71252498302E+01 -0.22365493182E+01  0.41807185564E+02  0.00000000000E+00 0. -1.
        -12    1    4    4    0    0  0.57192311938E+02  0.42445527906E+02 -0.11118498243E+03  0.13204046237E+03  0.00000000000E+00 0.  1.
</event>
<event>
12    1  0.8133506E-002  0.1773171E+03  0.7818608E-02  0.1173567E+00
         21   -1    0    0  501  502  0.00000000000E+00  0.00000000000E+00  0.10104522502E+04  0.10104522502E+04  0.00000000000E+00 0. -1.
         21   -1    0    0  502  503 -0.00000000000E+00 -0.00000000000E+00 -0.53400767880E+02  0.53400767880E+02  0.00000000000E+00 0. -1.
         -6    2    1    2    0  503 -0.26095135297E+02 -0.33190419130E+02  0.10980085529E+03  0.19824630561E+03  0.15957070489E+03 0.  0.
        -24    2    3    3    0    0 -0.66216511692E+02 -0.46464172424E+02  0.46008100965E+02  0.12158130137E+03  0.78241432434E+02 0.  0.
          6    2    1    2  501    0  0.26095135297E+02  0.33190419130E+02  0.84725062706E+03  0.86560671250E+03  0.17221729199E+03 0.  0.
         24    2    5    5    0    0 -0.27274261774E+02  0.64404758708E+02  0.65001270375E+03  0.65885198842E+03  0.81716395561E+02 0.  0.
          5    1    5    5  501    0  0.53369397070E+02 -0.31214339578E+02  0.19723792331E+03  0.20675472408E+03  0.47000000000E+01 0. -1.
        -13    1    6    6    0    0  0.52372800302E+01 -0.85016134823E+01  0.10935493246E+02  0.14808495753E+02  0.00000000000E+00 0.  1.
         14    1    6    6    0    0 -0.32511541804E+02  0.72906372190E+02  0.63907721051E+03  0.64404349267E+03  0.00000000000E+00 0. -1.
         -5    1    3    3    0  503  0.40121376396E+02  0.13273753294E+02  0.63792754326E+02  0.76665004238E+02  0.47000000000E+01 0.  1.
         11    1    4    4    0    0 -0.27729319891E+02 -0.14632813273E+02  0.61716779750E+02  0.69224239315E+02  0.00000000000E+00 0. -1.
        -12    1    4    4    0    0 -0.38487191801E+02 -0.31831359151E+02 -0.15708678786E+02  0.52357062058E+02  0.00000000000E+00 0.  1.
</event>
<event>
12    1  0.8133506E-002  0.2102432E+03  0.7818608E-02  0.1141471E+00
         21   -1    0    0  503  502  0.00000000000E+00  0.00000000000E+00  0.44563556232E+03  0.44563556232E+03  0.00000000000E+00 0. -1.
         21   -1    0    0  501  503 -0.00000000000E+00 -0.00000000000E+00 -0.26489734370E+03  0.26489734370E+03  0.00000000000E+00 0. -1.
          6    2    1    2  501    0 -0.10726065233E+03  0.57549029389E+02 -0.19077558785E+03  0.28389706851E+03  0.17142194219E+03 0.  0.
         24    2    3    3    0    0 -0.27024416614E+02 -0.19899504775E+02 -0.13225526823E+03  0.15786990170E+03  0.79404914851E+02 0.  0.
         -6    2    1    2    0  502  0.10726065233E+03 -0.57549029389E+02  0.37151380648E+03  0.42663583751E+03  0.17081829855E+03 0.  0.
        -24    2    5    5    0    0  0.70267401491E+02  0.12611510027E+02  0.19610877148E+03  0.23407411182E+03  0.10599755503E+03 0.  0.
          5    1    3    3  501    0 -0.80236235717E+02  0.77448534164E+02 -0.58520319620E+02  0.12602716681E+03  0.47000000000E+01 0. -1.
        -13    1    4    4    0    0 -0.38404536556E+02 -0.41428178989E+02 -0.63814920281E+02  0.85226442451E+02  0.00000000000E+00 0.  1.
         14    1    4    4    0    0  0.11380119942E+02  0.21528674213E+02 -0.68440347953E+02  0.72643459246E+02  0.00000000000E+00 0. -1.
         -5    1    5    5    0  502  0.36993250841E+02 -0.70160539416E+02  0.17540503500E+03  0.19256172569E+03  0.47000000000E+01 0.  1.
         11    1    6    6    0    0  0.68139197096E+02 -0.31912183223E+02  0.15963585616E+03  0.17647930244E+03  0.00000000000E+00 0. -1.
        -12    1    6    6    0    0  0.21282043952E+01  0.44523693250E+02  0.36472915324E+02  0.57594809374E+02  0.00000000000E+00 0.  1.
</event>
<event>
12    1  0.8133506E-002  0.2641523E+03  0.7818608E-02  0.1104839E+00
         21   -1    0    0  501  502  0.00000000000E+00  0.00000000000E+00  0.11023972068E+03  0.11023972068E+03  0.00000000000E+00 0.  1.
         21   -1    0    0  502  503 -0.00000000000E+00 -0.00000000000E+00 -0.99703587793E+03  0.99703587793E+03  0.00000000000E+00 0. -1.
         -6    2    1    2    0  503  0.45625785152E+02  0.19342890891E+03 -0.77858897448E+03  0.82181939767E+03  0.17230750456E+03 0.  0.
        -24    2    3    3    0    0  0.80773944355E+02  0.98350344423E+02 -0.34161169099E+03  0.37321426751E+03  0.79956999156E+02 0.  0.
          6    2    1    2  501    0 -0.45625785152E+02 -0.19342890891E+03 -0.10820718277E+03  0.28545620094E+03  0.17401147427E+03 0.  0.
         24    2    5    5    0    0 -0.70624142402E+02 -0.20002990177E+03 -0.65803530483E+02  0.23556982304E+03  0.78506724626E+02 0.  0.
          5    1    5    5  501    0  0.24998357250E+02  0.66009928660E+01 -0.42403652286E+02  0.49886377892E+02  0.47000000000E+01 0. -1.
        -11    1    6    6    0    0 -0.21689916521E+02 -0.15224280580E+03 -0.24641054314E+02  0.15574179258E+03  0.00000000000E+00 0.  1.
         12    1    6    6    0    0 -0.48934225882E+02 -0.47787095971E+02 -0.41162476169E+02  0.79828030467E+02  0.00000000000E+00 0. -1.
         -5    1    3    3    0  503 -0.35148159203E+02  0.95078564484E+02 -0.43697728349E+03  0.44860513016E+03  0.47000000000E+01 0.  1.
         11    1    4    4    0    0  0.32894689517E+02  0.29666065363E+02 -0.22698208445E+03  0.23126392433E+03  0.00000000000E+00 0. -1.
        -12    1    4    4    0    0  0.47879254838E+02  0.68684279059E+02 -0.11462960654E+03  0.14195034318E+03  0.00000000000E+00 0.  1.
</event>
<event>
12    1  0.8133506E-002  0.1806273E+03  0.7818608E-02  0.1167373E+00
         21   -1    0    0  501  502  0.00000000000E+00  0.00000000000E+00  0.64772288529E+03  0.64772288529E+03  0.00000000000E+00 0. -1.
         21   -1    0    0  502  503 -0.00000000000E+00 -0.00000000000E+00 -0.75342081976E+02  0.75342081976E+02  0.00000000000E+00 0. -1.
         -6    2    1    2    0  503  0.29490529371E+02  0.45537474393E+02  0.76825040069E+02  0.19561664432E+03  0.17152385215E+03 0.  0.
        -24    2    3    3    0    0  0.47224590865E+02 -0.24462030184E+02  0.77206086954E+02  0.12325185472E+03  0.80010542586E+02 0.  0.
          6    2    1    2  501    0 -0.29490529371E+02 -0.45537474393E+02  0.49555576325E+03  0.52744832295E+03  0.17228716143E+03 0.  0.
         24    2    5    5    0    0 -0.35888327414E+01  0.17814000699E+02  0.11774868717E+03  0.14346318779E+03  0.79916922988E+02 0.  0.
          5    1    5    5  501    0 -0.25901696630E+02 -0.63351475092E+02  0.37780707608E+03  0.38398513516E+03  0.47000000000E+01 0. -1.
        -13    1    6    6    0    0  0.13347585488E+02 -0.27418898950E+02  0.65839378872E+02  0.72558789049E+02  0.00000000000E+00 0.  1.
         14    1    6    6    0    0 -0.16936418230E+02  0.45232899649E+02  0.51909308293E+02  0.70904398739E+02  0.00000000000E+00 0. -1.
         -5    1    3    3    0  503 -0.17734061494E+02  0.69999504577E+02 -0.38104688544E+00  0.72364789607E+02  0.47000000000E+01 0.  1.
         13    1    4    4    0    0  0.18373848661E+02  0.21132012474E+02 -0.12531421023E+01  0.28030887088E+02  0.00000000000E+00 0. -1.
        -14    1    4    4    0    0  0.28850742204E+02 -0.45594042658E+02  0.78459229057E+02  0.95220967627E+02  0.00000000000E+00 0.  1.
</event>
<event>
12    1  0.8133506E-002  0.2415487E+03  0.7818608E-02  0.1118782E+00
         21   -1    0    0  501  502  0.00000000000E+00  0.00000000000E+00  0.15098326165E+03  0.15098326165E+03  0.00000000000E+00 0. -1.
         21   -1    0    0  502  503 -0.00000000000E+00 -0.00000000000E+00 -0.38793836960E+03  0.38793836960E+03  0.00000000000E+00 0. -1.
         -6    2    1    2    0  503 -0.16368862607E+03  0.43453167791E+02 -0.13613995224E+03  0.27727215216E+03  0.17223128540E+03 0.  0.
        -24    2    3    3    0    0 -0.57291766217E+02  0.48446190607E+01  0.16761158363E+01  0.98872963703E+02  0.80419131909E+02 0.  0.
          6    2    1    2  501    0  0.16368862607E+03 -0.43453167791E+02 -0.10081515571E+03  0.26164947908E+03  0.17208896009E+03 0.  0.
         24    2    5    5    0    0  0.11642546884E+03 -0.92040303889E+02 -0.46569611011E+02  0.17470590574E+03  0.79543180071E+02 0.  0.
          5    1    5    5  501    0  0.47263157234E+02  0.48587136099E+02 -0.54245544699E+02  0.86943573343E+02  0.47000000000E+01 0. -1.
        -11    1    6    6    0    0  0.13107503197E+02 -0.14724279061E+02 -0.41056763617E+02  0.45544142023E+02  0.00000000000E+00 0.  1.
         12    1    6    6    0    0  0.10331796564E+03 -0.77316024828E+02 -0.55128473936E+01  0.12916176372E+03  0.00000000000E+00 0. -1.
         -5    1    3    3    0  503 -0.10639685986E+03  0.38608548730E+02 -0.13781606808E+03  0.17839918846E+03  0.47000000000E+01 0.  1.
         13    1    4    4    0    0 -0.64338898811E+02  0.27657797807E+02 -0.12450845666E+02  0.71129960196E+02  0.00000000000E+00 0. -1.
        -14    1    4    4    0    0  0.70471325935E+01 -0.22813178746E+02  0.14126961502E+02  0.27743003507E+02  0.00000000000E+00 0.  1.
</event>
<event>
12    1  0.8133506E-002  0.2860531E+03  0.7818608E-02  0.1092505E+00
         21   -1    0    0  503  502  0.00000000000E+00  0.00000000000E+00  0.25366470676E+03  0.25366470676E+03  0.00000000000E+00 0.  1.
         21   -1    0    0  501  503 -0.00000000000E+00 -0.00000000000E+00 -0.37191880045E+03  0.37191880045E+03  0.00000000000E+00 0. -1.
          6    2    1    2  501    0 -0.16876759816E+03  0.15359025946E+03 -0.17375768906E+03  0.33419539012E+03  0.17152945601E+03 0.  0.
         24    2    3    3    0    0 -0.10819551707E+03  0.26893679301E+02 -0.47059357408E+02  0.14499825041E+03  0.79877215785E+02 0.  0.
         -6    2    1    2    0  502  0.16876759816E+03 -0.15359025946E+03  0.55503595365E+02  0.29138811709E+03  0.17249323376E+03 0.  0.
        -24    2    5    5    0    0  0.62555838205E+02 -0.38979848233E+02 -0.31038561833E+02  0.11270370455E+03  0.79410775312E+02 0.  0.
          5    1    3    3  501    0 -0.60572081097E+02  0.12669658016E+03 -0.12669833165E+03  0.18919713971E+03  0.47000000000E+01 0. -1.
        -11    1    4    4    0    0 -0.51621025484E+02  0.53745665313E+02 -0.24949032865E+02  0.78586137791E+02  0.00000000000E+00 0.  1.
         12    1    4    4    0    0 -0.56574491583E+02 -0.26851986012E+02 -0.22110324543E+02  0.66412112616E+02  0.00000000000E+00 0. -1.
         -5    1    5    5    0  502  0.10621175996E+03 -0.11461041123E+03  0.86542157198E+02  0.17868441255E+03  0.47000000000E+01 0.  1.
         11    1    6    6    0    0  0.46544329516E+02 -0.56630790225E+02 -0.44081142719E+02  0.85536940295E+02  0.00000000000E+00 0. -1.
        -12    1    6    6    0    0  0.16011508689E+02  0.17650941991E+02  0.13042580886E+02  0.27166764251E+02  0.00000000000E+00 0.  1.
</event>
<event>
12    1  0.8133506E-002  0.2075434E+03  0.7818608E-02  0.1143556E+00
         21   -1    0    0  503  502  0.00000000000E+00  0.00000000000E+00  0.15907968862E+04  0.15907968862E+04  0.00000000000E+00 0. -1.
         21   -1    0    0  501  503 -0.00000000000E+00 -0.00000000000E+00 -0.69443759366E+02  0.69443759366E+02  0.00000000000E+00 0. -1.
          6    2    1    2  501    0  0.19805217068E+02  0.11429120262E+03  0.11224449942E+03  0.23595143270E+03  0.17210324030E+03 0.  0.
         24    2    3    3    0    0 -0.14907111172E+02  0.55467775707E+02 -0.72746285833E+01  0.98212356019E+02  0.79333791970E+02 0.  0.
         -6    2    1    2    0  502 -0.19805217068E+02 -0.11429120262E+03  0.14091086274E+04  0.14242892128E+04  0.17192414730E+03 0.  0.
        -24    2    5    5    0    0 -0.60509908725E+02 -0.19484039642E+02  0.61351228510E+03  0.62201687758E+03  0.80415142644E+02 0.  0.
          5    1    3    3  501    0  0.34712328240E+02  0.58823426908E+02  0.11951912800E+03  0.13773907668E+03  0.47000000000E+01 0. -1.
        -13    1    4    4    0    0 -0.59192458154E+01  0.87470926654E+01  0.33766302621E+02  0.35379546264E+02  0.00000000000E+00 0.  1.
         14    1    4    4    0    0 -0.89878653564E+01  0.46720683042E+02 -0.41040931204E+02  0.62832809755E+02  0.00000000000E+00 0. -1.
         -5    1    5    5    0  502  0.40704691656E+02 -0.94807162974E+02  0.79559634227E+03  0.80227233525E+03  0.47000000000E+01 0.  1.
         13    1    6    6    0    0 -0.13759539108E+01  0.52802303506E+01  0.37497180046E+03  0.37501150012E+03  0.00000000000E+00 0. -1.
        -14    1    6    6    0    0 -0.59133954814E+02 -0.24764269992E+02  0.23854048464E+03  0.24700537745E+03  0.00000000000E+00 0.  1.
</event>
<event>
12    1  0.8133506E-002  0.2433701E+03  0.7818608E-02  0.1117774E+00
         21   -1    0    0  503  502  0.00000000000E+00  0.00000000000E+00  0.71801777098E+03  0.71801777098E+03  0.00000000000E+00 0.  1.
         21   -1    0    0  501  503 -0.00000000000E+00 -0.00000000000E+00 -0.30941554140E+03  0.30941554140E+03  0.00000000000E+00 0. -1.
          6    2    1    2  501    0  0.11815762649E+03 -0.12324348024E+03 -0.23619305119E+03  0.33823816288E+03  0.17166163602E+03 0.  0.
         24    2    3    3    0    0  0.52304342763E+02 -0.11003814173E+03 -0.77662969123E+02  0.16600311168E+03  0.81739582866E+02 0.  0.
         -6    2    1    2    0  502 -0.11815762649E+03  0.12324348024E+03  0.64479528077E+03  0.68919514950E+03  0.17343246489E+03 0.  0.
        -24    2    5    5    0    0 -0.13695057507E+03  0.14089270587E+03  0.60816094075E+03  0.64415255910E+03  0.80415017010E+02 0.  0.
          5    1    3    3  501    0  0.65853283725E+02 -0.13205338511E+02 -0.15853008207E+03  0.17223505120E+03  0.47000000000E+01 0. -1.
        -13    1    4    4    0    0  0.16445751739E+02  0.11145137320E+02 -0.15306431246E+02  0.25079148184E+02  0.00000000000E+00 0.  1.
         14    1    4    4    0    0  0.35858591025E+02 -0.12118327905E+03 -0.62356537877E+02  0.14092396349E+03  0.00000000000E+00 0. -1.
         -5    1    5    5    0  502  0.18792948582E+02 -0.17649225628E+02  0.36634340016E+02  0.45042590402E+02  0.47000000000E+01 0.  1.
         13    1    6    6    0    0 -0.45982006991E+02  0.25161467383E+01  0.15423314398E+03  0.16096129555E+03  0.00000000000E+00 0. -1.
        -14    1    6    6    0    0 -0.90968568080E+02  0.13837655913E+03  0.45392779677E+03  0.48319126355E+03  0.00000000000E+00 0.  1.
</event>
<event>
12    1  0.8133506E-002  0.1844239E+03  0.7818608E-02  0.1165715E+00
         21   -1    0    0  503  502  0.00000000000E+00  0.00000000000E+00  0.26979546053E+02  0.26979546053E+02  0.00000000000E+00 0.  1.
         21   -1    0    0  501  503 -0.00000000000E+00 -0.00000000000E+00 -0.15167856483E+04  0.15167856483E+04  0.00000000000E+00 0.  1.
          6    2    1    2  501    0  0.52284834101E+02 -0.12681377457E+02 -0.10825428996E+04  0.10966908334E+04  0.16714404947E+03 0.  0.
         24    2    3    3    0    0  0.95275883555E+02 -0.79652889981E+01 -0.66018533013E+03  0.67209870164E+03  0.82043005861E+02 0.  0.
         -6    2    1    2    0  502 -0.52284834101E+02  0.12681377457E+02 -0.40726320259E+03  0.44707436095E+03  0.17640194675E+03 0.  0.
        -24    2    5    5    0    0 -0.22151747432E+02 -0.52406468222E+02 -0.31699748125E+03  0.33168622890E+03  0.79317170262E+02 0.  0.
          5    1    3    3  501    0 -0.42991049454E+02 -0.47160884588E+01 -0.42235756948E+03  0.42459213172E+03  0.47000000000E+01 0. -1.
        -11    1    4    4    0    0  0.44113163345E+02 -0.43657388340E+02 -0.38161483000E+03  0.38662878477E+03  0.00000000000E+00 0.  1.
         12    1    4    4    0    0  0.51162720210E+02  0.35692099342E+02 -0.27857050013E+03  0.28546991687E+03  0.00000000000E+00 0. -1.
         -5    1    5    5    0  502 -0.30133086669E+02  0.65087845679E+02 -0.90265721344E+02  0.11538813205E+03  0.47000000000E+01 0.  1.
         11    1    6    6    0    0  0.29273641348E+02 -0.99282475926E+01 -0.99605921700E+02  0.10429216565E+03  0.00000000000E+00 0. -1.
        -12    1    6    6    0    0 -0.51425388780E+02 -0.42478220630E+02 -0.21739155955E+03  0.22739406325E+03  0.00000000000E+00 0.  1.
</event>
<event>
12    1  0.8133506E-002  0.2031302E+03  0.7818608E-02  0.1147508E+00
         21   -1    0    0  503  502  0.00000000000E+00  0.00000000000E+00  0.30428592612E+03  0.30428592612E+03  0.00000000000E+00 0.  1.
         21   -1    0    0  501  503 -0.00000000000E+00 -0.00000000000E+00 -0.13956992888E+03  0.13956992888E+03  0.00000000000E+00 0.  1.
          6    2    1    2  501    0 -0.10317460414E+03  0.26066210308E+02  0.39900959742E+02  0.20701196627E+03  0.17302433740E+03 0.  0.
         24    2    3    3    0    0 -0.14118230769E+03  0.23945908389E+02  0.47736706089E+02  0.16786391229E+03  0.73441469270E+02 0.  0.
         -6    2    1    2    0  502  0.10317460414E+03 -0.26066210308E+02  0.12481503751E+03  0.23684388872E+03  0.17085604402E+03 0.  0.
        -24    2    5    5    0    0  0.10755847417E+03 -0.64044361279E+02  0.13065658348E+03  0.19788529626E+03  0.80105818086E+02 0.  0.
          5    1    3    3  501    0  0.38007703554E+02  0.21203019189E+01 -0.78357463475E+01  0.39148053981E+02  0.47000000000E+01 0. -1.
        -11    1    4    4    0    0 -0.94260262961E+02 -0.19604154202E+02  0.21318920886E+02  0.98609413461E+02  0.00000000000E+00 0.  1.
         12    1    4    4    0    0 -0.46922044731E+02  0.43550062592E+02  0.26417785203E+02  0.69254498832E+02  0.00000000000E+00 0. -1.
         -5    1    5    5    0  502 -0.43838700343E+01  0.37978150971E+02 -0.58415459712E+01  0.38958592466E+02  0.47000000000E+01 0.  1.
         11    1    6    6    0    0  0.22616259461E+01  0.94411892385E+01  0.38831005185E+02  0.40026216032E+02  0.00000000000E+00 0. -1.
        -12    1    6    6    0    0  0.10529684823E+03 -0.73485550517E+02  0.91825578294E+02  0.15785908023E+03  0.00000000000E+00 0.  1.
</event>
<event>
12    1  0.8133506E-002  0.2256991E+03  0.7818608E-02  0.1130204E+00
         21   -1    0    0  503  502  0.00000000000E+00  0.00000000000E+00  0.38522452318E+03  0.38522452318E+03  0.00000000000E+00 0.  1.
         21   -1    0    0  501  503 -0.00000000000E+00 -0.00000000000E+00 -0.15205933895E+03  0.15205933895E+03  0.00000000000E+00 0. -1.
          6    2    1    2  501    0  0.14456545301E+03  0.78607579571E+01  0.16337592483E+02  0.22628959006E+03  0.17314473692E+03 0.  0.
         24    2    3    3    0    0  0.10358945092E+03 -0.25051035549E+02  0.70471217381E+02  0.15069357004E+03  0.79900130457E+02 0.  0.
         -6    2    1    2    0  502 -0.14456545301E+03 -0.78607579571E+01  0.21682759174E+03  0.31099427207E+03  0.16953545647E+03 0.  0.
        -24    2    5    5    0    0 -0.83050187818E+02 -0.96024643249E+01  0.36173756822E+02  0.12008838043E+03  0.78250478680E+02 0.  0.
          5    1    3    3  501    0  0.40976002092E+02  0.32911793507E+02 -0.54133624898E+02  0.75596020027E+02  0.47000000000E+01 0. -1.
        -13    1    4    4    0    0  0.36056064940E+02  0.20132675067E+02 -0.26512495347E+01  0.41381077178E+02  0.00000000000E+00 0.  1.
         14    1    4    4    0    0  0.67533385978E+02 -0.45183710617E+02  0.73122466916E+02  0.10931249286E+03  0.00000000000E+00 0. -1.
         -5    1    5    5    0  502 -0.61515265192E+02  0.17417063678E+01  0.18065383492E+03  0.19090589164E+03  0.47000000000E+01 0.  1.
         11    1    6    6    0    0 -0.10943934755E+02  0.28705431653E+02 -0.15361083106E+00  0.30721248519E+02  0.00000000000E+00 0. -1.
        -12    1    6    6    0    0 -0.72106253064E+02 -0.38307895978E+02  0.36327367654E+02  0.89367131910E+02  0.00000000000E+00 0.  1.
</event>
<event>
12    1  0.8133506E-002  0.2005904E+03  0.7818608E-02  0.1149346E+00
         21   -1    0    0  503  502  0.00000000000E+00  0.00000000000E+00  0.24379871145E+03  0.24379871145E+03  0.00000000000E+00 0.  1.
         21   -1    0    0  501  503 -0.00000000000E+00 -0.00000000000E+00 -0.31835515140E+03  0.31835515140E+03  0.00000000000E+00 0. -1.
          6    2    1    2  501    0 -0.73905299647E+02 -0.72516536397E+02 -0.23257028440E+03  0.30680143212E+03  0.17122365550E+03 0.  0.
         24    2    3    3    0    0 -0.82014346122E+02 -0.32770783690E+00 -0.88229950479E+02  0.14514375183E+03  0.80967426601E+02 0.  0.
         -6    2    1    2    0  502  0.73905299647E+02  0.72516536397E+02  0.15801384444E+03  0.25535243072E+03  0.17180176796E+03 0.  0.
        -24    2    5    5    0    0  0.71042972346E+02  0.72488839369E+02  0.37599434992E+02  0.13481233911E+03  0.80367365958E+02 0.  0.
          5    1    3    3  501    0  0.81090464751E+01 -0.72188828560E+02 -0.14434033392E+03  0.16165768030E+03  0.47000000000E+01 0. -1.
        -11    1    4    4    0    0 -0.36162888893E+02  0.34030436132E+02 -0.68376604699E+02  0.84505533467E+02  0.00000000000E+00 0.  1.
         12    1    4    4    0    0 -0.45851457230E+02 -0.34358143969E+02 -0.19853345780E+02  0.60638218359E+02  0.00000000000E+00 0. -1.
         -5    1    5    5    0  502  0.28623273015E+01  0.27697028007E-01  0.12041440945E+03  0.12054009162E+03  0.47000000000E+01 0.  1.
         11    1    6    6    0    0  0.80537357257E+02  0.31150542278E+02  0.31714256809E+02  0.91991392440E+02  0.00000000000E+00 0. -1.
        -12    1    6    6    0    0 -0.94943849110E+01  0.41338297091E+02  0.58851781830E+01  0.42820946667E+02  0.00000000000E+00 0.  1.
</event>
<event>
12    1  0.8133506E-002  0.4083731E+03  0.7818608E-02  0.1041099E+00
         21   -1    0    0  503  502  0.00000000000E+00  0.00000000000E+00  0.11986609660E+04  0.11986609660E+04  0.00000000000E+00 0. -1.
         21   -1    0    0  501  503 -0.00000000000E+00 -0.00000000000E+00 -0.14976077113E+03  0.14976077113E+03  0.00000000000E+00 0. -1.
          6    2    1    2  501    0  0.56343895741E+02 -0.36636471209E+03  0.33750677219E+03  0.52814788309E+03  0.16622763997E+03 0.  0.
         24    2    3    3    0    0  0.60743395594E+02 -0.11378086588E+03  0.14220269492E+03  0.20879897115E+03  0.82094813232E+02 0.  0.
         -6    2    1    2    0  502 -0.56343895741E+02  0.36636471209E+03  0.71139342270E+03  0.82027385406E+03  0.17137927802E+03 0.  0.
        -24    2    5    5    0    0 -0.98549744771E+01  0.20728993532E+03  0.27713535180E+03  0.35544252277E+03  0.80431001284E+02 0.  0.
          5    1    3    3  501    0 -0.43994998522E+01 -0.25258384621E+03  0.19530407727E+03  0.31934891195E+03  0.47000000000E+01 0. -1.
        -11    1    4    4    0    0  0.15430802303E+02 -0.15915533394E+02 -0.82780499636E+01  0.23663050820E+02  0.00000000000E+00 0.  1.
         12    1    4    4    0    0  0.45312593291E+02 -0.97865332490E+02  0.15048074488E+03  0.18513592033E+03  0.00000000000E+00 0. -1.
         -5    1    5    5    0  502 -0.46488921264E+02  0.15907477677E+03  0.43425807090E+03  0.46483133129E+03  0.47000000000E+01 0.  1.
         13    1    6    6    0    0 -0.77183917109E+01  0.13710051288E+03  0.23872756506E+03  0.27540329432E+03  0.00000000000E+00 0. -1.
        -14    1    6    6    0    0 -0.21365827662E+01  0.70189422441E+02  0.38407786742E+02  0.80039228451E+02  0.00000000000E+00 0.  1.
</event>
<event>
12    1  0.8133506E-002  0.2637991E+03  0.7818608E-02  0.1104960E+00
         21   -1    0    0  501  502  0.00000000000E+00  0.00000000000E+00  0.11587552528E+03  0.11587552528E+03  0.00000000000E+00 0. -1.
         21   -1    0    0  502  503 -0.00000000000E+00 -0.00000000000E+00 -0.60252674123E+03  0.60252674123E+03  0.00000000000E+00 0. -1.
         -6    2    1    2    0  503 -0.17567891105E+03  0.96663524158E+02 -0.26960554418E+03  0.37719641431E+03  0.17141490257E+03 0.  0.
        -24    2    3    3    0    0 -0.10212531469E+03 -0.15045681798E+02 -0.12370785163E+03  0.17921332179E+03  0.78471840229E+02 0.  0.
          6    2    1    2  501    0  0.17567891105E+03 -0.96663524158E+02 -0.21704567177E+03  0.34120585220E+03  0.17060390750E+03 0.  0.
         24    2    5    5    0    0  0.19182770220E+03 -0.10452746375E+03 -0.22234256976E+03  0.32189854452E+03  0.80365394474E+02 0.  0.
          5    1    5    5  501    0 -0.16148791153E+02  0.78639395879E+01  0.52968979911E+01  0.19307307681E+02  0.47000000000E+01 0. -1.
        -11    1    6    6    0    0  0.83575112572E+02 -0.24205319873E+01 -0.71597248152E+02  0.11007644780E+03  0.00000000000E+00 0.  1.
         12    1    6    6    0    0  0.10825258963E+03 -0.10210693176E+03 -0.15074532161E+03  0.21182209673E+03  0.00000000000E+00 0. -1.
         -5    1    3    3    0  503 -0.73553596357E+02  0.11170920596E+03 -0.14589769255E+03  0.19798309252E+03  0.47000000000E+01 0.  1.
         13    1    4    4    0    0 -0.84147216399E+02  0.13858118322E+02 -0.11656918368E+03  0.14443398511E+03  0.00000000000E+00 0. -1.
        -14    1    4    4    0    0 -0.17978098294E+02 -0.28903800120E+02 -0.71386679542E+01  0.34779336679E+02  0.00000000000E+00 0.  1.
</event>
<event>
12    1  0.8133506E-002  0.2893778E+03  0.7818608E-02  0.1090738E+00
         21   -1    0    0  501  502  0.00000000000E+00  0.00000000000E+00  0.28087202426E+03  0.28087202426E+03  0.00000000000E+00 0. -1.
         21   -1    0    0  502  503 -0.00000000000E+00 -0.00000000000E+00 -0.29777570564E+03  0.29777570564E+03  0.00000000000E+00 0. -1.
         -6    2    1    2    0  503 -0.22973406819E+03  0.28587893980E+02 -0.23420007905E+01  0.28938728264E+03  0.17362172853E+03 0.  0.
        -24    2    3    3    0    0 -0.52782978424E+02  0.42239017073E+02  0.26013304965E+02  0.10959808749E+03  0.82248838112E+02 0.  0.
          6    2    1    2  501    0  0.22973406819E+03 -0.28587893980E+02 -0.14561680593E+02  0.28926044726E+03  0.17281363961E+03 0.  0.
         24    2    5    5    0    0  0.19616866069E+03  0.33359765732E+02 -0.39815124970E+02  0.21426727705E+03  0.68776481680E+02 0.  0.
          5    1    5    5  501    0  0.33565407499E+02 -0.61947659712E+02  0.25253444377E+02  0.74993170204E+02  0.47000000000E+01 0. -1.
        -11    1    6    6    0    0  0.24331539317E+02  0.28025781874E+02  0.25586815995E+01  0.37202353511E+02  0.00000000000E+00 0.  1.
         12    1    6    6    0    0  0.17183712137E+03  0.53339838580E+01 -0.42373806570E+02  0.17706492354E+03  0.00000000000E+00 0. -1.
         -5    1    3    3    0  503 -0.17695108976E+03 -0.13651123093E+02 -0.28355305756E+02  0.17978919516E+03  0.47000000000E+01 0.  1.
         13    1    4    4    0    0 -0.72981931903E+02  0.24926675255E+02  0.81425131865E+01  0.77549997064E+02  0.00000000000E+00 0. -1.
        -14    1    4    4    0    0  0.20198953479E+02  0.17312341818E+02  0.17870791779E+02  0.32048090422E+02  0.00000000000E+00 0.  1.
</event>
<event>
12    1  0.8133506E-002  0.1981856E+03  0.7818608E-02  0.1151346E+00
         21   -1    0    0  503  502  0.00000000000E+00  0.00000000000E+00  0.12438182965E+03  0.12438182965E+03  0.00000000000E+00 0.  1.
         21   -1    0    0  501  503 -0.00000000000E+00 -0.00000000000E+00 -0.32607616677E+03  0.32607616677E+03  0.00000000000E+00 0.  1.
          6    2    1    2  501    0 -0.64139884944E+02  0.77291086098E+02 -0.59785025946E+02  0.20670448967E+03  0.17048360594E+03 0.  0.
         24    2    3    3    0    0 -0.97061159695E+01 -0.39915251701E+01  0.18698605076E+02  0.81198838654E+02  0.78316490004E+02 0.  0.
         -6    2    1    2    0  502  0.64139884944E+02 -0.77291086098E+02 -0.14190931117E+03  0.24375350675E+03  0.17084988330E+03 0.  0.
        -24    2    5    5    0    0  0.24727688869E+02 -0.60056174233E+02 -0.87362358909E+01  0.10372664730E+03  0.80403313881E+02 0.  0.
          5    1    3    3  501    0 -0.54433768974E+02  0.81282611268E+02 -0.78483631022E+02  0.12550565102E+03  0.47000000000E+01 0. -1.
        -11    1    4    4    0    0  0.26126801973E+02  0.22041878674E+02  0.12871219287E+02  0.36525641442E+02  0.00000000000E+00 0.  1.
         12    1    4    4    0    0 -0.35832917943E+02 -0.26033403844E+02  0.58273857893E+01  0.44673197212E+02  0.00000000000E+00 0. -1.
         -5    1    5    5    0  502  0.39412196075E+02 -0.17234911866E+02 -0.13317307528E+03  0.14002685945E+03  0.47000000000E+01 0.  1.
         13    1    6    6    0    0  0.46123199171E+02 -0.21259020017E+02 -0.24902865444E+02  0.56563664495E+02  0.00000000000E+00 0. -1.
        -14    1    6    6    0    0 -0.21395510302E+02 -0.38797154216E+02  0.16166629553E+02  0.47162982809E+02  0.00000000000E+00 0.  1.
</event>
<event>
12    1  0.8133506E-002  0.1872110E+03  0.7818608E-02  0.1161574E+00
         21   -1    0    0  501  502  0.00000000000E+00  0.00000000000E+00  0.94693844577E+02  0.94693844577E+02  0.00000000000E+00 0.  1.
         21   -1    0    0  502  503 -0.00000000000E+00 -0.00000000000E+00 -0.36940611910E+03  0.36940611910E+03  0.00000000000E+00 0.  1.
         -6    2    1    2    0  503  0.36474886794E+02  0.63124418378E+02 -0.16109469214E+03  0.24510925781E+03  0.16974079907E+03 0.  0.
        -24    2    3    3    0    0 -0.56879467643E+01  0.45171760180E+02 -0.12182105591E+02  0.89234144656E+02  0.75772608637E+02 0.  0.
          6    2    1    2  501    0 -0.36474886794E+02 -0.63124418378E+02 -0.11361758239E+03  0.21899070586E+03  0.17243220310E+03 0.  0.
         24    2    5    5    0    0 -0.30539420060E+02  0.26104789504E+02 -0.88455977006E+02  0.12597308555E+03  0.80191285069E+02 0.  0.
          5    1    5    5  501    0 -0.59354667346E+01 -0.89229207882E+02 -0.25161605379E+02  0.93017620320E+02  0.47000000000E+01 0. -1.
        -11    1    6    6    0    0 -0.24642374006E+02 -0.24914396096E+02 -0.19853446555E+02  0.40275713148E+02  0.00000000000E+00 0.  1.
         12    1    6    6    0    0 -0.58970460533E+01  0.51019185600E+02 -0.68602530451E+02  0.85697372397E+02  0.00000000000E+00 0. -1.
         -5    1    3    3    0  503  0.42162833559E+02  0.17952658198E+02 -0.14891258654E+03  0.15587511316E+03  0.47000000000E+01 0.  1.
         11    1    4    4    0    0 -0.25002634237E+02 -0.11352388039E+02 -0.10736622642E+02  0.29483614072E+02  0.00000000000E+00 0. -1.
        -12    1    4    4    0    0  0.19314687473E+02  0.56524148219E+02 -0.14454829489E+01  0.59750530584E+02  0.00000000000E+00 0.  1.
</event>
<event>
12    1  0.8133506E-002  0.1814621E+03  0.7818608E-02  0.1166873E+00
         21   -1    0    0  501  502  0.00000000000E+00  0.00000000000E+00  0.42976854455E+02  0.42976854455E+02  0.00000000000E+00 0. -1.
         21   -1    0    0  502  503 -0.00000000000E+00 -0.00000000000E+00 -0.99833335679E+03  0.99833335679E+03  0.00000000000E+00 0. -1.
         -6    2    1    2    0  503 -0.36481114146E+02 -0.45520499839E+02 -0.22014471308E+03  0.28403556699E+03  0.16973367675E+03 0.  0.
        -24    2    3    3    0    0 -0.79016996839E+02 -0.86412969437E+01 -0.18799251686E+03  0.21903379283E+03  0.79474890389E+02 0.  0.
          6    2    1    2  501    0  0.36481114146E+02  0.45520499839E+02 -0.73521178926E+03  0.75727464426E+03  0.17182992805E+03 0.  0.
         24    2    5    5    0    0 -0.45285437386E+02  0.21156386734E+02 -0.43388529773E+03  0.44406684829E+03  0.80253041219E+02 0.  0.
          5    1    5    5  501    0  0.81766551532E+02  0.24364113105E+02 -0.30132649153E+03  0.31320779597E+03  0.47000000000E+01 0. -1.
        -11    1    6    6    0    0  0.36557782435E+01  0.32581483384E+02 -0.77417492633E+02  0.84073693505E+02  0.00000000000E+00 0.  1.
         12    1    6    6    0    0 -0.48941215630E+02 -0.11425096651E+02 -0.35646780509E+03  0.35999315478E+03  0.00000000000E+00 0. -1.
         -5    1    3    3    0  503  0.42535882693E+02 -0.36879202895E+02 -0.32152196214E+02  0.65001774160E+02  0.47000000000E+01 0.  1.
         13    1    4    4    0    0 -0.17881110656E+02  0.25588549773E+02 -0.10929155531E+03  0.11366244788E+03  0.00000000000E+00 0. -1.
        -14    1    4    4    0    0 -0.61135886182E+02 -0.34229846717E+02 -0.78700961557E+02  0.10537134495E+03  0.00000000000E+00 0.  1.
</event>
<event>
12    1  0.8133506E-002  0.2297089E+03  0.7818608E-02  0.1127011E+00
         21   -1    0    0  501  502  0.00000000000E+00  0.00000000000E+00  0.10985412090E+04  0.10985412090E+04  0.00000000000E+00 0.  1.
         21   -1    0    0  502  503 -0.00000000000E+00 -0.00000000000E+00 -0.48638675373E+02  0.48638675373E+02  0.00000000000E+00 0.  1.
         -6    2    1    2    0  503  0.69693473717E+02 -0.13526142137E+03  0.45236220535E+03  0.50734378944E+03  0.17208522152E+03 0.  0.
        -24    2    3    3    0    0  0.11434620895E+03 -0.86268265539E+02  0.32915163295E+03  0.36735403541E+03  0.78044350968E+02 0.  0.
          6    2    1    2  501    0 -0.69693473717E+02  0.13526142137E+03  0.59754032832E+03  0.63983609497E+03  0.17083018490E+03 0.  0.
         24    2    5    5    0    0 -0.72749785442E+02  0.15988968720E+03  0.56854714562E+03  0.60138369372E+03  0.86943929736E+02 0.  0.
          5    1    5    5  501    0  0.30563117249E+01 -0.24628265836E+02  0.28993182695E+02  0.38452401255E+02  0.47000000000E+01 0. -1.
        -11    1    6    6    0    0 -0.64825044841E+02  0.53024646719E+02  0.18358509039E+03  0.20178549257E+03  0.00000000000E+00 0.  1.
         12    1    6    6    0    0 -0.79247406004E+01  0.10686504048E+03  0.38496205523E+03  0.39959820115E+03  0.00000000000E+00 0. -1.
         -5    1    3    3    0  503 -0.44652735238E+02 -0.48993155828E+02  0.12321057240E+03  0.13998975403E+03  0.47000000000E+01 0.  1.
         13    1    4    4    0    0  0.89738410271E+02 -0.84843790348E+02  0.31630331284E+03  0.33955741304E+03  0.00000000000E+00 0. -1.
        -14    1    4    4    0    0  0.24607798684E+02 -0.14244751901E+01  0.12848320117E+02  0.27796622375E+02  0.00000000000E+00 0.  1.
</event>
<event>
12    1  0.8133506E-002  0.1822135E+03  0.7818608E-02  0.1165757E+00
         21   -1    0    0  503  502  0.00000000000E+00  0.00000000000E+00  0.29299834474E+03  0.29299834474E+03  0.00000000000E+00 0. -1.
         21   -1    0    0  501  503 -0.00000000000E+00 -0.00000000000E+00 -0.23203093555E+03  0.23203093555E+03  0.00000000000E+00 0. -1.
          6    2    1    2  501    0 -0.61949709494E+02  0.48432402871E+01 -0.15746418547E+03  0.24057523021E+03  0.17093931145E+03 0.  0.
         24    2    3    3    0    0 -0.50877153212E+02 -0.20227779588E+01 -0.18608234968E+03  0.20878162972E+03  0.79815735903E+02 0.  0.
         -6    2    1    2    0  502  0.61949709494E+02 -0.48432402871E+01  0.21843159466E+03  0.28445405009E+03  0.17129075160E+03 0.  0.
        -24    2    5    5    0    0  0.10861183717E+03  0.12375948175E+00  0.14649643182E+03  0.19843787197E+03  0.78229393470E+02 0.  0.
          5    1    3    3  501    0 -0.11072556282E+02  0.68660182458E+01  0.28618164206E+02  0.31793600484E+02  0.47000000000E+01 0. -1.
        -13    1    4    4    0    0  0.96328210112E+01  0.25687326314E+02 -0.43447116058E+02  0.51383673161E+02  0.00000000000E+00 0.  1.
         14    1    4    4    0    0 -0.60509974223E+02 -0.27710104273E+02 -0.14263523362E+03  0.15739795656E+03  0.00000000000E+00 0. -1.
         -5    1    5    5    0  502 -0.46662127680E+02 -0.49669997688E+01  0.71935162841E+02  0.86016178125E+02  0.47000000000E+01 0.  1.
         13    1    6    6    0    0  0.82353645935E+02  0.35582493586E+02  0.99697575510E+02  0.13411876607E+03  0.00000000000E+00 0. -1.
        -14    1    6    6    0    0  0.26258191238E+02 -0.35458734104E+02  0.46798856313E+02  0.64319105899E+02  0.00000000000E+00 0.  1.
</event>
<event>
12    1  0.8133506E-002  0.1753281E+03  0.7818608E-02  0.1173052E+00
         21   -1    0    0  503  502  0.00000000000E+00  0.00000000000E+00  0.33158220565E+03  0.33158220565E+03  0.00000000000E+00 0. -1.
         21   -1    0    0  501  503 -0.00000000000E+00 -0.00000000000E+00 -0.19619039095E+03  0.19619039095E+03  0.00000000000E+00 0. -1.
          6    2    1    2  501    0 -0.77672400235E+01 -0.31652541078E+02 -0.12543787590E+03  0.21349234904E+03  0.16965290747E+03 0.  0.
         24    2    3    3    0    0  0.20235651269E+02 -0.43881386250E+02 -0.91511914424E+01  0.93166169191E+02  0.79127322307E+02 0.  0.
         -6    2    1    2    0  502  0.77672400235E+01  0.31652541078E+02  0.26082969060E+03  0.31428024757E+03  0.17227226456E+03 0.  0.
        -24    2    5    5    0    0  0.58355253807E+01  0.82250910645E+02  0.21999061698E+03  0.24905872920E+03  0.82674744462E+02 0.  0.
          5    1    3    3  501    0 -0.28002891293E+02  0.12228845172E+02 -0.11628668446E+03  0.12032617985E+03  0.47000000000E+01 0. -1.
        -13    1    4    4    0    0  0.18421905719E+02  0.15674971439E+02 -0.21446515289E+02  0.32326836498E+02  0.00000000000E+00 0.  1.
         14    1    4    4    0    0  0.18137455504E+01 -0.59556357689E+02  0.12295323846E+02  0.60839332693E+02  0.00000000000E+00 0. -1.
         -5    1    5    5    0  502  0.19317146428E+01 -0.50598369567E+02  0.40839073620E+02  0.65221518370E+02  0.47000000000E+01 0.  1.
         11    1    6    6    0    0 -0.14734197347E+02  0.10850647516E+02  0.13471640398E+03  0.13595345757E+03  0.00000000000E+00 0. -1.
        -12    1    6    6    0    0  0.20569722728E+02  0.71400263129E+02  0.85274213001E+02  0.11310527163E+03  0.00000000000E+00 0.  1.
</event>
<event>
12    1  0.8133506E-002  0.1877300E+03  0.7818608E-02  0.1160842E+00
         21   -1    0    0  501  502  0.00000000000E+00  0.00000000000E+00  0.21887933450E+03  0.21887933450E+03  0.00000000000E+00 0. -1.
         21   -1    0    0  502  503 -0.00000000000E+00 -0.00000000000E+00 -0.19028533286E+03  0.19028533286E+03  0.00000000000E+00 0. -1.
         -6    2    1    2    0  503 -0.32206968114E+02  0.65035030985E+02 -0.67587990561E+02  0.19822976712E+03  0.17163933131E+03 0.  0.
        -24    2    3    3    0    0 -0.83784283385E+02  0.20482953158E+02 -0.50901958106E+02  0.12790465945E+03  0.79556489728E+02 0.  0.
          6    2    1    2  501    0  0.32206968114E+02 -0.65035030985E+02  0.96181992201E+02  0.21093490023E+03  0.17313495448E+03 0.  0.
         24    2    5    5    0    0  0.85064507435E+02 -0.20874719826E+02  0.56742336957E+02  0.13142622806E+03  0.79883892410E+02 0.  0.
          5    1    5    5  501    0 -0.52857539321E+02 -0.44160311159E+02  0.39439655245E+02  0.79508672172E+02  0.47000000000E+01 0. -1.
        -13    1    6    6    0    0  0.19132365033E+02  0.12695502594E+02 -0.15750540515E+02  0.27844258014E+02  0.00000000000E+00 0.  1.
         14    1    6    6    0    0  0.65932142402E+02 -0.33570222419E+02  0.72492877472E+02  0.10358197005E+03  0.00000000000E+00 0. -1.
         -5    1    3    3    0  503  0.51577315271E+02  0.44552077827E+02 -0.16686032455E+02  0.70325107667E+02  0.47000000000E+01 0.  1.
         11    1    4    4    0    0 -0.75962014945E+02  0.13500362203E+01 -0.67319025470E+02  0.10150813515E+03  0.00000000000E+00 0. -1.
        -12    1    4    4    0    0 -0.78222684400E+01  0.19132916937E+02  0.16417067364E+02  0.26396524296E+02  0.00000000000E+00 0.  1.
</event>
<event>
12    1  0.8133506E-002  0.1997867E+03  0.7818608E-02  0.1152889E+00
         21   -1    0    0  501  502  0.00000000000E+00  0.00000000000E+00  0.40579544147E+03  0.40579544147E+03  0.00000000000E+00 0.  1.
         21   -1    0    0  502  503 -0.00000000000E+00 -0.00000000000E+00 -0.14261378098E+03  0.14261378098E+03  0.00000000000E+00 0.  1.
         -6    2    1    2    0  503 -0.38635430893E+02 -0.61826793868E+02 -0.29037476416E+02  0.20188587885E+03  0.18600936558E+03 0.  0.
        -24    2    3    3    0    0 -0.42474968899E+02 -0.10800173239E+03  0.10256768336E+02  0.14095153164E+03  0.79332438471E+02 0.  0.
          6    2    1    2  501    0  0.38635430893E+02  0.61826793868E+02  0.29221913691E+03  0.34652334360E+03  0.17138014683E+03 0.  0.
         24    2    5    5    0    0  0.68968752458E+02  0.98531113240E+00  0.15342188777E+03  0.19189940371E+03  0.92354999025E+02 0.  0.
          5    1    5    5  501    0 -0.30333321565E+02  0.60841482736E+02  0.13879724913E+03  0.15462393989E+03  0.47000000000E+01 0. -1.
        -11    1    6    6    0    0 -0.61217968472E+00 -0.33201824514E+02  0.72981974693E+02  0.80181697071E+02  0.00000000000E+00 0.  1.
         12    1    6    6    0    0  0.69580932143E+02  0.34187135647E+02  0.80439913077E+02  0.11171770664E+03  0.00000000000E+00 0. -1.
         -5    1    3    3    0  503  0.38395380060E+01  0.46174938519E+02 -0.39294244752E+02  0.60934347210E+02  0.47000000000E+01 0.  1.
         11    1    4    4    0    0 -0.42838864135E+02 -0.75508286147E+02  0.41187377222E+02  0.96088863037E+02  0.00000000000E+00 0. -1.
        -12    1    4    4    0    0  0.36389523568E+00 -0.32493446239E+02 -0.30930608886E+02  0.44862668604E+02  0.00000000000E+00 0.  1.
</event>
<event>
12    1  0.8133506E-002  0.1878660E+03  0.7818608E-02  0.1161112E+00
         21   -1    0    0  501  502  0.00000000000E+00  0.00000000000E+00  0.15795930030E+03  0.15795930030E+03  0.00000000000E+00 0. -1.
         21   -1    0    0  502  503 -0.00000000000E+00 -0.00000000000E+00 -0.29863690366E+03  0.29863690366E+03  0.00000000000E+00 0. -1.
         -6    2    1    2    0  503  0.66513067836E+02  0.31138671602E+02 -0.18721789722E+03  0.26305128654E+03  0.16956365545E+03 0.  0.
        -24    2    3    3    0    0  0.81573468585E+02 -0.28718631755E+02 -0.14841915859E+03  0.18999552321E+03  0.81185353472E+02 0.  0.
          6    2    1    2  501    0 -0.66513067836E+02 -0.31138671602E+02  0.46540293865E+02  0.19354491742E+03  0.17291625443E+03 0.  0.
         24    2    5    5    0    0 -0.72643343015E+01  0.39392407188E+02  0.48948206752E+02  0.10127935751E+03  0.79101510840E+02 0.  0.
          5    1    5    5  501    0 -0.59248733534E+02 -0.70531078789E+02 -0.24079128873E+01  0.92265559908E+02  0.47000000000E+01 0. -1.
        -11    1    6    6    0    0 -0.17160436060E+02 -0.19559180036E+02  0.36423316754E+01  0.26273725840E+02  0.00000000000E+00 0.  1.
         12    1    6    6    0    0  0.98961017588E+01  0.58951587224E+02  0.45305875077E+02  0.75005631673E+02  0.00000000000E+00 0. -1.
         -5    1    3    3    0  503 -0.15060400749E+02  0.59857303357E+02 -0.38798738633E+02  0.73055763327E+02  0.47000000000E+01 0.  1.
         11    1    4    4    0    0  0.28739291138E+02  0.27153283805E+02 -0.68483379714E+02  0.79077310106E+02  0.00000000000E+00 0. -1.
        -12    1    4    4    0    0  0.52834177447E+02 -0.55871915560E+02 -0.79935778873E+02  0.11091821311E+03  0.00000000000E+00 0.  1.
</event>
<event>
12    1  0.8133506E-002  0.2004473E+03  0.7818608E-02  0.1149513E+00
         21   -1    0    0  503  502  0.00000000000E+00  0.00000000000E+00  0.24946161011E+02  0.24946161011E+02  0.00000000000E+00 0.  1.
         21   -1    0    0  501  503 -0.00000000000E+00 -0.00000000000E+00 -0.21143624582E+04  0.21143624582E+04  0.00000000000E+00 0. -1.
          6    2    1    2  501    0  0.18858909328E+02 -0.10051342812E+03 -0.15683549575E+04  0.15810219101E+04  0.17156456454E+03 0.  0.
         24    2    3    3    0    0  0.59554157313E+02 -0.84240111638E+02 -0.74736416582E+03  0.75884863514E+03  0.81577942100E+02 0.  0.
         -6    2    1    2    0  502 -0.18858909328E+02  0.10051342812E+03 -0.52106133972E+03  0.55828670914E+03  0.17239640994E+03 0.  0.
        -24    2    5    5    0    0  0.40930460332E+02  0.89278593887E+01 -0.24151961296E+03  0.25807286515E+03  0.80714750982E+02 0.  0.
          5    1    3    3  501    0 -0.40695247985E+02 -0.16273316482E+02 -0.82099079166E+03  0.82217327495E+03  0.47000000000E+01 0. -1.
        -13    1    4    4    0    0  0.12283012120E+01 -0.22982610251E+01  0.16677762492E+01  0.30938980630E+01  0.00000000000E+00 0.  1.
         14    1    4    4    0    0  0.58325856101E+02 -0.81941850613E+02 -0.74903194207E+03  0.75575473707E+03  0.00000000000E+00 0. -1.
         -5    1    5    5    0  502 -0.59789369660E+02  0.91585568731E+02 -0.27954172675E+03  0.30021384399E+03  0.47000000000E+01 0.  1.
         11    1    6    6    0    0  0.32701275413E+02  0.25701107443E+02 -0.47419243116E+02  0.63075391043E+02  0.00000000000E+00 0. -1.
        -12    1    6    6    0    0  0.82291849187E+01 -0.16773248054E+02 -0.19410036985E+03  0.19499747411E+03  0.00000000000E+00 0.  1.
</event>
<event>
12    1  0.8133506E-002  0.2642322E+03  0.7818608E-02  0.1104659E+00
         21   -1    0    0  503  502  0.00000000000E+00  0.00000000000E+00  0.13830583406E+04  0.13830583406E+04  0.00000000000E+00 0. -1.
         21   -1    0    0  501  503 -0.00000000000E+00 -0.00000000000E+00 -0.52526358299E+02  0.52526358299E+02  0.00000000000E+00 0. -1.
          6    2    1    2  501    0 -0.13805306255E+03 -0.14418060776E+03  0.52192250023E+03  0.58489794048E+03  0.17278833525E+03 0.  0.
         24    2    3    3    0    0 -0.12102692771E+03 -0.37663573921E+02  0.36467747429E+03  0.39415241380E+03  0.79375078076E+02 0.  0.
         -6    2    1    2    0  502  0.13805306255E+03  0.14418060776E+03  0.80860948209E+03  0.85068675844E+03  0.17312414830E+03 0.  0.
        -24    2    5    5    0    0  0.15891446771E+03  0.14935507030E+03  0.78319199800E+03  0.81706962315E+03  0.81561745133E+02 0.  0.
          5    1    3    3  501    0 -0.17026134841E+02 -0.10651703384E+03  0.15724502594E+03  0.19074552668E+03  0.47000000000E+01 0. -1.
        -11    1    4    4    0    0 -0.10518335214E+03 -0.15525720771E+02  0.34374251665E+03  0.35981037134E+03  0.00000000000E+00 0.  1.
         12    1    4    4    0    0 -0.15843575564E+02 -0.22137853150E+02  0.20934957642E+02  0.34342042459E+02  0.00000000000E+00 0. -1.
         -5    1    5    5    0  502 -0.20861405159E+02 -0.51744625380E+01  0.25417484090E+02  0.33617135292E+02  0.47000000000E+01 0.  1.
         13    1    6    6    0    0  0.23326226680E+02 -0.37636552178E+01  0.42135932808E+02  0.48308537396E+02  0.00000000000E+00 0. -1.
        -14    1    6    6    0    0  0.13558824103E+03  0.15311872552E+03  0.74105606520E+03  0.76876108575E+03  0.00000000000E+00 0.  1.
</event>
<event>
12    1  0.8133506E-002  0.1897791E+03  0.7818608E-02  0.1159105E+00
         21   -1    0    0  503  502  0.00000000000E+00  0.00000000000E+00  0.72089176266E+02  0.72089176266E+02  0.00000000000E+00 0. -1.
         21   -1    0    0  501  503 -0.00000000000E+00 -0.00000000000E+00 -0.63491715614E+03  0.63491715614E+03  0.00000000000E+00 0. -1.
          6    2    1    2  501    0  0.73105942462E+02 -0.24258067943E+02 -0.44880715938E+03  0.48728221334E+03  0.17344496663E+03 0.  0.
         24    2    3    3    0    0  0.27975530291E+02  0.50233358782E+02 -0.17363434757E+03  0.19861650163E+03  0.77418392104E+02 0.  0.
         -6    2    1    2    0  502 -0.73105942462E+02  0.24258067943E+02 -0.11402082049E+03  0.21972411906E+03  0.17130384790E+03 0.  0.
        -24    2    5    5    0    0 -0.71769273044E+02 -0.17406195938E+02 -0.13491717432E+02  0.11079346161E+03  0.81482270991E+02 0.  0.
          5    1    3    3  501    0  0.45130412171E+02 -0.74491426725E+02 -0.27517281181E+03  0.28866571171E+03  0.47000000000E+01 0. -1.
        -13    1    4    4    0    0  0.10376242513E+02  0.62120896452E+02 -0.16324590785E+03  0.17497399411E+03  0.00000000000E+00 0.  1.
         14    1    4    4    0    0  0.17599287778E+02 -0.11887537670E+02 -0.10388439714E+02  0.23642507520E+02  0.00000000000E+00 0. -1.
         -5    1    5    5    0  502 -0.13366694179E+01  0.41664263882E+02 -0.10052910306E+03  0.10893065745E+03  0.47000000000E+01 0.  1.
         13    1    6    6    0    0 -0.33954016427E+02  0.84765534740E+01 -0.43641218050E+02  0.55939995560E+02  0.00000000000E+00 0. -1.
        -14    1    6    6    0    0 -0.37815256617E+02 -0.25882749412E+02  0.30149500618E+02  0.54853466050E+02  0.00000000000E+00 0.  1.
</event>
<event>
12    1  0.8133506E-002  0.2422111E+03  0.7818608E-02  0.1118346E+00
         21   -1    0    0  503  502  0.00000000000E+00  0.00000000000E+00  0.20364595021E+03  0.20364595021E+03  0.00000000000E+00 0. -1.
         21   -1    0    0  501  503 -0.00000000000E+00 -0.00000000000E+00 -0.49436514844E+03  0.49436514844E+03  0.00000000000E+00 0. -1.
          6    2    1    2  501    0  0.13073492630E+03 -0.11023840340E+03 -0.37085560145E+03  0.44288743765E+03  0.17138050868E+03 0.  0.
         24    2    3    3    0    0  0.15692694155E+03 -0.84152209323E+02 -0.34818985386E+03  0.39927164580E+03  0.80461254594E+02 0.  0.
         -6    2    1    2    0  502 -0.13073492630E+03  0.11023840340E+03  0.80136403227E+02  0.25512366100E+03  0.17152875194E+03 0.  0.
        -24    2    5    5    0    0 -0.11325944708E+03  0.14021461752E+03  0.34311410275E+02  0.19745230099E+03  0.72954074403E+02 0.  0.
          5    1    3    3  501    0 -0.26192015251E+02 -0.26086194076E+02 -0.22665747598E+02  0.43615791847E+02  0.47000000000E+01 0. -1.
        -11    1    4    4    0    0  0.50515636124E+02 -0.11135539227E+02 -0.40774385991E+02  0.65866382016E+02  0.00000000000E+00 0.  1.
         12    1    4    4    0    0  0.10641130543E+03 -0.73016670095E+02 -0.30741546787E+03  0.33340526378E+03  0.00000000000E+00 0. -1.
         -5    1    5    5    0  502 -0.17475479225E+02 -0.29976214121E+02  0.45824992952E+02  0.57671360017E+02  0.47000000000E+01 0.  1.
         11    1    6    6    0    0 -0.74408264315E+02  0.13519707395E+03  0.19394682792E+02  0.15553453740E+03  0.00000000000E+00 0. -1.
        -12    1    6    6    0    0 -0.38851182762E+02  0.50175435679E+01  0.14916727483E+02  0.41917763589E+02  0.00000000000E+00 0.  1.
</event>
<event>
12    1  0.8133506E-002  0.2207895E+03  0.7818608E-02  0.1133989E+00
         21   -1    0    0  503  502  0.00000000000E+00  0.00000000000E+00  0.28787167345E+03  0.28787167345E+03  0.00000000000E+00 0.  1.
         21   -1    0    0  501  503 -0.00000000000E+00 -0.00000000000E+00 -0.23328283878E+03  0.23328283878E+03  0.00000000000E+00 0. -1.
          6    2    1    2  501    0  0.13030414858E+03 -0.49066650124E+02 -0.11227709861E+03  0.24440149947E+03  0.16655100955E+03 0.  0.
         24    2    3    3    0    0  0.29264261435E+02 -0.13646716534E+02  0.27896917381E+01  0.87156191975E+02  0.80906053853E+02 0.  0.
         -6    2    1    2    0  502 -0.13030414858E+03  0.49066650124E+02  0.16686593328E+03  0.27675301275E+03  0.17135134399E+03 0.  0.
        -24    2    5    5    0    0 -0.14778861527E+03  0.33335033025E+02  0.18105512869E+03  0.24888522456E+03  0.78804797756E+02 0.  0.
          5    1    3    3  501    0  0.10103988714E+03 -0.35419933590E+02 -0.11506679035E+03  0.15724530750E+03  0.47000000000E+01 0. -1.
        -11    1    4    4    0    0  0.32902528508E+02  0.19974504205E+02 -0.22809889953E+02  0.44742019178E+02  0.00000000000E+00 0.  1.
         12    1    4    4    0    0 -0.36382670733E+01 -0.33621220739E+02  0.25599581691E+02  0.42414172797E+02  0.00000000000E+00 0. -1.
         -5    1    5    5    0  502  0.17484466694E+02  0.15731617099E+02 -0.14189195414E+02  0.27867788190E+02  0.47000000000E+01 0.  1.
         13    1    6    6    0    0  0.42770721323E+01  0.13099370024E+02  0.34597493347E+01  0.14207628462E+02  0.00000000000E+00 0. -1.
        -14    1    6    6    0    0 -0.15206568740E+03  0.20235663001E+02  0.17759537936E+03  0.23467759610E+03  0.00000000000E+00 0.  1.
</event>
<event>
12    1  0.8133506E-002  0.2772651E+03  0.7818608E-02  0.1097404E+00
         21   -1    0    0  503  502  0.00000000000E+00  0.00000000000E+00  0.24472679327E+03  0.24472679327E+03  0.00000000000E+00 0. -1.
         21   -1    0    0  501  503 -0.00000000000E+00 -0.00000000000E+00 -0.46646079684E+03  0.46646079684E+03  0.00000000000E+00 0.  1.
          6    2    1    2  501    0  0.21299433078E+03  0.40351826688E+02 -0.31501777451E+03  0.41865077474E+03  0.17040369148E+03 0.  0.
         24    2    3    3    0    0  0.18642653735E+03  0.87703322178E+02 -0.23742558344E+03  0.32383173715E+03  0.77777630251E+02 0.  0.
         -6    2    1    2    0  502 -0.21299433078E+03 -0.40351826688E+02  0.93283770950E+02  0.29253681537E+03  0.17286142301E+03 0.  0.
        -24    2    5    5    0    0 -0.36917308132E+02 -0.45812055783E+02  0.17928850982E+02  0.10087725790E+03  0.79957147081E+02 0.  0.
          5    1    3    3  501    0  0.26567793427E+02 -0.47351495491E+02 -0.77592191077E+02  0.94819037587E+02  0.47000000000E+01 0. -1.
        -13    1    4    4    0    0  0.42360178686E+02  0.10426416129E+02 -0.10411474865E+03  0.11288478984E+03  0.00000000000E+00 0.  1.
         14    1    4    4    0    0  0.14406635866E+03  0.77276906049E+02 -0.13331083479E+03  0.21094694731E+03  0.00000000000E+00 0. -1.
         -5    1    5    5    0  502 -0.17607702265E+03  0.54602290958E+01  0.75354919968E+02  0.19165955747E+03  0.47000000000E+01 0.  1.
         13    1    6    6    0    0  0.23322449124E+02 -0.94020206245E+01  0.17234571470E+02  0.30485489642E+02  0.00000000000E+00 0. -1.
        -14    1    6    6    0    0 -0.60239757257E+02 -0.36410035159E+02  0.69427951193E+00  0.70391768259E+02  0.00000000000E+00 0.  1.
</event>
<event>
12    1  0.8133506E-002  0.1994727E+03  0.7818608E-02  0.1150456E+00
         21   -1    0    0  501  502  0.00000000000E+00  0.00000000000E+00  0.58327878621E+03  0.58327878621E+03  0.00000000000E+00 0.  1.
         21   -1    0    0  502  503 -0.00000000000E+00 -0.00000000000E+00 -0.16506515598E+03  0.16506515598E+03  0.00000000000E+00 0.  1.
         -6    2    1    2    0  503  0.91359085672E+02 -0.45125767885E+02 -0.77871063570E+02  0.21413378879E+03  0.17148340882E+03 0.  0.
        -24    2    3    3    0    0  0.30526939507E+02  0.46553488149E+01 -0.10108270360E+03  0.13203884486E+03  0.79138974442E+02 0.  0.
          6    2    1    2  501    0 -0.91359085672E+02  0.45125767885E+02  0.49608469380E+03  0.53421015339E+03  0.16999307957E+03 0.  0.
         24    2    5    5    0    0 -0.49459345683E+02  0.33075324819E+02  0.12228645984E+03  0.15784861032E+03  0.80137391605E+02 0.  0.
          5    1    5    5  501    0 -0.41899739989E+02  0.12050443066E+02  0.37379823396E+03  0.37636154307E+03  0.47000000000E+01 0. -1.
        -11    1    6    6    0    0 -0.67110680669E+02  0.61155951869E+01  0.77992561644E+02  0.10307319553E+03  0.00000000000E+00 0.  1.
         12    1    6    6    0    0  0.17651334985E+02  0.26959729632E+02  0.44293898199E+02  0.54775414798E+02  0.00000000000E+00 0. -1.
         -5    1    3    3    0  503  0.60832146165E+02 -0.49781116700E+02  0.23211640029E+02  0.82094943936E+02  0.47000000000E+01 0.  1.
         13    1    4    4    0    0  0.49709807108E+01  0.20468608594E+02  0.51108250520E+01  0.21674757662E+02  0.00000000000E+00 0. -1.
        -14    1    4    4    0    0  0.25555958796E+02 -0.15813259779E+02 -0.10619352865E+03  0.11036408719E+03  0.00000000000E+00 0.  1.
</event>
<event>
12    1  0.8133506E-002  0.1888752E+03  0.7818608E-02  0.1159623E+00
         21   -1    0    0  503  502  0.00000000000E+00  0.00000000000E+00  0.15553758991E+03  0.15553758991E+03  0.00000000000E+00 0.  1.
         21   -1    0    0  501  503 -0.00000000000E+00 -0.00000000000E+00 -0.46664618726E+03  0.46664618726E+03  0.00000000000E+00 0.  1.
          6    2    1    2  501    0  0.74002611343E+02 -0.25879028531E+02 -0.37787424071E+03  0.42244857219E+03  0.17183638657E+03 0.  0.
         24    2    3    3    0    0 -0.88138291798E+01 -0.35959468220E+02 -0.28092790653E+03  0.29446083920E+03  0.80099501965E+02 0.  0.
         -6    2    1    2    0  502 -0.74002611343E+02  0.25879028531E+02  0.66765643362E+02  0.19973520498E+03  0.17114435536E+03 0.  0.
        -24    2    5    5    0    0 -0.85725674278E+02 -0.40329036538E+02  0.45719487667E+02  0.12912381245E+03  0.74882340854E+02 0.  0.
          5    1    3    3  501    0  0.82816440523E+02  0.10080439689E+02 -0.96946334183E+02  0.12798773299E+03  0.47000000000E+01 0. -1.
        -13    1    4    4    0    0  0.31139672844E+02  0.29062864970E+01 -0.12558492318E+03  0.12942062686E+03  0.00000000000E+00 0.  1.
         14    1    4    4    0    0 -0.39953502023E+02 -0.38865754717E+02 -0.15534298334E+03  0.16504021233E+03  0.00000000000E+00 0. -1.
         -5    1    5    5    0  502  0.11723062935E+02  0.66208065070E+02  0.21046155694E+02  0.70611392525E+02  0.47000000000E+01 0.  1.
         13    1    6    6    0    0 -0.52072148569E+02  0.19328326185E+01 -0.82541754050E+01  0.52757709485E+02  0.00000000000E+00 0. -1.
        -14    1    6    6    0    0 -0.33653525709E+02 -0.42261869157E+02  0.53973663072E+02  0.76366102969E+02  0.00000000000E+00 0.  1.
</event>
<event>
12    1  0.8133506E-002  0.1813241E+03  0.7818608E-02  0.1166646E+00
         21   -1    0    0  501  502  0.00000000000E+00  0.00000000000E+00  0.14534730611E+03  0.14534730611E+03  0.00000000000E+00 0. -1.
         21   -1    0    0  502  503 -0.00000000000E+00 -0.00000000000E+00 -0.23062580639E+03  0.23062580639E+03  0.00000000000E+00 0. -1.
         -6    2    1    2    0  503  0.15586444163E+02  0.55056486820E+02 -0.70468753629E+02  0.19453603861E+03  0.17205891752E+03 0.  0.
        -24    2    3    3    0    0  0.51487235234E+02  0.48451660321E+02 -0.10165924116E+03  0.14629262409E+03  0.77900139737E+02 0.  0.
          6    2    1    2  501    0 -0.15586444163E+02 -0.55056486820E+02 -0.14809746648E+02  0.18143707389E+03  0.17153987642E+03 0.  0.
         24    2    5    5    0    0 -0.30277560083E+02 -0.74520912372E+02 -0.61221975557E+02  0.12879794641E+03  0.79816562715E+02 0.  0.
          5    1    5    5  501    0  0.14691115920E+02  0.19464425552E+02  0.46412228909E+02  0.52639127475E+02  0.47000000000E+01 0. -1.
        -11    1    6    6    0    0 -0.91627286381E+01  0.12714593072E+02  0.58738210963E+01  0.16736733473E+02  0.00000000000E+00 0.  1.
         12    1    6    6    0    0 -0.21114831445E+02 -0.87235505443E+02 -0.67095796654E+02  0.11206121294E+03  0.00000000000E+00 0. -1.
         -5    1    3    3    0  503 -0.35900791071E+02  0.66048264991E+01  0.31190487527E+02  0.48243414523E+02  0.47000000000E+01 0.  1.
         11    1    4    4    0    0  0.21799042182E+02  0.19850506448E+01  0.81974430364E+01  0.23373847319E+02  0.00000000000E+00 0. -1.
        -12    1    4    4    0    0  0.29688193052E+02  0.46466609676E+02 -0.10985668419E+03  0.12291877677E+03  0.00000000000E+00 0.  1.
</event>
<event>
12    1  0.8133506E-002  0.1882789E+03  0.7818608E-02  0.1160088E+00
         21   -1    0    0  503  502  0.00000000000E+00  0.00000000000E+00  0.22601906330E+03  0.22601906330E+03  0.00000000000E+00 0.  1.
         21   -1    0    0  501  503 -0.00000000000E+00 -0.00000000000E+00 -0.16474761661E+03  0.16474761661E+03  0.00000000000E+00 0.  1.
          6    2    1    2  501    0  0.40896403768E+02  0.64305083566E+02  0.74053680565E+02  0.20205440091E+03  0.17185567697E+03 0.  0.
         24    2    3    3    0    0  0.92435019140E+02  0.48993925188E+02  0.64229529090E+02  0.14719763836E+03  0.81222379075E+02 0.  0.
         -6    2    1    2    0  502 -0.40896403768E+02 -0.64305083566E+02 -0.12782233872E+02  0.18871227900E+03  0.17216642858E+03 0.  0.
        -24    2    5    5    0    0 -0.26180197303E+01 -0.10307745483E+03  0.46472067449E+01  0.13131535523E+03  0.81180725950E+02 0.  0.
          5    1    3    3  501    0 -0.51538615372E+02  0.15311158378E+02  0.98241514748E+01  0.54856762551E+02  0.47000000000E+01 0. -1.
        -11    1    4    4    0    0 -0.17615144158E+01  0.33656314601E+02  0.30621174777E+01  0.33841202830E+02  0.00000000000E+00 0.  1.
         12    1    4    4    0    0  0.94196533555E+02  0.15337610587E+02  0.61167411612E+02  0.11335643553E+03  0.00000000000E+00 0. -1.
         -5    1    5    5    0  502 -0.38278384038E+02  0.38772371267E+02 -0.17429440617E+02  0.57396923771E+02  0.47000000000E+01 0.  1.
         11    1    6    6    0    0 -0.19621108086E+02 -0.26693610278E+02  0.34249079999E+02  0.47650143683E+02  0.00000000000E+00 0. -1.
        -12    1    6    6    0    0  0.17003088356E+02 -0.76383844555E+02 -0.29601873254E+02  0.83665211545E+02  0.00000000000E+00 0.  1.
</event>
<event>
12    1  0.8133506E-002  0.2493793E+03  0.7818608E-02  0.1113753E+00
         21   -1    0    0  501  502  0.00000000000E+00  0.00000000000E+00  0.13170980186E+03  0.13170980186E+03  0.00000000000E+00 0.  1.
         21   -1    0    0  502  503 -0.00000000000E+00 -0.00000000000E+00 -0.53931544779E+03  0.53931544779E+03  0.00000000000E+00 0. -1.
         -6    2    1    2    0  503 -0.14294562154E+03  0.11177891291E+03 -0.32263985546E+03  0.40756891261E+03  0.17055194548E+03 0.  0.
        -24    2    3    3    0    0 -0.15380078784E+03  0.69159896555E+02 -0.30926129023E+03  0.36135970143E+03  0.80625768523E+02 0.  0.
          6    2    1    2  501    0  0.14294562154E+03 -0.11177891291E+03 -0.84965790480E+02  0.26345633704E+03  0.17106162599E+03 0.  0.
         24    2    5    5    0    0  0.11726384180E+03 -0.59083695655E+02 -0.12013551911E+03  0.19493378934E+03  0.79529539100E+02 0.  0.
          5    1    5    5  501    0  0.25681779738E+02 -0.52695217252E+02  0.35169728626E+02  0.68522547700E+02  0.47000000000E+01 0. -1.
        -11    1    6    6    0    0  0.80084739633E+02 -0.28638515589E+02 -0.25491816204E+02  0.88789429498E+02  0.00000000000E+00 0.  1.
         12    1    6    6    0    0  0.37179102166E+02 -0.30445180067E+02 -0.94643702901E+02  0.10614435984E+03  0.00000000000E+00 0. -1.
         -5    1    3    3    0  503  0.10855166305E+02  0.42619016352E+02 -0.13378565228E+02  0.46209211180E+02  0.47000000000E+01 0.  1.
         13    1    4    4    0    0 -0.12967116246E+03  0.57357121544E+02 -0.17898026465E+03  0.22833831238E+03  0.00000000000E+00 0. -1.
        -14    1    4    4    0    0 -0.24129625384E+02  0.11802775011E+02 -0.13028102558E+03  0.13302138905E+03  0.00000000000E+00 0.  1.
</event>
<event>
12    1  0.8133506E-002  0.2013575E+03  0.7818608E-02  0.1148726E+00
         21   -1    0    0  501  502  0.00000000000E+00  0.00000000000E+00  0.10852047964E+03  0.10852047964E+03  0.00000000000E+00 0. -1.
         21   -1    0    0  502  503 -0.00000000000E+00 -0.00000000000E+00 -0.44216183430E+03  0.44216183430E+03  0.00000000000E+00 0. -1.
         -6    2    1    2    0  503 -0.66018622057E+02 -0.80914634085E+02 -0.27590634888E+03  0.34121111361E+03  0.17144991757E+03 0.  0.
        -24    2    3    3    0    0 -0.55955129433E+02 -0.12224060257E+03 -0.19883717790E+03  0.25305865097E+03  0.80179274701E+02 0.  0.
          6    2    1    2  501    0  0.66018622057E+02  0.80914634085E+02 -0.57735005783E+02  0.20947120033E+03  0.17216043798E+03 0.  0.
         24    2    5    5    0    0  0.15119555160E+02  0.10672243981E+03 -0.67079016161E+02  0.15145259661E+03  0.82583379097E+02 0.  0.
          5    1    5    5  501    0  0.50899066897E+02 -0.25807805726E+02  0.93440103779E+01  0.58018603717E+02  0.47000000000E+01 0. -1.
        -11    1    6    6    0    0 -0.23017010828E+02  0.34099234397E+02  0.60216779268E+01  0.41578854951E+02  0.00000000000E+00 0.  1.
         12    1    6    6    0    0  0.38136565989E+02  0.72623205414E+02 -0.73100694088E+02  0.10987374166E+03  0.00000000000E+00 0. -1.
         -5    1    3    3    0  503 -0.10063492625E+02  0.41325968481E+02 -0.77069170978E+02  0.88152462642E+02  0.47000000000E+01 0.  1.
         11    1    4    4    0    0 -0.11272753506E+02 -0.71396022556E+02 -0.15864994710E+03  0.17433953287E+03  0.00000000000E+00 0. -1.
        -12    1    4    4    0    0 -0.44682375927E+02 -0.50844580010E+02 -0.40187230802E+02  0.78719118099E+02  0.00000000000E+00 0.  1.
</event>
<event>
12    1  0.8133506E-002  0.2717454E+03  0.7818608E-02  0.1102456E+00
         21   -1    0    0  503  502  0.00000000000E+00  0.00000000000E+00  0.35360084210E+03  0.35360084210E+03  0.00000000000E+00 0. -1.
         21   -1    0    0  501  503 -0.00000000000E+00 -0.00000000000E+00 -0.27252558564E+03  0.27252558564E+03  0.00000000000E+00 0. -1.
          6    2    1    2  501    0  0.17759252434E+03  0.68101540302E+02 -0.12276176243E+03  0.29818789422E+03  0.19408411952E+03 0.  0.
         24    2    3    3    0    0  0.16251606850E+03  0.83255645609E+02 -0.15957389900E+03  0.25536068526E+03  0.80014219275E+02 0.  0.
         -6    2    1    2    0  502 -0.17759252434E+03 -0.68101540302E+02  0.20383701889E+03  0.32793853352E+03  0.17267665448E+03 0.  0.
        -24    2    5    5    0    0 -0.84643046996E+02 -0.79601538578E+02  0.72950595824E+02  0.16692548733E+03  0.95086689613E+02 0.  0.
          5    1    3    3  501    0  0.15076455841E+02 -0.15154105306E+02  0.36812136571E+02  0.42827208960E+02  0.47000000000E+01 0. -1.
        -11    1    4    4    0    0  0.23209873278E+02  0.16433737757E+02  0.58196521942E+01  0.29028164012E+02  0.00000000000E+00 0.  1.
         12    1    4    4    0    0  0.13930619522E+03  0.66821907852E+02 -0.16539355120E+03  0.22633252125E+03  0.00000000000E+00 0. -1.
         -5    1    5    5    0  502 -0.92949477347E+02  0.11499998276E+02  0.13088642307E+03  0.16101304619E+03  0.47000000000E+01 0.  1.
         11    1    6    6    0    0  0.11262090804E+02 -0.13395732913E+02  0.43258950106E+02  0.46664945235E+02  0.00000000000E+00 0. -1.
        -12    1    6    6    0    0 -0.95905137800E+02 -0.66205805665E+02  0.29691645719E+02  0.12026054210E+03  0.00000000000E+00 0.  1.
</event>
<event>
12    1  0.8133506E-002  0.2814666E+03  0.7818608E-02  0.1095050E+00
         21   -1    0    0  501  502  0.00000000000E+00  0.00000000000E+00  0.13110065136E+03  0.13110065136E+03  0.00000000000E+00 0. -1.
         21   -1    0    0  502  503 -0.00000000000E+00 -0.00000000000E+00 -0.65154393187E+03  0.65154393187E+03  0.00000000000E+00 0.  1.
         -6    2    1    2    0  503 -0.16709409596E+03  0.14608117301E+03 -0.36887365544E+03  0.46399485077E+03  0.17309910991E+03 0.  0.
        -24    2    3    3    0    0 -0.17387603986E+03  0.92334593631E+02 -0.21502228579E+03  0.30081696164E+03  0.74146521211E+02 0.  0.
          6    2    1    2  501    0  0.16709409596E+03 -0.14608117301E+03 -0.15156962507E+03  0.31864973245E+03  0.17118456336E+03 0.  0.
         24    2    5    5    0    0  0.78753552990E+02 -0.11355345806E+02 -0.92827995192E+02  0.14710449314E+03  0.81802379087E+02 0.  0.
          5    1    5    5  501    0  0.88340542972E+02 -0.13472582721E+03 -0.58741629878E+02  0.17154523931E+03  0.47000000000E+01 0. -1.
        -11    1    6    6    0    0  0.84565802370E+02 -0.32761245968E+02 -0.82642969064E+02  0.12269692133E+03  0.00000000000E+00 0.  1.
         12    1    6    6    0    0 -0.58122493802E+01  0.21405900162E+02 -0.10185026128E+02  0.24407571813E+02  0.00000000000E+00 0. -1.
         -5    1    3    3    0  503  0.67819438934E+01  0.53746579382E+02 -0.15385136965E+03  0.16317788914E+03  0.47000000000E+01 0.  1.
         13    1    4    4    0    0 -0.16721967257E+02  0.33664497473E+02 -0.16888765588E+02  0.41208651787E+02  0.00000000000E+00 0. -1.
        -14    1    4    4    0    0 -0.15715407260E+03  0.58670096158E+02 -0.19813352020E+03  0.25960830985E+03  0.00000000000E+00 0.  1.
</event>
<event>
12    1  0.8133506E-002  0.2961791E+03  0.7818608E-02  0.1087397E+00
         21   -1    0    0  501  502  0.00000000000E+00  0.00000000000E+00  0.44158055139E+02  0.44158055139E+02  0.00000000000E+00 0.  1.
         21   -1    0    0  502  503 -0.00000000000E+00 -0.00000000000E+00 -0.20101613125E+04  0.20101613125E+04  0.00000000000E+00 0.  1.
         -6    2    1    2    0  503 -0.24066801420E+03  0.10758133571E+02 -0.84900786158E+03  0.89918652095E+03  0.17229399278E+03 0.  0.
        -24    2    3    3    0    0 -0.12478977910E+03  0.71617833206E+02 -0.50702501239E+03  0.53298162264E+03  0.79331228934E+02 0.  0.
          6    2    1    2  501    0  0.24066801420E+03 -0.10758133571E+02 -0.11169953958E+04  0.11551328467E+04  0.16916367457E+03 0.  0.
         24    2    5    5    0    0  0.10816792986E+03  0.49770434718E+02 -0.44565798366E+03  0.46815687124E+03  0.79890052335E+02 0.  0.
          5    1    5    5  501    0  0.13250008434E+03 -0.60528568289E+02 -0.67133741216E+03  0.68697597549E+03  0.47000000000E+01 0. -1.
        -13    1    6    6    0    0  0.18083369266E+02 -0.14293463440E+02 -0.16352062867E+03  0.16513723790E+03  0.00000000000E+00 0.  1.
         14    1    6    6    0    0  0.90084560597E+02  0.64063898158E+02 -0.28213735500E+03  0.30301963334E+03  0.00000000000E+00 0. -1.
         -5    1    3    3    0  503 -0.11587823510E+03 -0.60859699635E+02 -0.34198284918E+03  0.36620489831E+03  0.47000000000E+01 0.  1.
         13    1    4    4    0    0 -0.11055595291E+03  0.25197270450E+02 -0.39344539031E+03  0.40945915098E+03  0.00000000000E+00 0. -1.
        -14    1    4    4    0    0 -0.14233826190E+02  0.46420562755E+02 -0.11357962208E+03  0.12352247166E+03  0.00000000000E+00 0.  1.
</event>
<event>
12    1  0.8133506E-002  0.3012641E+03  0.7818608E-02  0.1085724E+00
         21   -1    0    0  503  502  0.00000000000E+00  0.00000000000E+00  0.47663022951E+03  0.47663022951E+03  0.00000000000E+00 0. -1.
         21   -1    0    0  501  503 -0.00000000000E+00 -0.00000000000E+00 -0.34940193422E+03  0.34940193422E+03  0.00000000000E+00 0.  1.
          6    2    1    2  501    0  0.65277507702E+02 -0.23847451767E+03 -0.21927426242E+03  0.37261406461E+03  0.17213015539E+03 0.  0.
         24    2    3    3    0    0 -0.15283825269E+02 -0.15751128859E+03 -0.17769817932E+03  0.25097593934E+03  0.79805249482E+02 0.  0.
         -6    2    1    2    0  502 -0.65277507702E+02  0.23847451767E+03  0.34650255771E+03  0.45341809912E+03  0.15618162990E+03 0.  0.
        -24    2    5    5    0    0 -0.22360806261E+02  0.11457742184E+03  0.25815260119E+03  0.29524054561E+03  0.83043500742E+02 0.  0.
          5    1    3    3  501    0  0.80561332971E+02 -0.80963229084E+02 -0.41576083094E+02  0.12163812527E+03  0.47000000000E+01 0. -1.
        -13    1    4    4    0    0  0.11689172869E+02 -0.41806306791E+02 -0.10000515507E+03  0.10902034255E+03  0.00000000000E+00 0.  1.
         14    1    4    4    0    0 -0.26972998139E+02 -0.11570498180E+03 -0.77693024254E+02  0.14195559679E+03  0.00000000000E+00 0. -1.
         -5    1    5    5    0  502 -0.42916701441E+02  0.12389709583E+03  0.88349956512E+02  0.15817755351E+03  0.47000000000E+01 0.  1.
         13    1    6    6    0    0  0.44594964017E+01  0.11630094200E+03  0.21008652254E+03  0.24017107063E+03  0.00000000000E+00 0. -1.
        -14    1    6    6    0    0 -0.26820302663E+02 -0.17235201533E+01  0.48066078658E+02  0.55069474977E+02  0.00000000000E+00 0.  1.
</event>
<event>
12    1  0.8133506E-002  0.1761009E+03  0.7818608E-02  0.1171694E+00
         21   -1    0    0  501  502  0.00000000000E+00  0.00000000000E+00  0.14073500580E+03  0.14073500580E+03  0.00000000000E+00 0. -1.
         21   -1    0    0  502  503 -0.00000000000E+00 -0.00000000000E+00 -0.45104131732E+03  0.45104131732E+03  0.00000000000E+00 0. -1.
         -6    2    1    2    0  503  0.27683016382E+02 -0.26686403976E+02 -0.36696091425E+03  0.40702806796E+03  0.17185174416E+03 0.  0.
        -24    2    3    3    0    0 -0.27416011807E+02  0.33400114773E+02 -0.15824206666E+03  0.18290323672E+03  0.80906346913E+02 0.  0.
          6    2    1    2  501    0 -0.27683016382E+02  0.26686403976E+02  0.56654602727E+02  0.18474825515E+03  0.17159155054E+03 0.  0.
         24    2    5    5    0    0  0.40317682715E+02  0.49756023965E+02  0.19182329694E+02  0.10361525514E+03  0.79164271395E+02 0.  0.
          5    1    5    5  501    0 -0.68000699096E+02 -0.23069619989E+02  0.37472273033E+02  0.81133000008E+02  0.47000000000E+01 0. -1.
        -13    1    6    6    0    0  0.59527472795E+02  0.40165809186E+02  0.31990750085E+02  0.78614377412E+02  0.00000000000E+00 0.  1.
         14    1    6    6    0    0 -0.19209790080E+02  0.95902147792E+01 -0.12808420391E+02  0.25000877731E+02  0.00000000000E+00 0. -1.
         -5    1    3    3    0  503  0.55099028189E+02 -0.60086518749E+02 -0.20871884759E+03  0.22412483125E+03  0.47000000000E+01 0.  1.
         11    1    4    4    0    0  0.27209115800E+01  0.50816452178E+02 -0.12417757418E+03  0.13420054062E+03  0.00000000000E+00 0. -1.
        -12    1    4    4    0    0 -0.30136923387E+02 -0.17416337405E+02 -0.34064492477E+02  0.48702696101E+02  0.00000000000E+00 0.  1.
</event>
<event>
12    1  0.8133506E-002  0.2557200E+03  0.7818608E-02  0.1109837E+00
         21   -1    0    0  503  502  0.00000000000E+00  0.00000000000E+00  0.14691601121E+03  0.14691601121E+03  0.00000000000E+00 0. -1.
         21   -1    0    0  501  503 -0.00000000000E+00 -0.00000000000E+00 -0.69483552053E+03  0.69483552053E+03  0.00000000000E+00 0.  1.
          6    2    1    2  501    0  0.28754952150E+02  0.18916625163E+03 -0.52702961262E+03  0.58579257133E+03  0.16965260392E+03 0.  0.
         24    2    3    3    0    0 -0.47066661039E+02  0.12651496831E+03 -0.32815223078E+03  0.36387275847E+03  0.80611351610E+02 0.  0.
         -6    2    1    2    0  502 -0.28754952150E+02 -0.18916625163E+03 -0.20889896702E+02  0.25595896041E+03  0.16872428278E+03 0.  0.
        -24    2    5    5    0    0 -0.52908028670E+02 -0.14322846917E+03  0.38771596231E+02  0.17674258141E+03  0.80131451573E+02 0.  0.
          5    1    3    3  501    0  0.75821613189E+02  0.62651283324E+02 -0.19887738185E+03  0.22191981286E+03  0.47000000000E+01 0. -1.
        -11    1    4    4    0    0  0.12975846152E+02  0.67537922301E+02 -0.19045337979E+03  0.20249008224E+03  0.00000000000E+00 0.  1.
         12    1    4    4    0    0 -0.60042507191E+02  0.58977046005E+02 -0.13769885099E+03  0.16138267624E+03  0.00000000000E+00 0. -1.
         -5    1    5    5    0  502  0.24153076520E+02 -0.45937782464E+02 -0.59661492933E+02  0.79216379001E+02  0.47000000000E+01 0.  1.
         13    1    6    6    0    0 -0.54459192005E+02 -0.40270878587E+02  0.27711173121E+02  0.73180983675E+02  0.00000000000E+00 0. -1.
        -14    1    6    6    0    0  0.15511633348E+01 -0.10295759058E+03  0.11060423110E+02  0.10356159773E+03  0.00000000000E+00 0.  1.
</event>
<event>
12    1  0.8133506E-002  0.2583435E+03  0.7818608E-02  0.1108267E+00
         21   -1    0    0  501  502  0.00000000000E+00  0.00000000000E+00  0.11756029870E+04  0.11756029870E+04  0.00000000000E+00 0. -1.
         21   -1    0    0  502  503 -0.00000000000E+00 -0.00000000000E+00 -0.56629332391E+02  0.56629332391E+02  0.00000000000E+00 0.  1.
         -6    2    1    2    0  503 -0.18740372574E+03  0.41431163627E+02  0.54286022882E+03  0.60084649017E+03  0.17170491832E+03 0.  0.
        -24    2    3    3    0    0 -0.44429236634E+02 -0.21469384695E+02  0.27660437266E+03  0.29211933806E+03  0.79930201703E+02 0.  0.
          6    2    1    2  501    0  0.18740372574E+03 -0.41431163627E+02  0.57611342576E+03  0.63138582920E+03  0.17292972048E+03 0.  0.
         24    2    5    5    0    0  0.19559379926E+03 -0.32693014678E+02  0.39323750414E+03  0.44805791190E+03  0.82428091279E+02 0.  0.
          5    1    5    5  501    0 -0.81900735279E+01 -0.87381489490E+01  0.18287592163E+03  0.18332791730E+03  0.47000000000E+01 0. -1.
        -13    1    6    6    0    0  0.90376831942E+02 -0.41384260233E+02  0.25803047664E+03  0.27651465715E+03  0.00000000000E+00 0.  1.
         14    1    6    6    0    0  0.10521696732E+03  0.86912455551E+01  0.13520702750E+03  0.17154325474E+03  0.00000000000E+00 0. -1.
         -5    1    3    3    0  503 -0.14297448910E+03  0.62900548322E+02  0.26625585616E+03  0.30872715212E+03  0.47000000000E+01 0.  1.
         13    1    4    4    0    0 -0.51896628270E+02 -0.58286302679E+01  0.26748394673E+03  0.27253420834E+03  0.00000000000E+00 0. -1.
        -14    1    4    4    0    0  0.74673916354E+01 -0.15640754427E+02  0.91204259306E+01  0.19585129717E+02  0.00000000000E+00 0.  1.
</event>
<event>
12    1  0.8133506E-002  0.1939649E+03  0.7818608E-02  0.1154956E+00
         21   -1    0    0  501  502  0.00000000000E+00  0.00000000000E+00  0.21731215967E+04  0.21731215967E+04  0.00000000000E+00 0.  1.
         21   -1    0    0  502  503 -0.00000000000E+00 -0.00000000000E+00 -0.18803280694E+02  0.18803280694E+02  0.00000000000E+00 0.  1.
         -6    2    1    2    0  503 -0.71937846909E+02  0.51683472312E+02  0.13864236149E+04  0.13999118477E+04  0.17244276213E+03 0.  0.
        -24    2    3    3    0    0 -0.32682081553E+02  0.27063248686E+02  0.32805707292E+03  0.34052098606E+03  0.80824259769E+02 0.  0.
          6    2    1    2  501    0  0.71937846909E+02 -0.51683472312E+02  0.76789470112E+03  0.79201302972E+03  0.17255761968E+03 0.  0.
         24    2    5    5    0    0  0.22906798556E+02  0.16710097964E+02  0.18894293819E+03  0.20695836735E+03  0.79551135327E+02 0.  0.
          5    1    5    5  501    0  0.49031048353E+02 -0.68393570276E+02  0.57895176293E+03  0.58505466236E+03  0.47000000000E+01 0. -1.
        -13    1    6    6    0    0  0.23599832874E+02 -0.28233927879E+02  0.59784113815E+02  0.70201474770E+02  0.00000000000E+00 0.  1.
         14    1    6    6    0    0 -0.69303431751E+00  0.44944025842E+02  0.12915882437E+03  0.13675689258E+03  0.00000000000E+00 0. -1.
         -5    1    3    3    0  503 -0.39255765356E+02  0.24620223625E+02  0.10583665420E+04  0.10593908616E+04  0.47000000000E+01 0.  1.
         11    1    4    4    0    0 -0.58911135655E+02  0.27304975620E+02  0.22543162584E+03  0.23459646529E+03  0.00000000000E+00 0. -1.
        -12    1    4    4    0    0  0.26229054102E+02 -0.24172693329E+00  0.10262544708E+03  0.10592452076E+03  0.00000000000E+00 0.  1.
</event>
<event>
12    1  0.8133506E-002  0.1843512E+03  0.7818608E-02  0.1163657E+00
         21   -1    0    0  501  502  0.00000000000E+00  0.00000000000E+00  0.19226136018E+03  0.19226136018E+03  0.00000000000E+00 0. -1.
         21   -1    0    0  502  503 -0.00000000000E+00 -0.00000000000E+00 -0.18657765023E+03  0.18657765023E+03  0.00000000000E+00 0. -1.
         -6    2    1    2    0  503 -0.12850607992E+02 -0.64635964513E+02 -0.40597159456E+02  0.18876721423E+03  0.17216848079E+03 0.  0.
        -24    2    3    3    0    0  0.20762840932E+02 -0.43793393923E+02 -0.86944742700E+02  0.12765694366E+03  0.79924652429E+02 0.  0.
          6    2    1    2  501    0  0.12850607992E+02  0.64635964513E+02  0.46280869415E+02  0.19007179618E+03  0.17216974994E+03 0.  0.
         24    2    5    5    0    0 -0.27029126130E+02  0.37470857968E+02 -0.36214706906E+02  0.94385086964E+02  0.73908056317E+02 0.  0.
          5    1    5    5  501    0  0.39879734122E+02  0.27165106545E+02  0.82495576322E+02  0.95686709213E+02  0.47000000000E+01 0. -1.
        -11    1    6    6    0    0  0.12438367871E+02  0.31459534500E+02 -0.42125186172E+02  0.54027276595E+02  0.00000000000E+00 0.  1.
         12    1    6    6    0    0 -0.39467494002E+02  0.60113234678E+01  0.59104792653E+01  0.40357810369E+02  0.00000000000E+00 0. -1.
         -5    1    3    3    0  503 -0.33613448924E+02 -0.20842570590E+02  0.46347583243E+02  0.61110270576E+02  0.47000000000E+01 0.  1.
         13    1    4    4    0    0  0.25623582929E+02 -0.48784144382E+02 -0.17431517834E+02  0.57795489090E+02  0.00000000000E+00 0. -1.
        -14    1    4    4    0    0 -0.48607419970E+01  0.49907504587E+01 -0.69513224866E+02  0.69861454567E+02  0.00000000000E+00 0.  1.
</event>
<event>
12    1  0.8133506E-002  0.2303162E+03  0.7818608E-02  0.1126548E+00
         21   -1    0    0  501  502  0.00000000000E+00  0.00000000000E+00  0.32727047611E+04  0.32727047611E+04  0.00000000000E+00 0. -1.
         21   -1    0    0  502  503 -0.00000000000E+00 -0.00000000000E+00 -0.18527120123E+02  0.18527120123E+02  0.00000000000E+00 0. -1.
         -6    2    1    2    0  503  0.59139787141E+02  0.14214447703E+03  0.10407139700E+04  0.10658945083E+04  0.17129789497E+03 0.  0.
        -24    2    3    3    0    0 -0.19893555835E+02  0.15186530989E+02  0.43607934137E+03  0.44302235975E+03  0.74008344035E+02 0.  0.
          6    2    1    2  501    0 -0.59139787141E+02 -0.14214447703E+03  0.22134636710E+04  0.22253373729E+04  0.17030100868E+03 0.  0.
         24    2    5    5    0    0  0.27851871047E+02 -0.90592554148E+02  0.10144575256E+04  0.10220655931E+04  0.80692426820E+02 0.  0.
          5    1    5    5  501    0 -0.86991658188E+02 -0.51551922883E+02  0.11990061454E+04  0.12032717798E+04  0.47000000000E+01 0. -1.
        -13    1    6    6    0    0 -0.20828690677E+02 -0.53437041908E+02  0.33697565018E+03  0.34182150403E+03  0.00000000000E+00 0.  1.
         14    1    6    6    0    0  0.48680561724E+02 -0.37155512240E+02  0.67748187545E+03  0.68024408909E+03  0.00000000000E+00 0. -1.
         -5    1    3    3    0  503  0.79033342976E+02  0.12695794604E+03  0.60463462862E+03  0.62287214859E+03  0.47000000000E+01 0.  1.
         11    1    4    4    0    0  0.19808500208E+02  0.21910859255E+02  0.28981456556E+03  0.29131588499E+03  0.00000000000E+00 0. -1.
        -12    1    4    4    0    0 -0.39702056043E+02 -0.67243282659E+01  0.14626477580E+03  0.15170647476E+03  0.00000000000E+00 0.  1.
</event>
<event>
12    1  0.8133506E-002  0.1836876E+03  0.7818608E-02  0.1164422E+00
         21   -1    0    0  501  502  0.00000000000E+00  0.00000000000E+00  0.29321809681E+03  0.29321809681E+03  0.00000000000E+00 0.  1.
         21   -1    0    0  502  503 -0.00000000000E+00 -0.00000000000E+00 -0.11589871107E+03  0.11589871107E+03  0.00000000000E+00 0. -1.
         -6    2    1    2    0  503 -0.54134035094E+02  0.32510178267E+02  0.10933288702E+03  0.21325128928E+03  0.17185757694E+03 0.  0.
        -24    2    3    3    0    0 -0.10686197674E+02  0.20142267591E+02  0.13591076743E+03  0.16062854213E+03  0.82522033895E+02 0.  0.
          6    2    1    2  501    0  0.54134035094E+02 -0.32510178267E+02  0.67986498721E+02  0.19586551860E+03  0.17249270107E+03 0.  0.
         24    2    5    5    0    0  0.61517563571E+01  0.10680995727E+01  0.99826461562E+02  0.12903982707E+03  0.81528949447E+02 0.  0.
          5    1    5    5  501    0  0.47982278737E+02 -0.33578277840E+02 -0.31839962841E+02  0.66825691536E+02  0.47000000000E+01 0. -1.
        -13    1    6    6    0    0  0.26963333501E+01 -0.35843065728E+02  0.78335683232E+02  0.86188600417E+02  0.00000000000E+00 0.  1.
         14    1    6    6    0    0  0.34554230071E+01  0.36911165301E+02  0.21490778330E+02  0.42851226648E+02  0.00000000000E+00 0. -1.
         -5    1    3    3    0  503 -0.43447837420E+02  0.12367910677E+02 -0.26577880411E+02  0.52622747155E+02  0.47000000000E+01 0.  1.
         11    1    4    4    0    0  0.24165333561E+02  0.38754807888E+02  0.80861780976E+02  0.92868326696E+02  0.00000000000E+00 0. -1.
        -12    1    4    4    0    0 -0.34851531236E+02 -0.18612540298E+02  0.55048986457E+02  0.67760215434E+02  0.00000000000E+00 0.  1.
</event>
<event>
12    1  0.8133506E-002  0.1960858E+03  0.7818608E-02  0.1153221E+00
         21   -1    0    0  501  502  0.00000000000E+00  0.00000000000E+00  0.13434098812E+03  0.13434098812E+03  0.00000000000E+00 0.  1.
         21   -1    0    0  502  503 -0.00000000000E+00 -0.00000000000E+00 -0.95478376386E+03  0.95478376386E+03  0.00000000000E+00 0.  1.
         -6    2    1    2    0  503 -0.92001250788E+02 -0.36570203945E+01 -0.86602805939E+03  0.88780990656E+03  0.17240715353E+03 0.  0.
        -24    2    3    3    0    0 -0.67433537821E+02 -0.60586651378E+02 -0.70313582213E+03  0.71345243937E+03  0.79977337630E+02 0.  0.
          6    2    1    2  501    0  0.92001250788E+02  0.36570203945E+01  0.45585283650E+02  0.20131484543E+03  0.17312436270E+03 0.  0.
         24    2    5    5    0    0  0.47850362113E+01 -0.30502658589E+02  0.63207322610E+02  0.10588854921E+03  0.79144870143E+02 0.  0.
          5    1    5    5  501    0  0.87216214576E+02  0.34159678983E+02 -0.17622038960E+02  0.95426296221E+02  0.47000000000E+01 0. -1.
        -11    1    6    6    0    0  0.77007673126E+01  0.26006479833E+02  0.12326599943E+02  0.29792345940E+02  0.00000000000E+00 0.  1.
         12    1    6    6    0    0 -0.29157311013E+01 -0.56509138421E+02  0.50880722667E+02  0.76096203270E+02  0.00000000000E+00 0. -1.
         -5    1    3    3    0  503 -0.24567712967E+02  0.56929630984E+02 -0.16289223726E+03  0.17435746719E+03  0.47000000000E+01 0.  1.
         13    1    4    4    0    0  0.16909655904E+02 -0.16133697638E+02 -0.20019978258E+03  0.20155938482E+03  0.00000000000E+00 0. -1.
        -14    1    4    4    0    0 -0.84343193725E+02 -0.44452953740E+02 -0.50293603954E+03  0.51189305455E+03  0.00000000000E+00 0.  1.
</event>
<event>
12    1  0.8133506E-002  0.1727342E+03  0.7818608E-02  0.1175852E+00
         21   -1    0    0  503  502  0.00000000000E+00  0.00000000000E+00  0.26489382100E+03  0.26489382100E+03  0.00000000000E+00 0.  1.
         21   -1    0    0  501  503 -0.00000000000E+00 -0.00000000000E+00 -0.11082112356E+03  0.11082112356E+03  0.00000000000E+00 0.  1.
          6    2    1    2  501    0 -0.97574955083E+01  0.10671086848E+02  0.86901311759E+02  0.19336219692E+03  0.17212791871E+03 0.  0.
         24    2    3    3    0    0  0.42821227469E+02  0.45701411225E+01  0.10028883499E+03  0.13856201966E+03  0.85364156164E+02 0.  0.
         -6    2    1    2    0  502  0.97574955083E+01 -0.10671086848E+02  0.67171385688E+02  0.18235274765E+03  0.16891254751E+03 0.  0.
        -24    2    5    5    0    0  0.61419772029E+01 -0.60290877724E+02  0.65818083422E+02  0.13236157796E+03  0.97544109995E+02 0.  0.
          5    1    3    3  501    0 -0.52578722978E+02  0.61009457252E+01 -0.13387523232E+02  0.54800177253E+02  0.47000000000E+01 0. -1.
        -11    1    4    4    0    0 -0.37638394366E+01 -0.24911030908E+02  0.72644814515E+02  0.76889498789E+02  0.00000000000E+00 0.  1.
         12    1    4    4    0    0  0.46585066906E+02  0.29481172030E+02  0.27644020476E+02  0.61672520874E+02  0.00000000000E+00 0. -1.
         -5    1    5    5    0  502  0.36155183053E+01  0.49619790876E+02  0.13533022667E+01  0.49991169683E+02  0.47000000000E+01 0.  1.
         13    1    6    6    0    0 -0.39145046478E+02 -0.50953880015E+02  0.20070906437E+02  0.67316222693E+02  0.00000000000E+00 0. -1.
        -14    1    6    6    0    0  0.45287023681E+02 -0.93369977086E+01  0.45747176984E+02  0.65045355270E+02  0.00000000000E+00 0.  1.
</event>
<event>
12    1  0.8133506E-002  0.2345899E+03  0.7818608E-02  0.1123510E+00
         21   -1    0    0  501  502  0.00000000000E+00  0.00000000000E+00  0.34193511418E+03  0.34193511418E+03  0.00000000000E+00 0. -1.
         21   -1    0    0  502  503 -0.00000000000E+00 -0.00000000000E+00 -0.35127710438E+03  0.35127710438E+03  0.00000000000E+00 0. -1.
         -6    2    1    2    0  503 -0.40027888822E+02  0.15412941394E+03 -0.25996465223E+03  0.34992787745E+03  0.17178414035E+03 0.  0.
        -24    2    3    3    0    0 -0.31080310996E+01  0.45630235850E+01 -0.84099837057E+02  0.11608240660E+03  0.79823940565E+02 0.  0.
          6    2    1    2  501    0  0.40027888822E+02 -0.15412941394E+03  0.25062266203E+03  0.34328434111E+03  0.17226233484E+03 0.  0.
         24    2    5    5    0    0  0.52034244928E+00 -0.40571698626E+02  0.33016286148E+02  0.94626291269E+02  0.78852560914E+02 0.  0.
          5    1    5    5  501    0  0.39507546373E+02 -0.11355771531E+03  0.21760637588E+03  0.24865804985E+03  0.47000000000E+01 0. -1.
        -13    1    6    6    0    0  0.34506286353E+02 -0.30397235947E+01  0.87036432830E+00  0.34650847774E+02  0.00000000000E+00 0.  1.
         14    1    6    6    0    0 -0.33985943904E+02 -0.37531975032E+02  0.32145921820E+02  0.59975443495E+02  0.00000000000E+00 0. -1.
         -5    1    3    3    0  503 -0.36919857722E+02  0.14956639036E+03 -0.17586481518E+03  0.23384547085E+03  0.47000000000E+01 0.  1.
         13    1    4    4    0    0 -0.16994302107E+02  0.36917535730E+02 -0.63195272191E+02  0.75135565318E+02  0.00000000000E+00 0. -1.
        -14    1    4    4    0    0  0.13886271007E+02 -0.32354512145E+02 -0.20904564866E+02  0.40946841281E+02  0.00000000000E+00 0.  1.
</event>
<event>
12    1  0.8133506E-002  0.2472058E+03  0.7818608E-02  0.1115174E+00
         21   -1    0    0  501  502  0.00000000000E+00  0.00000000000E+00  0.86692495278E+02  0.86692495278E+02  0.00000000000E+00 0.  1.
         21   -1    0    0  502  503 -0.00000000000E+00 -0.00000000000E+00 -0.71728652596E+03  0.71728652596E+03  0.00000000000E+00 0. -1.
         -6    2    1    2    0  503  0.15016622754E+03  0.96522272695E+02 -0.37178331950E+03  0.44646783220E+03  0.17100948368E+03 0.  0.
        -24    2    3    3    0    0  0.15188264598E+03  0.11553969310E+03 -0.25573780145E+03  0.32876795696E+03  0.79175675571E+02 0.  0.
          6    2    1    2  501    0 -0.15016622754E+03 -0.96522272695E+02 -0.25881071118E+03  0.35751118903E+03  0.17019054334E+03 0.  0.
         24    2    5    5    0    0 -0.45314565422E+02  0.25759575830E+01 -0.50876180314E+02  0.10438436426E+03  0.79042168380E+02 0.  0.
          5    1    5    5  501    0 -0.10485166212E+03 -0.99098230278E+02 -0.20793453086E+03  0.25312682477E+03  0.47000000000E+01 0. -1.
        -13    1    6    6    0    0 -0.25337310827E+02 -0.34363211083E+02 -0.63252781035E+01  0.43160383906E+02  0.00000000000E+00 0.  1.
         14    1    6    6    0    0 -0.19977254595E+02  0.36939168666E+02 -0.44550902210E+02  0.61223980356E+02  0.00000000000E+00 0. -1.
         -5    1    3    3    0  503 -0.17164184367E+01 -0.19017420409E+02 -0.11604551805E+03  0.11769987524E+03  0.47000000000E+01 0.  1.
         11    1    4    4    0    0  0.11099386750E+03  0.35624172807E+02 -0.15273555693E+03  0.19213763468E+03  0.00000000000E+00 0. -1.
        -12    1    4    4    0    0  0.40888778479E+02  0.79915520297E+02 -0.10300224452E+03  0.13663032228E+03  0.00000000000E+00 0.  1.
</event>
<event>
12    1  0.8133506E-002  0.1729505E+03  0.7818608E-02  0.1175297E+00
         21   -1    0    0  503  502  0.00000000000E+00  0.00000000000E+00  0.40610199168E+03  0.40610199168E+03  0.00000000000E+00 0.  1.
         21   -1    0    0  501  503 -0.00000000000E+00 -0.00000000000E+00 -0.84672454491E+02  0.84672454491E+02  0.00000000000E+00 0.  1.
          6    2    1    2  501    0 -0.84880187552E+01 -0.12400473727E+02  0.69763879509E+02  0.18649099022E+03  0.17229646641E+03 0.  0.
         24    2    3    3    0    0 -0.72546909773E+02 -0.57289502955E+01  0.49939919504E+02  0.11894004549E+03  0.79729943389E+02 0.  0.
         -6    2    1    2    0  502  0.84880187552E+01  0.12400473727E+02  0.25166565768E+03  0.30428345595E+03  0.17037312023E+03 0.  0.
        -24    2    5    5    0    0 -0.56866195696E+02  0.18815505868E+02  0.19389311681E+03  0.21669303146E+03  0.75983825000E+02 0.  0.
          5    1    3    3  501    0  0.64058891018E+02 -0.66715234314E+01  0.19823960006E+02  0.67550944728E+02  0.47000000000E+01 0. -1.
        -11    1    4    4    0    0 -0.17160633008E+02 -0.78856922480E+01 -0.21436566512E+02  0.28569176594E+02  0.00000000000E+00 0.  1.
         12    1    4    4    0    0 -0.55386276765E+02  0.21567419526E+01  0.71376486015E+02  0.90370868900E+02  0.00000000000E+00 0. -1.
         -5    1    5    5    0  502  0.65354214452E+02 -0.64150321412E+01  0.57772540863E+02  0.87590424487E+02  0.47000000000E+01 0.  1.
         13    1    6    6    0    0 -0.14250792354E+02 -0.18308203256E+02  0.12708539674E+03  0.12918580980E+03  0.00000000000E+00 0. -1.
        -14    1    6    6    0    0 -0.42615403342E+02  0.37123709124E+02  0.66807720071E+02  0.87507221657E+02  0.00000000000E+00 0.  1.
</event>
<event>
12    1  0.8133506E-002  0.2855510E+03  0.7818608E-02  0.1092746E+00
         21   -1    0    0  503  502  0.00000000000E+00  0.00000000000E+00  0.41356202130E+03  0.41356202130E+03  0.00000000000E+00 0. -1.
         21   -1    0    0  501  503 -0.00000000000E+00 -0.00000000000E+00 -0.19764755274E+03  0.19764755274E+03  0.00000000000E+00 0. -1.
          6    2    1    2  501    0  0.58526134126E+02  0.22020752518E+03  0.12665161840E+03  0.31203198776E+03  0.17148372056E+03 0.  0.
         24    2    3    3    0    0 -0.53145720169E+01  0.14807679614E+03  0.21980208287E+02  0.16970605221E+03  0.79762349335E+02 0.  0.
         -6    2    1    2    0  502 -0.58526134126E+02 -0.22020752518E+03  0.89262850156E+02  0.29917758627E+03  0.17211248992E+03 0.  0.
        -24    2    5    5    0    0 -0.10113734197E+03 -0.13682923351E+03  0.35940997183E+02  0.19132136457E+03  0.79756555705E+02 0.  0.
          5    1    3    3  501    0  0.63840706143E+02  0.72130729044E+02  0.10467141012E+03  0.14232593555E+03  0.47000000000E+01 0. -1.
        -13    1    4    4    0    0  0.73684883129E+01 -0.84461365407E+01  0.64102810368E+00  0.11226876659E+02  0.00000000000E+00 0.  1.
         14    1    4    4    0    0 -0.12683060330E+02  0.15652293268E+03  0.21339180184E+02  0.15847917555E+03  0.00000000000E+00 0. -1.
         -5    1    5    5    0  502  0.42611207843E+02 -0.83378291667E+02  0.53321852973E+02  0.10785622170E+03  0.47000000000E+01 0.  1.
         11    1    6    6    0    0 -0.10044073757E+03 -0.13057248781E+03  0.53070042004E+02  0.17307208237E+03  0.00000000000E+00 0. -1.
        -12    1    6    6    0    0 -0.69660439690E+00 -0.62567457086E+01 -0.17129044821E+02  0.18249282206E+02  0.00000000000E+00 0.  1.
</event>
<event>
12    1  0.8133506E-002  0.2034368E+03  0.7818608E-02  0.1147296E+00
         21   -1    0    0  503  502  0.00000000000E+00  0.00000000000E+00  0.68236494967E+03  0.68236494967E+03  0.00000000000E+00 0.  1.
         21   -1    0    0  501  503 -0.00000000000E+00 -0.00000000000E+00 -0.42376719439E+03  0.42376719439E+03  0.00000000000E+00 0.  1.
          6    2    1    2  501    0 -0.84307130184E+01 -0.10790317064E+03 -0.38318106748E+03  0.43288138323E+03  0.16983636334E+03 0.  0.
         24    2    3    3    0    0 -0.13145045031E+02 -0.13638184566E+03 -0.36560495007E+03  0.39875998582E+03  0.81053974275E+02 0.  0.
         -6    2    1    2    0  502  0.84307130184E+01  0.10790317064E+03  0.64177882277E+03  0.67325076083E+03  0.17225666447E+03 0.  0.
        -24    2    5    5    0    0 -0.60297926216E+02  0.42916522695E+02  0.33481064863E+03  0.35200562049E+03  0.79574610226E+02 0.  0.
          5    1    3    3  501    0  0.47143320122E+01  0.28478675024E+02 -0.17576117417E+02  0.34121397406E+02  0.47000000000E+01 0. -1.
        -13    1    4    4    0    0  0.22385084997E+02 -0.11613850378E+03 -0.27473378619E+03  0.29911184758E+03  0.00000000000E+00 0.  1.
         14    1    4    4    0    0 -0.35530130028E+02 -0.20243341881E+02 -0.90871163876E+02  0.99648138239E+02  0.00000000000E+00 0. -1.
         -5    1    5    5    0  502  0.68728639234E+02  0.64986647942E+02  0.30696817414E+03  0.32124514034E+03  0.47000000000E+01 0.  1.
         11    1    6    6    0    0 -0.43404271083E+02  0.45673934282E+02  0.11174973175E+03  0.12828889884E+03  0.00000000000E+00 0. -1.
        -12    1    6    6    0    0 -0.16893655133E+02 -0.27574115864E+01  0.22306091689E+03  0.22371672165E+03  0.00000000000E+00 0.  1.
</event>
<event>
12    1  0.8133506E-002  0.1785651E+03  0.7818608E-02  0.1169489E+00
         21   -1    0    0  501  502  0.00000000000E+00  0.00000000000E+00  0.59146812369E+03  0.59146812369E+03  0.00000000000E+00 0.  1.
         21   -1    0    0  502  503 -0.00000000000E+00 -0.00000000000E+00 -0.53555706990E+02  0.53555706990E+02  0.00000000000E+00 0.  1.
         -6    2    1    2    0  503  0.93450965756E+01 -0.46805527505E+02  0.27034987581E+03  0.32334818353E+03  0.17084175194E+03 0.  0.
        -24    2    3    3    0    0 -0.42275854027E+02 -0.65435328360E+02  0.22880359323E+03  0.25435560699E+03  0.79225377892E+02 0.  0.
          6    2    1    2  501    0 -0.93450965756E+01  0.46805527505E+02  0.26756254089E+03  0.32167564715E+03  0.17206806923E+03 0.  0.
         24    2    5    5    0    0  0.27696701281E+02 -0.29360093412E+02  0.10389826455E+03  0.13733525020E+03  0.80230911898E+02 0.  0.
          5    1    5    5  501    0 -0.37041797857E+02  0.76165620917E+02  0.16366427634E+03  0.18434039695E+03  0.47000000000E+01 0. -1.
        -13    1    6    6    0    0 -0.12205625649E+02  0.17625129837E+02  0.53758801050E+02  0.57875998390E+02  0.00000000000E+00 0.  1.
         14    1    6    6    0    0  0.39902326930E+02 -0.46985223249E+02  0.50139463498E+02  0.79459251809E+02  0.00000000000E+00 0. -1.
         -5    1    3    3    0  503  0.51620950603E+02  0.18629800855E+02  0.41546282583E+02  0.68992576539E+02  0.47000000000E+01 0.  1.
         13    1    4    4    0    0 -0.26022678156E+02  0.77707173714E+01  0.23956548443E+02  0.36214362347E+02  0.00000000000E+00 0. -1.
        -14    1    4    4    0    0 -0.16253175871E+02 -0.73206045731E+02  0.20484704478E+03  0.21814124464E+03  0.00000000000E+00 0.  1.
</event>
<event>
12    1  0.8133506E-002  0.1877123E+03  0.7818608E-02  0.1161270E+00
         21   -1    0    0  501  502  0.00000000000E+00  0.00000000000E+00  0.10397665357E+03  0.10397665357E+03  0.00000000000E+00 0.  1.
         21   -1    0    0  502  503 -0.00000000000E+00 -0.00000000000E+00 -0.41424695251E+03  0.41424695251E+03  0.00000000000E+00 0. -1.
         -6    2    1    2    0  503 -0.72934058525E+02  0.30135201378E+01 -0.27078667060E+03  0.32948643607E+03  0.17293765462E+03 0.  0.
        -24    2    3    3    0    0 -0.17338038414E+01  0.27426621392E+01 -0.23787540351E+03  0.25090659685E+03  0.79742613924E+02 0.  0.
          6    2    1    2  501    0  0.72934058525E+02 -0.30135201378E+01 -0.39483628339E+02  0.18873717000E+03  0.16951195898E+03 0.  0.
         24    2    5    5    0    0  0.25480440736E+02  0.57238023946E+02 -0.41484033062E+02  0.11187244451E+03  0.82879880531E+02 0.  0.
          5    1    5    5  501    0  0.47453617789E+02 -0.60251544084E+02  0.20004047222E+01  0.76864725491E+02  0.47000000000E+01 0. -1.
        -13    1    6    6    0    0  0.33470330809E+02  0.36513417612E+02 -0.63543229230E+02  0.80568199007E+02  0.00000000000E+00 0.  1.
         14    1    6    6    0    0 -0.79898900737E+01  0.20724606334E+02  0.22059196169E+02  0.31304245506E+02  0.00000000000E+00 0. -1.
         -5    1    3    3    0  503 -0.71200254683E+02  0.27085799855E+00 -0.32911267086E+02  0.78579839223E+02  0.47000000000E+01 0.  1.
         13    1    4    4    0    0 -0.31099183740E+02 -0.20956283414E+02 -0.16046055184E+03  0.16478444629E+03  0.00000000000E+00 0. -1.
        -14    1    4    4    0    0  0.29365379899E+02  0.23698945553E+02 -0.77414851673E+02  0.86122150557E+02  0.00000000000E+00 0.  1.
</event>
<event>
12    1  0.8133506E-002  0.2323699E+03  0.7818608E-02  0.1125285E+00
         21   -1    0    0  501  502  0.00000000000E+00  0.00000000000E+00  0.71328458777E+02  0.71328458777E+02  0.00000000000E+00 0. -1.
         21   -1    0    0  502  503 -0.00000000000E+00 -0.00000000000E+00 -0.92931152176E+03  0.92931152176E+03  0.00000000000E+00 0.  1.
         -6    2    1    2    0  503  0.23703353704E+02 -0.15539950715E+03 -0.64662384127E+03  0.68652456709E+03  0.16876828291E+03 0.  0.
        -24    2    3    3    0    0 -0.24256213705E+02 -0.11880491542E+03 -0.57351532255E+03  0.59162340925E+03  0.79971628350E+02 0.  0.
          6    2    1    2  501    0 -0.23703353704E+02  0.15539950715E+03 -0.21135922171E+03  0.31411541345E+03  0.17112836283E+03 0.  0.
         24    2    5    5    0    0 -0.41598368950E+02  0.15060602283E+03 -0.22975737479E+03  0.28758635203E+03  0.74194745044E+02 0.  0.
          5    1    5    5  501    0  0.17895015247E+02  0.47934843148E+01  0.18398153083E+02  0.26529061413E+02  0.47000000000E+01 0. -1.
        -11    1    6    6    0    0  0.10134582388E+02  0.79091166210E+02 -0.75217595010E+02  0.10961664532E+03  0.00000000000E+00 0.  1.
         12    1    6    6    0    0 -0.51732951338E+02  0.71514856620E+02 -0.15453977978E+03  0.17796970671E+03  0.00000000000E+00 0. -1.
         -5    1    3    3    0  503  0.47959567409E+02 -0.36594591723E+02 -0.73108518720E+02  0.94901157837E+02  0.47000000000E+01 0.  1.
         13    1    4    4    0    0 -0.31423748099E+02 -0.21874559897E+02 -0.80792550181E+02  0.89405729571E+02  0.00000000000E+00 0. -1.
        -14    1    4    4    0    0  0.71675343941E+01 -0.96930355525E+02 -0.49272277237E+03  0.50221767968E+03  0.00000000000E+00 0.  1.
</event>
<event>
12    1  0.8133506E-002  0.1914081E+03  0.7818608E-02  0.1157277E+00
         21   -1    0    0  501  502  0.00000000000E+00  0.00000000000E+00  0.20110437601E+04  0.20110437601E+04  0.00000000000E+00 0. -1.
         21   -1    0    0  502  503 -0.00000000000E+00 -0.00000000000E+00 -0.32597053940E+02  0.32597053940E+02  0.00000000000E+00 0. -1.
         -6    2    1    2    0  503  0.51681241212E+02 -0.63960189724E+02  0.30924714063E+03  0.36350265403E+03  0.17244862695E+03 0.  0.
        -24    2    3    3    0    0  0.82393756584E+02 -0.91895722155E+02  0.21380256616E+03  0.25931335819E+03  0.79361990670E+02 0.  0.
          6    2    1    2  501    0 -0.51681241212E+02  0.63960189724E+02  0.16691995655E+04  0.16801381600E+04  0.17284441151E+03 0.  0.
         24    2    5    5    0    0 -0.89437940478E+02  0.16602312015E+02  0.13346127668E+04  0.13400811753E+04  0.79696532556E+02 0.  0.
          5    1    5    5  501    0  0.37756699266E+02  0.47357877710E+02  0.33458679872E+03  0.34005698463E+03  0.47000000000E+01 0. -1.
        -13    1    6    6    0    0  0.47359108903E+00 -0.19238198026E+02  0.11184546315E+03  0.11348894298E+03  0.00000000000E+00 0.  1.
         14    1    6    6    0    0 -0.89911531567E+02  0.35840510041E+02  0.12227673036E+04  0.12265922324E+04  0.00000000000E+00 0. -1.
         -5    1    3    3    0  503 -0.30712515371E+02  0.27935532431E+02  0.95444574466E+02  0.10418929584E+03  0.47000000000E+01 0.  1.
         11    1    4    4    0    0  0.21910215868E+02 -0.24552812571E+02  0.71060789511E+01  0.33665925245E+02  0.00000000000E+00 0. -1.
        -12    1    4    4    0    0  0.60483540716E+02 -0.67342909584E+02  0.20669648721E+03  0.22564743294E+03  0.00000000000E+00 0.  1.
</event>
<event>
12    1  0.8133506E-002  0.2608895E+03  0.7818608E-02  0.1106694E+00
         21   -1    0    0  501  502  0.00000000000E+00  0.00000000000E+00  0.11327843291E+03  0.11327843291E+03  0.00000000000E+00 0. -1.
         21   -1    0    0  502  503 -0.00000000000E+00 -0.00000000000E+00 -0.13866930956E+04  0.13866930956E+04  0.00000000000E+00 0.  1.
         -6    2    1    2    0  503 -0.19548931122E+03  0.63219373075E+01 -0.12020534612E+04  0.12300389679E+04  0.17264791158E+03 0.  0.
        -24    2    3    3    0    0 -0.14888692448E+03 -0.36681459265E+02 -0.59160009086E+03  0.61628292363E+03  0.79379649272E+02 0.  0.
          6    2    1    2  501    0  0.19548931122E+03 -0.63219373075E+01 -0.71361201587E+02  0.26993256066E+03  0.17179967556E+03 0.  0.
         24    2    5    5    0    0  0.48145081710E+02  0.45681999736E+02 -0.26209631108E+02  0.10721966703E+03  0.80026984469E+02 0.  0.
          5    1    5    5  501    0  0.14734422950E+03 -0.52003937044E+02 -0.45151570479E+02  0.16271289363E+03  0.47000000000E+01 0. -1.
        -13    1    6    6    0    0 -0.14127987711E+02  0.82837837291E+01 -0.30323265181E+02  0.34463335893E+02  0.00000000000E+00 0.  1.
         14    1    6    6    0    0  0.62273069422E+02  0.37398216007E+02  0.41136340728E+01  0.72756331140E+02  0.00000000000E+00 0. -1.
         -5    1    3    3    0  503 -0.46602386736E+02  0.43003396572E+02 -0.61045337029E+03  0.61375604426E+03  0.47000000000E+01 0.  1.
         13    1    4    4    0    0  0.32279691528E+01  0.12406600201E+02 -0.45539512113E+02  0.47309519939E+02  0.00000000000E+00 0. -1.
        -14    1    4    4    0    0 -0.15211489363E+03 -0.49088059465E+02 -0.54606057875E+03  0.56897340370E+03  0.00000000000E+00 0.  1.
</event>
<event>
12    1  0.8133506E-002  0.2322500E+03  0.7818608E-02  0.1125153E+00
         21   -1    0    0  501  502  0.00000000000E+00  0.00000000000E+00  0.10837720057E+04  0.10837720057E+04  0.00000000000E+00 0.  1.
         21   -1    0    0  502  503 -0.00000000000E+00 -0.00000000000E+00 -0.99165585149E+02  0.99165585149E+02  0.00000000000E+00 0.  1.
         -6    2    1    2    0  503 -0.13260761582E+03  0.81568752604E+02  0.74144690099E+02  0.24332030347E+03  0.17166564547E+03 0.  0.
        -24    2    3    3    0    0 -0.14369794821E+03  0.19570453445E+02  0.35166804567E+02  0.16910339077E+03  0.79543382225E+02 0.  0.
          6    2    1    2  501    0  0.13260761582E+03 -0.81568752604E+02  0.91046173041E+03  0.93961728733E+03  0.17234222623E+03 0.  0.
         24    2    5    5    0    0  0.22821639899E+02  0.82562289710E+01  0.37433668586E+03  0.38502406594E+03  0.86755889750E+02 0.  0.
          5    1    5    5  501    0  0.10978597593E+03 -0.89824981575E+02  0.53612504454E+03  0.55459322139E+03  0.47000000000E+01 0. -1.
        -11    1    6    6    0    0  0.16398635810E+02 -0.38717901056E+02  0.15345449166E+03  0.15911087998E+03  0.00000000000E+00 0.  1.
         12    1    6    6    0    0  0.64230040893E+01  0.46974130027E+02  0.22088219421E+03  0.22591318596E+03  0.00000000000E+00 0. -1.
         -5    1    3    3    0  503  0.11090332390E+02  0.61998299159E+02  0.38977885532E+02  0.74216912707E+02  0.47000000000E+01 0.  1.
         13    1    4    4    0    0 -0.11227457726E+03  0.17316487443E+02  0.60472085193E+02  0.12869465616E+03  0.00000000000E+00 0. -1.
        -14    1    4    4    0    0 -0.31423370956E+02  0.22539660025E+01 -0.25305280627E+02  0.40408734608E+02  0.00000000000E+00 0.  1.
</event>
<event>
12    1  0.8133506E-002  0.2127900E+03  0.7818608E-02  0.1139862E+00
         21   -1    0    0  501  502  0.00000000000E+00  0.00000000000E+00  0.14471409620E+03  0.14471409620E+03  0.00000000000E+00 0. -1.
         21   -1    0    0  502  503 -0.00000000000E+00 -0.00000000000E+00 -0.35051755502E+03  0.35051755502E+03  0.00000000000E+00 0.  1.
         -6    2    1    2    0  503  0.12515012486E+03  0.61728795731E+01 -0.17403790822E+02  0.21102393084E+03  0.16890100432E+03 0.  0.
        -24    2    3    3    0    0  0.11201015804E+03 -0.33456296687E+02  0.33446261921E+02  0.14506221314E+03  0.79112539784E+02 0.  0.
          6    2    1    2  501    0 -0.12515012486E+03 -0.61728795731E+01 -0.18839966800E+03  0.28420772038E+03  0.17198527619E+03 0.  0.
         24    2    5    5    0    0 -0.11480930799E+03  0.49147116094E+02 -0.16943154653E+03  0.22463327916E+03  0.78463016298E+02 0.  0.
          5    1    5    5  501    0 -0.10340816869E+02 -0.55319995667E+02 -0.18968121466E+02  0.59574441215E+02  0.47000000000E+01 0. -1.
        -11    1    6    6    0    0 -0.22648847814E+02  0.28133874881E+01 -0.94293698718E+02  0.97016426828E+02  0.00000000000E+00 0.  1.
         12    1    6    6    0    0 -0.92160460173E+02  0.46333728606E+02 -0.75137847812E+02  0.12761685233E+03  0.00000000000E+00 0. -1.
         -5    1    3    3    0  503  0.13139966813E+02  0.39629176260E+02 -0.50850052743E+02  0.65961717707E+02  0.47000000000E+01 0.  1.
         13    1    4    4    0    0  0.97717994891E+02 -0.52719564208E+02  0.43238423366E+02  0.11915418680E+03  0.00000000000E+00 0. -1.
        -14    1    4    4    0    0  0.14292163152E+02  0.19263267521E+02 -0.97921614453E+01  0.25908026342E+02  0.00000000000E+00 0.  1.
</event>
<event>
12    1  0.8133506E-002  0.2042346E+03  0.7818608E-02  0.1146318E+00
         21   -1    0    0  501  502  0.00000000000E+00  0.00000000000E+00  0.27872786284E+03  0.27872786284E+03  0.00000000000E+00 0. -1.
         21   -1    0    0  502  503 -0.00000000000E+00 -0.00000000000E+00 -0.15174326123E+03  0.15174326123E+03  0.00000000000E+00 0.  1.
         -6    2    1    2    0  503  0.85447947977E+02 -0.67379876664E+02  0.36163384809E+02  0.20741156126E+03  0.17283045377E+03 0.  0.
        -24    2    3    3    0    0  0.11592369604E+03 -0.13991182721E+02  0.34538582700E+02  0.14573617036E+03  0.80075346765E+02 0.  0.
          6    2    1    2  501    0 -0.85447947977E+02  0.67379876664E+02  0.90821216799E+02  0.22305956281E+03  0.17223726527E+03 0.  0.
         24    2    5    5    0    0 -0.48308093106E+02  0.90411080497E+02  0.11533647359E+03  0.17273170785E+03  0.77626705595E+02 0.  0.
          5    1    5    5  501    0 -0.37139854871E+02 -0.23031203833E+02 -0.24515256787E+02  0.50327854963E+02  0.47000000000E+01 0. -1.
        -13    1    6    6    0    0 -0.42412479172E+02  0.50448110210E+01  0.32909707686E+02  0.53919545322E+02  0.00000000000E+00 0.  1.
         14    1    6    6    0    0 -0.58956139342E+01  0.85366269476E+02  0.82426765900E+02  0.11881216253E+03  0.00000000000E+00 0. -1.
         -5    1    3    3    0  503 -0.30475748059E+02 -0.53388693942E+02  0.16248021095E+01  0.61675390899E+02  0.47000000000E+01 0.  1.
         11    1    4    4    0    0  0.74771036546E+01 -0.18768005530E+01  0.35786989543E+02  0.36607896415E+02  0.00000000000E+00 0. -1.
        -12    1    4    4    0    0  0.10844659238E+03 -0.12114382169E+02 -0.12484068430E+01  0.10912827394E+03  0.00000000000E+00 0.  1.
</event>
<event>
12    1  0.8133506E-002  0.6360280E+03  0.7818608E-02  0.9833500E-01
         21   -1    0    0  503  502  0.00000000000E+00  0.00000000000E+00  0.20330202077E+03  0.20330202077E+03  0.00000000000E+00 0.  1.
         21   -1    0    0  501  503 -0.00000000000E+00 -0.00000000000E+00 -0.24955067694E+04  0.24955067694E+04  0.00000000000E+00 0. -1.
          6    2    1    2  501    0 -0.21393259901E+03  0.57341733457E+03 -0.17538979772E+04  0.18655586590E+04  0.17197790392E+03 0.  0.
         24    2    3    3    0    0 -0.16004166792E+03  0.26424133371E+03 -0.79434356674E+03  0.85597419573E+03  0.79204190631E+02 0.  0.
         -6    2    1    2    0  502  0.21393259901E+03 -0.57341733457E+03 -0.53830677146E+03  0.83325013113E+03  0.17308091846E+03 0.  0.
        -24    2    5    5    0    0  0.17940068038E+03 -0.41885528146E+03 -0.31525423364E+03  0.55965114303E+03  0.78738930257E+02 0.  0.
          5    1    3    3  501    0 -0.53890931091E+02  0.30917600086E+03 -0.95955441042E+03  0.10095844633E+04  0.47000000000E+01 0. -1.
        -13    1    4    4    0    0 -0.16563690001E+02  0.62184563940E+01 -0.17342100704E+02  0.24774452228E+02  0.00000000000E+00 0.  1.
         14    1    4    4    0    0 -0.14347797792E+03  0.25802287731E+03 -0.77700146604E+03  0.83119974350E+03  0.00000000000E+00 0. -1.
         -5    1    5    5    0  502  0.34531918632E+02 -0.15456205311E+03 -0.22305253782E+03  0.27359898811E+03  0.47000000000E+01 0.  1.
         11    1    6    6    0    0  0.23957784639E+02 -0.30091964339E+02 -0.53440425502E+02  0.65843608957E+02  0.00000000000E+00 0. -1.
        -12    1    6    6    0    0  0.15544289574E+03 -0.38876331712E+03 -0.26181380814E+03  0.49380753407E+03  0.00000000000E+00 0.  1.
</event>
<event>
12    1  0.8133506E-002  0.1802109E+03  0.7818608E-02  0.1168171E+00
         21   -1    0    0  503  502  0.00000000000E+00  0.00000000000E+00  0.91693178739E+03  0.91693178739E+03  0.00000000000E+00 0.  1.
         21   -1    0    0  501  503 -0.00000000000E+00 -0.00000000000E+00 -0.36811449604E+02  0.36811449604E+02  0.00000000000E+00 0.  1.
          6    2    1    2  501    0 -0.12212129056E+02 -0.44217895848E+02  0.33578994178E+03  0.38109165902E+03  0.17427452242E+03 0.  0.
         24    2    3    3    0    0  0.17138315796E+02 -0.92043268045E+02  0.21570123316E+03  0.24845643453E+03  0.80236480543E+02 0.  0.
         -6    2    1    2    0  502  0.12212129056E+02  0.44217895848E+02  0.54433039601E+03  0.57265157798E+03  0.17184263536E+03 0.  0.
        -24    2    5    5    0    0  0.28803943042E+01 -0.41011445105E+02  0.32040502556E+03  0.33282709348E+03  0.80151471909E+02 0.  0.
          5    1    3    3  501    0 -0.29350444852E+02  0.47825372197E+02  0.12008870862E+03  0.13263522449E+03  0.47000000000E+01 0. -1.
        -11    1    4    4    0    0  0.47447414105E+02 -0.39842697859E+02  0.93574682856E+02  0.11222708652E+03  0.00000000000E+00 0.  1.
         12    1    4    4    0    0 -0.30309098309E+02 -0.52200570186E+02  0.12212655030E+03  0.13622934800E+03  0.00000000000E+00 0. -1.
         -5    1    5    5    0  502  0.93317347513E+01  0.85229340954E+02  0.22392537046E+03  0.23982448450E+03  0.47000000000E+01 0.  1.
         11    1    6    6    0    0  0.25550949438E+02  0.71179021737E+01  0.19220358705E+03  0.19402508710E+03  0.00000000000E+00 0. -1.
        -12    1    6    6    0    0 -0.22670555134E+02 -0.48129347279E+02  0.12820143851E+03  0.13880200638E+03  0.00000000000E+00 0.  1.
</event>
<event>
12    1  0.8133506E-002  0.2042786E+03  0.7818608E-02  0.1146283E+00
         21   -1    0    0  503  502  0.00000000000E+00  0.00000000000E+00  0.11364287875E+03  0.11364287875E+03  0.00000000000E+00 0. -1.
         21   -1    0    0  501  503 -0.00000000000E+00 -0.00000000000E+00 -0.41905336155E+03  0.41905336155E+03  0.00000000000E+00 0.  1.
          6    2    1    2  501    0  0.34706278086E+02 -0.10627564986E+03 -0.24705009867E+03  0.32024462375E+03  0.17036381158E+03 0.  0.
         24    2    3    3    0    0  0.51796628833E+02 -0.80497807209E+02 -0.25824273438E+03  0.28701899576E+03  0.80794841069E+02 0.  0.
         -6    2    1    2    0  502 -0.34706278086E+02  0.10627564986E+03 -0.58360384130E+02  0.21245161655E+03  0.17096992557E+03 0.  0.
        -24    2    5    5    0    0 -0.12213515518E+02  0.65753957215E+02 -0.10490982525E+03  0.14659668195E+03  0.77535558765E+02 0.  0.
          5    1    3    3  501    0 -0.17090350747E+02 -0.25777842654E+02  0.11192635718E+02  0.33225627983E+02  0.47000000000E+01 0. -1.
        -13    1    4    4    0    0  0.16105918287E+02 -0.83946081635E+02 -0.14592662468E+03  0.16911808010E+03  0.00000000000E+00 0.  1.
         14    1    4    4    0    0  0.35690710546E+02  0.34482744260E+01 -0.11231610970E+03  0.11790091566E+03  0.00000000000E+00 0. -1.
         -5    1    5    5    0  502 -0.22492762568E+02  0.40521692648E+02  0.46549441123E+02  0.65854934605E+02  0.47000000000E+01 0.  1.
         11    1    6    6    0    0 -0.15492429420E+02  0.12449281795E+02  0.82101517092E+01  0.21503641032E+02  0.00000000000E+00 0. -1.
        -12    1    6    6    0    0  0.32789139018E+01  0.53304675420E+02 -0.11311997696E+03  0.12509304092E+03  0.00000000000E+00 0.  1.
</event>
<event>
12    1  0.8133506E-002  0.1797667E+03  0.7818608E-02  0.1168835E+00
         21   -1    0    0  503  502  0.00000000000E+00  0.00000000000E+00  0.17434687807E+03  0.17434687807E+03  0.00000000000E+00 0. -1.
         21   -1    0    0  501  503 -0.00000000000E+00 -0.00000000000E+00 -0.27955106457E+03  0.27955106457E+03  0.00000000000E+00 0. -1.
          6    2    1    2  501    0  0.40334667802E+02  0.30196132374E+02 -0.18699718272E+03  0.25939162711E+03  0.17256122981E+03 0.  0.
         24    2    3    3    0    0  0.63231951575E+02 -0.12208610623E+02 -0.49288783924E+02  0.11341854421E+03  0.79290933136E+02 0.  0.
         -6    2    1    2    0  502 -0.40334667802E+02 -0.30196132374E+02  0.81792996216E+02  0.19450631553E+03  0.16912693669E+03 0.  0.
        -24    2    5    5    0    0 -0.73202206495E+02 -0.57824595786E+02  0.27013371381E+02  0.12474598019E+03  0.78291700879E+02 0.  0.
          5    1    3    3  501    0 -0.22897283773E+02  0.42404742997E+02 -0.13770839879E+03  0.14597308290E+03  0.47000000000E+01 0. -1.
        -13    1    4    4    0    0  0.30844301589E+02 -0.23918370156E+02  0.13917512131E+02  0.41438587275E+02  0.00000000000E+00 0.  1.
         14    1    4    4    0    0  0.32387649986E+02  0.11709759533E+02 -0.63206296055E+02  0.71979956939E+02  0.00000000000E+00 0. -1.
         -5    1    5    5    0  502  0.32867538694E+02  0.27628463412E+02  0.54779624836E+02  0.69760335345E+02  0.47000000000E+01 0.  1.
         13    1    6    6    0    0 -0.19277718899E+02 -0.30999845995E+01  0.42138806106E+02  0.46442645602E+02  0.00000000000E+00 0. -1.
        -14    1    6    6    0    0 -0.53924487596E+02 -0.54724611186E+02 -0.15125434725E+02  0.78303334588E+02  0.00000000000E+00 0.  1.
</event>
<event>
12    1  0.8133506E-002  0.1837756E+03  0.7818608E-02  0.1166497E+00
         21   -1    0    0  503  502  0.00000000000E+00  0.00000000000E+00  0.30045524658E+02  0.30045524658E+02  0.00000000000E+00 0. -1.
         21   -1    0    0  501  503 -0.00000000000E+00 -0.00000000000E+00 -0.19621694081E+04  0.19621694081E+04  0.00000000000E+00 0. -1.
          6    2    1    2  501    0  0.21624417162E+02 -0.49720248955E+02 -0.16527352869E+04  0.16629213407E+04  0.17559538223E+03 0.  0.
         24    2    3    3    0    0  0.11887010872E+02 -0.88418791939E+02 -0.76632816467E+03  0.77560399577E+03  0.79646208202E+02 0.  0.
         -6    2    1    2    0  502 -0.21624417162E+02  0.49720248955E+02 -0.27938859659E+03  0.32929359210E+03  0.16563986029E+03 0.  0.
        -24    2    5    5    0    0 -0.18802777089E+02 -0.11755118522E+02 -0.24443330164E+03  0.25836302672E+03  0.80697505465E+02 0.  0.
          5    1    3    3  501    0  0.97374062900E+01  0.38698542984E+02 -0.88640712218E+03  0.88731734490E+03  0.47000000000E+01 0. -1.
        -13    1    4    4    0    0 -0.87127687554E+01  0.75584425982E+01 -0.23507724217E+03  0.23536004797E+03  0.00000000000E+00 0.  1.
         14    1    4    4    0    0  0.20599779627E+02 -0.95977234537E+02 -0.53125092251E+03  0.54024394780E+03  0.00000000000E+00 0. -1.
         -5    1    5    5    0  502 -0.28216400733E+01  0.61475367476E+02 -0.34955294952E+02  0.70930565374E+02  0.47000000000E+01 0.  1.
         13    1    6    6    0    0 -0.15321876021E+02  0.15936973962E+02 -0.22047406338E+03  0.22157969141E+03  0.00000000000E+00 0. -1.
        -14    1    6    6    0    0 -0.34809010674E+01 -0.27692092483E+02 -0.23959238260E+02  0.36783335308E+02  0.00000000000E+00 0.  1.
</event>
<event>
12    1  0.8133506E-002  0.2303929E+03  0.7818608E-02  0.1126426E+00
         21   -1    0    0  501  502  0.00000000000E+00  0.00000000000E+00  0.97103693377E+02  0.97103693377E+02  0.00000000000E+00 0.  1.
         21   -1    0    0  502  503 -0.00000000000E+00 -0.00000000000E+00 -0.86324401066E+03  0.86324401066E+03  0.00000000000E+00 0.  1.
         -6    2    1    2    0  503 -0.13235629177E+03  0.76169070591E+02 -0.67444092430E+03  0.71270711829E+03  0.17251365399E+03 0.  0.
        -24    2    3    3    0    0 -0.11467244457E+03  0.41056217036E+02 -0.64868601055E+03  0.66547326900E+03  0.85004405630E+02 0.  0.
          6    2    1    2  501    0  0.13235629177E+03 -0.76169070591E+02 -0.91699392989E+02  0.24764058575E+03  0.17203826827E+03 0.  0.
         24    2    5    5    0    0  0.14813297972E+03 -0.15277324287E+02 -0.43287651191E+02  0.16812646502E+03  0.64930048327E+02 0.  0.
          5    1    5    5  501    0 -0.15776687956E+02 -0.60891746304E+02 -0.48411741797E+02  0.79514120725E+02  0.47000000000E+01 0. -1.
        -13    1    6    6    0    0  0.37372733814E+02 -0.29506670665E+02  0.19120452414E+01  0.47655228081E+02  0.00000000000E+00 0.  1.
         14    1    6    6    0    0  0.11076024591E+03  0.14229346378E+02 -0.45199696433E+02  0.12047123694E+03  0.00000000000E+00 0. -1.
         -5    1    3    3    0  503 -0.17683847203E+02  0.35112853555E+02 -0.25754913753E+02  0.47233849294E+02  0.47000000000E+01 0.  1.
         13    1    4    4    0    0 -0.10388043837E+02  0.34529588385E+01 -0.28632760892E+03  0.28653679346E+03  0.00000000000E+00 0. -1.
        -14    1    4    4    0    0 -0.10428440073E+03  0.37603258198E+02 -0.36235840163E+03  0.37893647554E+03  0.00000000000E+00 0.  1.
</event>
<event>
12    1  0.8133506E-002  0.1844914E+03  0.7818608E-02  0.1164303E+00
         21   -1    0    0  501  502  0.00000000000E+00  0.00000000000E+00  0.46233771165E+03  0.46233771165E+03  0.00000000000E+00 0. -1.
         21   -1    0    0  502  503 -0.00000000000E+00 -0.00000000000E+00 -0.76085789278E+02  0.76085789278E+02  0.00000000000E+00 0. -1.
         -6    2    1    2    0  503  0.44093694122E+02  0.49292840988E+02  0.25141238732E+03  0.30990923146E+03  0.16870537992E+03 0.  0.
        -24    2    3    3    0    0 -0.11367031852E+02  0.23670903396E+02  0.22981371687E+03  0.24494025135E+03  0.80572086920E+02 0.  0.
          6    2    1    2  501    0 -0.44093694122E+02 -0.49292840988E+02  0.13483953505E+03  0.22851426947E+03  0.17222959415E+03 0.  0.
         24    2    5    5    0    0  0.58286435436E+01 -0.13922054967E+02  0.14595826266E+03  0.16615203406E+03  0.77941563248E+02 0.  0.
          5    1    5    5  501    0 -0.49922337666E+02 -0.35370786021E+02 -0.11118727607E+02  0.62362235410E+02  0.47000000000E+01 0. -1.
        -11    1    6    6    0    0  0.87630606765E+01  0.32334717583E+01 -0.73334411224E+01  0.11875433917E+02  0.00000000000E+00 0.  1.
         12    1    6    6    0    0 -0.29344171329E+01 -0.17155526725E+02  0.15329170378E+03  0.15427660014E+03  0.00000000000E+00 0. -1.
         -5    1    3    3    0  503  0.55460725974E+02  0.25621937592E+02  0.21598670451E+02  0.64968980111E+02  0.47000000000E+01 0.  1.
         11    1    4    4    0    0  0.10727345259E+02  0.39290686353E+02  0.57200563303E+02  0.70219216832E+02  0.00000000000E+00 0. -1.
        -12    1    4    4    0    0 -0.22094377111E+02 -0.15619782957E+02  0.17261315356E+03  0.17472103452E+03  0.00000000000E+00 0.  1.
</event>
<event>
12    1  0.8133506E-002  0.1862261E+03  0.7818608E-02  0.1162397E+00
         21   -1    0    0  501  502  0.00000000000E+00  0.00000000000E+00  0.58349048297E+03  0.58349048297E+03  0.00000000000E+00 0.  1.
         21   -1    0    0  502  503 -0.00000000000E+00 -0.00000000000E+00 -0.59312618453E+02  0.59312618453E+02  0.00000000000E+00 0.  1.
         -6    2    1    2    0  503 -0.62548595685E+01  0.64838264514E+02  0.22985941584E+03  0.29451655398E+03  0.17222521797E+03 0.  0.
        -24    2    3    3    0    0 -0.52813649752E+02  0.90860833500E+02  0.16802038519E+03  0.21271771077E+03  0.77285198897E+02 0.  0.
          6    2    1    2  501    0  0.62548595685E+01 -0.64838264514E+02  0.29431844868E+03  0.34828654744E+03  0.17446216233E+03 0.  0.
         24    2    5    5    0    0  0.18618803478E+02 -0.25944969768E+02  0.29491341731E+03  0.30720127669E+03  0.79868012297E+02 0.  0.
          5    1    5    5  501    0 -0.12363943910E+02 -0.38893294746E+02 -0.59496863700E+00  0.41085270753E+02  0.47000000000E+01 0. -1.
        -11    1    6    6    0    0 -0.24425599121E+01 -0.50303706960E+02  0.13523921953E+03  0.14431242335E+03  0.00000000000E+00 0.  1.
         12    1    6    6    0    0  0.21061363390E+02  0.24358737192E+02  0.15967419778E+03  0.16288885334E+03  0.00000000000E+00 0. -1.
         -5    1    3    3    0  503  0.46558790184E+02 -0.26022568986E+02  0.61839030645E+02  0.81798843214E+02  0.47000000000E+01 0.  1.
         11    1    4    4    0    0 -0.17544823399E+02  0.93361962817E+02  0.11869629843E+03  0.15202989242E+03  0.00000000000E+00 0. -1.
        -12    1    4    4    0    0 -0.35268826354E+02 -0.25011293169E+01  0.49324086767E+02  0.60687818347E+02  0.00000000000E+00 0.  1.
</event>
<event>
12    1  0.8133506E-002  0.1967170E+03  0.7818608E-02  0.1153281E+00
         21   -1    0    0  503  502  0.00000000000E+00  0.00000000000E+00  0.13419287224E+03  0.13419287224E+03  0.00000000000E+00 0. -1.
         21   -1    0    0  501  503 -0.00000000000E+00 -0.00000000000E+00 -0.37982176627E+03  0.37982176627E+03  0.00000000000E+00 0. -1.
          6    2    1    2  501    0 -0.71272724667E+02  0.63715012427E+02 -0.25311046527E+03  0.32056591115E+03  0.17192495942E+03 0.  0.
         24    2    3    3    0    0 -0.11561889200E+02 -0.19794853421E+02 -0.53196393779E+02  0.95783777638E+02  0.76283433613E+02 0.  0.
         -6    2    1    2    0  502  0.71272724667E+02 -0.63715012427E+02  0.74815712391E+01  0.19344872735E+03  0.16800902391E+03 0.  0.
        -24    2    5    5    0    0  0.88149739117E+02 -0.41244560156E+02  0.55907598669E+02  0.13726220784E+03  0.79017490871E+02 0.  0.
          5    1    3    3  501    0 -0.59710835467E+02  0.83509865848E+02 -0.19991407149E+03  0.22478213351E+03  0.47000000000E+01 0. -1.
        -13    1    4    4    0    0 -0.23596549360E+02 -0.42025604038E+02 -0.15947371597E+02  0.50766792270E+02  0.00000000000E+00 0.  1.
         14    1    4    4    0    0  0.12034660160E+02  0.22230750617E+02 -0.37249022182E+02  0.45016985369E+02  0.00000000000E+00 0. -1.
         -5    1    5    5    0  502 -0.16877014450E+02 -0.22470452271E+02 -0.48426027430E+02  0.56186519510E+02  0.47000000000E+01 0.  1.
         13    1    6    6    0    0  0.82733174721E+02 -0.62327222870E+02  0.45538497732E+02  0.11315129556E+03  0.00000000000E+00 0. -1.
        -14    1    6    6    0    0  0.54165643960E+01  0.21082662715E+02  0.10369100937E+02  0.24110912285E+02  0.00000000000E+00 0.  1.
</event>
<event>
12    1  0.8133506E-002  0.2116018E+03  0.7818608E-02  0.1140941E+00
         21   -1    0    0  503  502  0.00000000000E+00  0.00000000000E+00  0.30247892003E+03  0.30247892003E+03  0.00000000000E+00 0. -1.
         21   -1    0    0  501  503 -0.00000000000E+00 -0.00000000000E+00 -0.14745759328E+03  0.14745759328E+03  0.00000000000E+00 0. -1.
          6    2    1    2  501    0  0.11241904508E+03 -0.34567585316E+02  0.52946756929E+02  0.21500136466E+03  0.17201531352E+03 0.  0.
         24    2    3    3    0    0  0.82821068933E+02 -0.88040047400E+02  0.50593012672E+02  0.15365827617E+03  0.80254803587E+02 0.  0.
         -6    2    1    2    0  502 -0.11241904508E+03  0.34567585316E+02  0.10207456982E+03  0.23493514865E+03  0.17590436782E+03 0.  0.
        -24    2    5    5    0    0 -0.64027158975E+02  0.74188128027E+02  0.10393934877E+02  0.12385413827E+03  0.75023051503E+02 0.  0.
          5    1    3    3  501    0  0.29597976151E+02  0.53472462084E+02  0.23537442572E+01  0.61343088490E+02  0.47000000000E+01 0. -1.
        -13    1    4    4    0    0  0.55722397908E+02 -0.39418483886E+01  0.11466489610E+02  0.57026346379E+02  0.00000000000E+00 0.  1.
         14    1    4    4    0    0  0.27098671026E+02 -0.84098199011E+02  0.39126523061E+02  0.96631929791E+02  0.00000000000E+00 0. -1.
         -5    1    5    5    0  502 -0.48391886109E+02 -0.39620542711E+02  0.91680634939E+02  0.11108101039E+03  0.47000000000E+01 0.  1.
         13    1    6    6    0    0  0.46845017379E+01  0.14525439159E+02 -0.22417658171E+02  0.27119814475E+02  0.00000000000E+00 0. -1.
        -14    1    6    6    0    0 -0.68711660713E+02  0.59662688868E+02  0.32811593048E+02  0.96734323791E+02  0.00000000000E+00 0.  1.
</event>
<event>
12    1  0.8133506E-002  0.1914496E+03  0.7818608E-02  0.1157921E+00
         21   -1    0    0  501  502  0.00000000000E+00  0.00000000000E+00  0.14089743069E+04  0.14089743069E+04  0.00000000000E+00 0. -1.
         21   -1    0    0  502  503 -0.00000000000E+00 -0.00000000000E+00 -0.68683404252E+02  0.68683404252E+02  0.00000000000E+00 0. -1.
         -6    2    1    2    0  503 -0.76946308958E+02  0.95652059028E+01  0.86924807896E+02  0.21025903853E+03  0.17504488976E+03 0.  0.
        -24    2    3    3    0    0 -0.10461812020E+03  0.42651101719E+02  0.92347301900E+02  0.16653377032E+03  0.80258363644E+02 0.  0.
          6    2    1    2  501    0  0.76946308958E+02 -0.95652059028E+01  0.12533660948E+04  0.12673986727E+04  0.17134935149E+03 0.  0.
         24    2    5    5    0    0  0.48990996239E+02 -0.72105038622E+02  0.76889636197E+03  0.77808717452E+03  0.81355893459E+02 0.  0.
          5    1    5    5  501    0  0.27955312718E+02  0.62539832720E+02  0.48446973282E+03  0.48931149814E+03  0.47000000000E+01 0. -1.
        -11    1    6    6    0    0 -0.74085837599E+01 -0.17770135724E+02  0.34347591802E+02  0.39375397135E+02  0.00000000000E+00 0.  1.
         12    1    6    6    0    0  0.56399579999E+02 -0.54334902899E+02  0.73454877017E+03  0.73871177739E+03  0.00000000000E+00 0. -1.
         -5    1    3    3    0  503  0.27671811245E+02 -0.33085895816E+02 -0.54224940043E+01  0.43725268218E+02  0.47000000000E+01 0.  1.
         13    1    4    4    0    0 -0.56827458504E+02  0.46829071789E+02  0.14436999087E+02  0.75038316528E+02  0.00000000000E+00 0. -1.
        -14    1    4    4    0    0 -0.47790661698E+02 -0.41779700704E+01  0.77910302813E+02  0.91495453788E+02  0.00000000000E+00 0.  1.
</event>
<event>
12    1  0.8133506E-002  0.2529621E+03  0.7818608E-02  0.1112110E+00
         21   -1    0    0  501  502  0.00000000000E+00  0.00000000000E+00  0.62808286886E+02  0.62808286886E+02  0.00000000000E+00 0. -1.
         21   -1    0    0  502  503 -0.00000000000E+00 -0.00000000000E+00 -0.11375864606E+04  0.11375864606E+04  0.00000000000E+00 0. -1.
         -6    2    1    2    0  503  0.13450003361E+03 -0.12220586352E+03 -0.32612132595E+03  0.41015624724E+03  0.16984844949E+03 0.  0.
        -24    2    3    3    0    0  0.38864164540E+02 -0.12591125632E+03 -0.20642685101E+03  0.25683042842E+03  0.77367670173E+02 0.  0.
          6    2    1    2  501    0 -0.13450003361E+03  0.12220586352E+03 -0.74865684777E+03  0.79023850024E+03  0.17596954121E+03 0.  0.
         24    2    5    5    0    0  0.44053926606E+00  0.20644136466E+02 -0.30063146708E+03  0.31141434217E+03  0.78569962874E+02 0.  0.
          5    1    5    5  501    0 -0.13494057288E+03  0.10156172706E+03 -0.44802538069E+03  0.47882415807E+03  0.47000000000E+01 0. -1.
        -13    1    6    6    0    0  0.61521978702E+01  0.10552762105E+02 -0.29951621091E+03  0.29976519298E+03  0.00000000000E+00 0.  1.
         14    1    6    6    0    0 -0.57116586041E+01  0.10091374360E+02 -0.11152561710E+01  0.11649149189E+02  0.00000000000E+00 0. -1.
         -5    1    3    3    0  503  0.95635869074E+02  0.37053927975E+01 -0.11969447493E+03  0.15332581883E+03  0.47000000000E+01 0.  1.
         11    1    4    4    0    0  0.61607085582E+02 -0.10564280941E+03 -0.16263431057E+03  0.20348404151E+03  0.00000000000E+00 0. -1.
        -12    1    4    4    0    0 -0.22742921042E+02 -0.20268446905E+02 -0.43792540444E+02  0.53346386907E+02  0.00000000000E+00 0.  1.
</event>
<event>
12    1  0.8133506E-002  0.1726220E+03  0.7818608E-02  0.1175493E+00
         21   -1    0    0  501  502  0.00000000000E+00  0.00000000000E+00  0.27251770831E+03  0.27251770831E+03  0.00000000000E+00 0. -1.
         21   -1    0    0  502  503 -0.00000000000E+00 -0.00000000000E+00 -0.11443432382E+03  0.11443432382E+03  0.00000000000E+00 0. -1.
         -6    2    1    2    0  503  0.16040289050E+02 -0.10985106916E+02  0.35195297619E+02  0.17617340074E+03  0.17152374386E+03 0.  0.
        -24    2    3    3    0    0 -0.48110589912E+02  0.92027454206E+01  0.51106646016E+02  0.10690475227E+03  0.80108784822E+02 0.  0.
          6    2    1    2  501    0 -0.16040289050E+02  0.10985106916E+02  0.12288808687E+03  0.21077863139E+03  0.17014166483E+03 0.  0.
         24    2    5    5    0    0  0.90984593275E+01  0.42112057387E+00 -0.13209085600E+02  0.71897081748E+02  0.70083886285E+02 0.  0.
          5    1    5    5  501    0 -0.25138748378E+02  0.10563986342E+02  0.13609717247E+03  0.13888154964E+03  0.47000000000E+01 0. -1.
        -11    1    6    6    0    0 -0.29230887847E+02  0.10088787493E+02 -0.86194329833E+01  0.32101761048E+02  0.00000000000E+00 0.  1.
         12    1    6    6    0    0  0.38329347175E+02 -0.96676669187E+01 -0.45896526166E+01  0.39795320700E+02  0.00000000000E+00 0. -1.
         -5    1    3    3    0  503  0.64150878962E+02 -0.20187852336E+02 -0.15911348397E+02  0.69268648474E+02  0.47000000000E+01 0.  1.
         11    1    4    4    0    0  0.68901374426E+01 -0.11597202642E+02 -0.13817124056E+02  0.19310153295E+02  0.00000000000E+00 0. -1.
        -12    1    4    4    0    0 -0.55000727354E+02  0.20799948062E+02  0.64923770072E+02  0.87594598973E+02  0.00000000000E+00 0.  1.
</event>
<event>
12    1  0.8133506E-002  0.1741116E+03  0.7818608E-02  0.1174511E+00
         21   -1    0    0  503  502  0.00000000000E+00  0.00000000000E+00  0.28457358123E+03  0.28457358123E+03  0.00000000000E+00 0.  1.
         21   -1    0    0  501  503 -0.00000000000E+00 -0.00000000000E+00 -0.11601169144E+03  0.11601169144E+03  0.00000000000E+00 0.  1.
          6    2    1    2  501    0 -0.23973815316E+02 -0.12638892654E+02  0.21731453403E+02  0.17546251675E+03  0.17198939877E+03 0.  0.
         24    2    3    3    0    0 -0.73055704761E+02 -0.43078999590E+02  0.81052011942E+01  0.11593607951E+03  0.78629155162E+02 0.  0.
         -6    2    1    2    0  502  0.23973815316E+02  0.12638892654E+02  0.14683043638E+03  0.22512275591E+03  0.16848321208E+03 0.  0.
        -24    2    5    5    0    0  0.35050959128E+02 -0.30010553280E+02  0.25919049882E+02  0.96346470290E+02  0.80508646408E+02 0.  0.
          5    1    3    3  501    0  0.49081889446E+02  0.30440106935E+02  0.13626252208E+02  0.59526437245E+02  0.47000000000E+01 0. -1.
        -11    1    4    4    0    0 -0.74799960147E+02 -0.33026209698E+01  0.12391899642E+02  0.75891373159E+02  0.00000000000E+00 0.  1.
         12    1    4    4    0    0  0.17442553857E+01 -0.39776378620E+02 -0.42866984476E+01  0.40044706348E+02  0.00000000000E+00 0. -1.
         -5    1    5    5    0  502 -0.11077143813E+02  0.42649445934E+02  0.12091138650E+03  0.12877628562E+03  0.47000000000E+01 0.  1.
         13    1    6    6    0    0 -0.19364351064E+02 -0.31648247913E+02  0.18319459092E+02  0.41378645090E+02  0.00000000000E+00 0. -1.
        -14    1    6    6    0    0  0.54415310192E+02  0.16376946330E+01  0.75995907902E+01  0.54967825200E+02  0.00000000000E+00 0.  1.
</event>
<event>
12    1  0.8133506E-002  0.2408515E+03  0.7818608E-02  0.1119498E+00
         21   -1    0    0  503  502  0.00000000000E+00  0.00000000000E+00  0.13744779305E+03  0.13744779305E+03  0.00000000000E+00 0.  1.
         21   -1    0    0  501  503 -0.00000000000E+00 -0.00000000000E+00 -0.96544942162E+03  0.96544942162E+03  0.00000000000E+00 0. -1.
          6    2    1    2  501    0  0.11800984293E+03 -0.11612443267E+03 -0.82818776252E+03  0.86204564005E+03  0.17267457444E+03 0.  0.
         24    2    3    3    0    0  0.14103849677E+03 -0.80366144785E+02 -0.76146655263E+03  0.78278162615E+03  0.81025851888E+02 0.  0.
         -6    2    1    2    0  502 -0.11800984293E+03  0.11612443267E+03  0.18613393947E+00  0.24085157462E+03  0.17492352460E+03 0.  0.
        -24    2    5    5    0    0  0.81231225487E+01  0.75248864333E+02  0.23791816967E+01  0.10815931213E+03  0.77229525383E+02 0.  0.
          5    1    3    3  501    0 -0.23028653840E+02 -0.35758287886E+02 -0.66721209888E+02  0.79264013898E+02  0.47000000000E+01 0. -1.
        -11    1    4    4    0    0  0.59967426162E+02 -0.95733019860E+01 -0.14848846872E+03  0.16042620002E+03  0.00000000000E+00 0.  1.
         12    1    4    4    0    0  0.81071070608E+02 -0.70792842799E+02 -0.61297808391E+03  0.62235542613E+03  0.00000000000E+00 0. -1.
         -5    1    5    5    0  502 -0.12613296548E+03  0.40875568338E+02 -0.21930477573E+01  0.13269226250E+03  0.47000000000E+01 0.  1.
         11    1    6    6    0    0  0.21174187410E+02 -0.47096963762E+01 -0.13571508966E+02  0.25587366181E+02  0.00000000000E+00 0. -1.
        -12    1    6    6    0    0 -0.13051064862E+02  0.79958560709E+02  0.15950690663E+02  0.82571945946E+02  0.00000000000E+00 0.  1.
</event>
<event>
12    1  0.8133506E-002  0.1754536E+03  0.7818608E-02  0.1172528E+00
         21   -1    0    0  503  502  0.00000000000E+00  0.00000000000E+00  0.58626319644E+03  0.58626319644E+03  0.00000000000E+00 0.  1.
         21   -1    0    0  501  503 -0.00000000000E+00 -0.00000000000E+00 -0.88935531153E+02  0.88935531153E+02  0.00000000000E+00 0.  1.
          6    2    1    2  501    0  0.12761755298E+02 -0.29743830928E+02  0.32137183186E+02  0.17837254640E+03  0.17244247995E+03 0.  0.
         24    2    3    3    0    0  0.69036699608E+02 -0.30520762259E+02 -0.34894574394E+01  0.11159814636E+03  0.82124217714E+02 0.  0.
         -6    2    1    2    0  502 -0.12761755298E+02  0.29743830928E+02  0.46519048210E+03  0.49682618119E+03  0.17142494510E+03 0.  0.
        -24    2    5    5    0    0 -0.61366908505E+02 -0.20989966295E+02  0.26488891517E+03  0.28450758376E+03  0.81067574859E+02 0.  0.
          5    1    3    3  501    0 -0.56274944310E+02  0.77693133101E+00  0.35626640625E+02  0.66774400047E+02  0.47000000000E+01 0. -1.
        -11    1    4    4    0    0  0.39152194932E+02 -0.56168603373E+02  0.11564877729E+02  0.69437401807E+02  0.00000000000E+00 0.  1.
         12    1    4    4    0    0  0.29884504676E+02  0.25647841113E+02 -0.15054335168E+02  0.42160744548E+02  0.00000000000E+00 0. -1.
         -5    1    5    5    0  502  0.48605153206E+02  0.50733797223E+02  0.20030156693E+03  0.21231859742E+03  0.47000000000E+01 0.  1.
         11    1    6    6    0    0 -0.21754278808E+02 -0.50101483852E+02  0.14331667085E+03  0.15337234259E+03  0.00000000000E+00 0. -1.
        -12    1    6    6    0    0 -0.39612629697E+02  0.29111517557E+02  0.12157224433E+03  0.13113524117E+03  0.00000000000E+00 0.  1.
</event>
<event>
12    1  0.8133506E-002  0.2774850E+03  0.7818608E-02  0.1097098E+00
         21   -1    0    0  501  502  0.00000000000E+00  0.00000000000E+00  0.84700802083E+03  0.84700802083E+03  0.00000000000E+00 0.  1.
         21   -1    0    0  502  503 -0.00000000000E+00 -0.00000000000E+00 -0.14088997922E+03  0.14088997922E+03  0.00000000000E+00 0.  1.
         -6    2    1    2    0  503  0.72464460628E+02  0.20218110194E+03  0.64738080626E+03  0.70426445258E+03  0.17538020075E+03 0.  0.
        -24    2    3    3    0    0  0.69929678626E+01  0.87284421882E+02  0.16685685269E+03  0.20585385537E+03  0.82868139707E+02 0.  0.
          6    2    1    2  501    0 -0.72464460628E+02 -0.20218110194E+03  0.58737235347E+02  0.28363354747E+03  0.17569755377E+03 0.  0.
         24    2    5    5    0    0 -0.35312059939E+02 -0.21885946988E+03  0.40657846912E+02  0.23882927178E+03  0.78993363067E+02 0.  0.
          5    1    5    5  501    0 -0.37152400689E+02  0.16678367944E+02  0.18079388435E+02  0.44804275693E+02  0.47000000000E+01 0. -1.
        -13    1    6    6    0    0  0.15298805019E+02 -0.13919817884E+03  0.13865639220E+02  0.14072115114E+03  0.00000000000E+00 0.  1.
         14    1    6    6    0    0 -0.50610864957E+02 -0.79661291045E+02  0.26792207692E+02  0.98108120640E+02  0.00000000000E+00 0. -1.
         -5    1    3    3    0  503  0.65471492765E+02  0.11489668006E+03  0.48052395358E+03  0.49841059721E+03  0.47000000000E+01 0.  1.
         13    1    4    4    0    0 -0.17409380069E+02  0.51616535689E+02  0.14979311172E+03  0.15939049404E+03  0.00000000000E+00 0. -1.
        -14    1    4    4    0    0  0.24402347932E+02  0.35667886193E+02  0.17063740962E+02  0.46463361326E+02  0.00000000000E+00 0.  1.
</event>
<event>
12    1  0.8133506E-002  0.2226216E+03  0.7818608E-02  0.1132240E+00
         21   -1    0    0  501  502  0.00000000000E+00  0.00000000000E+00  0.16463668895E+03  0.16463668895E+03  0.00000000000E+00 0. -1.
         21   -1    0    0  502  503 -0.00000000000E+00 -0.00000000000E+00 -0.31121689372E+03  0.31121689372E+03  0.00000000000E+00 0. -1.
         -6    2    1    2    0  503 -0.10979296011E+03  0.85326574446E+02 -0.26129931858E+02  0.22414986026E+03  0.17385415761E+03 0.  0.
        -24    2    3    3    0    0 -0.12043352941E+02  0.88791841976E+02 -0.36094853194E+02  0.12572027407E+03  0.80459401767E+02 0.  0.
          6    2    1    2  501    0  0.10979296011E+03 -0.85326574446E+02 -0.12045027291E+03  0.25170372242E+03  0.17178875760E+03 0.  0.
         24    2    5    5    0    0  0.98931094121E+02 -0.12083671119E+03 -0.68321058791E+02  0.18752822156E+03  0.78167734090E+02 0.  0.
          5    1    5    5  501    0  0.10861865989E+02  0.35510136748E+02 -0.52129214120E+02  0.64175500851E+02  0.47000000000E+01 0. -1.
        -11    1    6    6    0    0 -0.26499794071E+01  0.18665241631E+01 -0.21148706922E+02  0.21395656283E+02  0.00000000000E+00 0.  1.
         12    1    6    6    0    0  0.10158107353E+03 -0.12270323536E+03 -0.47172351869E+02  0.16613256528E+03  0.00000000000E+00 0. -1.
         -5    1    3    3    0  503 -0.97749607169E+02 -0.34652675304E+01  0.99649213352E+01  0.98429586192E+02  0.47000000000E+01 0.  1.
         11    1    4    4    0    0 -0.22139939980E+02  0.81367168090E+02 -0.56691301100E+02  0.10161051425E+03  0.00000000000E+00 0. -1.
        -12    1    4    4    0    0  0.10096587039E+02  0.74246738865E+01  0.20596447906E+02  0.24109759819E+02  0.00000000000E+00 0.  1.
</event>
<event>
12    1  0.8133506E-002  0.1738965E+03  0.7818608E-02  0.1174186E+00
         21   -1    0    0  501  502  0.00000000000E+00  0.00000000000E+00  0.30355398110E+02  0.30355398110E+02  0.00000000000E+00 0. -1.
         21   -1    0    0  502  503 -0.00000000000E+00 -0.00000000000E+00 -0.10470179499E+04  0.10470179499E+04  0.00000000000E+00 0. -1.
         -6    2    1    2    0  503  0.14443102113E+02 -0.97444780215E+01 -0.63380754342E+03  0.65687606360E+03  0.17167004043E+03 0.  0.
        -24    2    3    3    0    0 -0.24360342570E+02  0.27611629174E+02 -0.55116520642E+03  0.55811862373E+03  0.79733838686E+02 0.  0.
          6    2    1    2  501    0 -0.14443102113E+02  0.97444780215E+01 -0.38285500835E+03  0.42049728439E+03  0.17302153251E+03 0.  0.
         24    2    5    5    0    0 -0.55992207342E+02 -0.36994020237E+02 -0.17727860487E+03  0.20556807969E+03  0.79541478665E+02 0.  0.
          5    1    5    5  501    0  0.41549105229E+02  0.46738498258E+02 -0.20557640348E+03  0.21492920470E+03  0.47000000000E+01 0. -1.
        -13    1    6    6    0    0  0.97092796648E+01 -0.29771147838E+02 -0.95002624925E+02  0.10003044585E+03  0.00000000000E+00 0.  1.
         14    1    6    6    0    0 -0.65701487007E+02 -0.72228723992E+01 -0.82275979944E+02  0.10553763384E+03  0.00000000000E+00 0. -1.
         -5    1    3    3    0  503  0.38803444682E+02 -0.37356107196E+02 -0.82642336999E+02  0.98757439865E+02  0.47000000000E+01 0.  1.
         13    1    4    4    0    0 -0.13470582581E+02  0.95471869179E+01 -0.52126920794E+03  0.52153062472E+03  0.00000000000E+00 0. -1.
        -14    1    4    4    0    0 -0.10889759989E+02  0.18064442256E+02 -0.29895998483E+02  0.36587999015E+02  0.00000000000E+00 0.  1.
</event>
<event>
12    1  0.8133506E-002  0.1717419E+03  0.7818608E-02  0.1176286E+00
         21   -1    0    0  503  502  0.00000000000E+00  0.00000000000E+00  0.30441352730E+03  0.30441352730E+03  0.00000000000E+00 0.  1.
         21   -1    0    0  501  503 -0.00000000000E+00 -0.00000000000E+00 -0.18774566293E+03  0.18774566293E+03  0.00000000000E+00 0.  1.
          6    2    1    2  501    0 -0.24447038783E+02  0.13617760258E+02 -0.11326544955E+03  0.20572879348E+03  0.16944666802E+03 0.  0.
         24    2    3    3    0    0  0.15401223349E+02  0.66381621223E+02 -0.59954062438E+02  0.12066350670E+03  0.79507703584E+02 0.  0.
         -6    2    1    2    0  502  0.24447038783E+02 -0.13617760258E+02  0.22993331391E+03  0.28643039675E+03  0.16849315190E+03 0.  0.
        -24    2    5    5    0    0 -0.45065228015E+02  0.19528226463E+02  0.11248336544E+03  0.14590569406E+03  0.78890668985E+02 0.  0.
          5    1    3    3  501    0 -0.39848262132E+02 -0.52763860966E+02 -0.53311387110E+02  0.85065286778E+02  0.47000000000E+01 0. -1.
        -11    1    4    4    0    0 -0.64600131902E+01  0.26500101612E+02  0.16373638611E+02  0.31813255056E+02  0.00000000000E+00 0.  1.
         12    1    4    4    0    0  0.21861236540E+02  0.39881519611E+02 -0.76327701049E+02  0.88850251643E+02  0.00000000000E+00 0. -1.
         -5    1    5    5    0  502  0.69512266798E+02 -0.33145986721E+02  0.11744994847E+03  0.14052470269E+03  0.47000000000E+01 0.  1.
         13    1    6    6    0    0 -0.53124097097E+02  0.15072192295E+02  0.12122423251E+03  0.13320906583E+03  0.00000000000E+00 0. -1.
        -14    1    6    6    0    0  0.80588690816E+01  0.44560341680E+01 -0.87408670627E+01  0.12696628229E+02  0.00000000000E+00 0.  1.
</event>
<event>
12    1  0.8133506E-002  0.2203189E+03  0.7818608E-02  0.1133742E+00
         21   -1    0    0  501  502  0.00000000000E+00  0.00000000000E+00  0.12254417418E+04  0.12254417418E+04  0.00000000000E+00 0. -1.
         21   -1    0    0  502  503 -0.00000000000E+00 -0.00000000000E+00 -0.39912329397E+02  0.39912329397E+02  0.00000000000E+00 0. -1.
         -6    2    1    2    0  503 -0.13483235540E+03  0.30245447257E+02  0.53053660703E+03  0.57446452340E+03  0.17159791987E+03 0.  0.
        -24    2    3    3    0    0 -0.13459196129E+03  0.50281781901E+02  0.28985891010E+03  0.33290840923E+03  0.78527495410E+02 0.  0.
          6    2    1    2  501    0  0.13483235540E+03 -0.30245447257E+02  0.65499280533E+03  0.69088954776E+03  0.17093344032E+03 0.  0.
         24    2    5    5    0    0  0.14521240937E+03 -0.16150279948E+02  0.65040489262E+03  0.67219307203E+03  0.86426421628E+02 0.  0.
          5    1    5    5  501    0 -0.10380053964E+02 -0.14095167309E+02  0.45879127118E+01  0.18696475732E+02  0.47000000000E+01 0. -1.
        -11    1    6    6    0    0  0.10593771674E+03 -0.42774995899E+02  0.54116876985E+03  0.55309686092E+03  0.00000000000E+00 0.  1.
         12    1    6    6    0    0  0.39274692631E+02  0.26624715951E+02  0.10923612277E+03  0.11909621110E+03  0.00000000000E+00 0. -1.
         -5    1    3    3    0  503 -0.24039411660E+00 -0.20036334644E+02  0.24067769692E+03  0.24155611417E+03  0.47000000000E+01 0.  1.
         11    1    4    4    0    0 -0.99190450094E+02 -0.36039005257E+01  0.17422545267E+03  0.20051494170E+03  0.00000000000E+00 0. -1.
        -12    1    4    4    0    0 -0.35401511193E+02  0.53885682426E+02  0.11563345743E+03  0.13239346753E+03  0.00000000000E+00 0.  1.
</event>
<event>
12    1  0.8133506E-002  0.1786872E+03  0.7818608E-02  0.1169255E+00
         21   -1    0    0  503  502  0.00000000000E+00  0.00000000000E+00  0.46688744940E+03  0.46688744940E+03  0.00000000000E+00 0.  1.
         21   -1    0    0  501  503 -0.00000000000E+00 -0.00000000000E+00 -0.68378600673E+02  0.68378600673E+02  0.00000000000E+00 0.  1.
          6    2    1    2  501    0 -0.49960274401E+02  0.34933762233E+01  0.18219322778E+03  0.25469244667E+03  0.17077949949E+03 0.  0.
         24    2    3    3    0    0 -0.51460707986E+02 -0.34155740715E+02  0.19050088581E+03  0.21582324949E+03  0.80462838865E+02 0.  0.
         -6    2    1    2    0  502  0.49960274401E+02 -0.34933762233E+01  0.21631562094E+03  0.28057360340E+03  0.17152511876E+03 0.  0.
        -24    2    5    5    0    0 -0.19480807023E+02 -0.27490408868E+02  0.17616478825E+03  0.19671598162E+03  0.80795546806E+02 0.  0.
          5    1    3    3  501    0  0.15004335855E+01  0.37649116938E+02 -0.83076580260E+01  0.38869197175E+02  0.47000000000E+01 0. -1.
        -11    1    4    4    0    0 -0.18117643311E+02 -0.18635393285E+02  0.17327028343E+03  0.17520878404E+03  0.00000000000E+00 0.  1.
         12    1    4    4    0    0 -0.33343064675E+02 -0.15520347430E+02  0.17230602374E+02  0.40614465458E+02  0.00000000000E+00 0. -1.
         -5    1    5    5    0  502  0.69441081423E+02  0.23997032645E+02  0.40150832694E+02  0.83857621783E+02  0.47000000000E+01 0.  1.
         11    1    6    6    0    0 -0.13453835433E+02  0.11071815616E+02  0.14690788154E+03  0.14793754239E+03  0.00000000000E+00 0. -1.
        -12    1    6    6    0    0 -0.60269715897E+01 -0.38562224484E+02  0.29256906706E+02  0.48778439230E+02  0.00000000000E+00 0.  1.
</event>
<event>
12    1  0.8133506E-002  0.2117651E+03  0.7818608E-02  0.1140404E+00
         21   -1    0    0  503  502  0.00000000000E+00  0.00000000000E+00  0.17745998269E+03  0.17745998269E+03  0.00000000000E+00 0.  1.
         21   -1    0    0  501  503 -0.00000000000E+00 -0.00000000000E+00 -0.26356269111E+03  0.26356269111E+03  0.00000000000E+00 0.  1.
          6    2    1    2  501    0  0.22930788550E+02  0.12088548168E+03 -0.90469824484E+02  0.22921258786E+03  0.17092249866E+03 0.  0.
         24    2    3    3    0    0 -0.54226386626E+02  0.69950942819E+02 -0.40811155833E+02  0.12416197957E+03  0.76922112051E+02 0.  0.
         -6    2    1    2    0  502 -0.22930788550E+02 -0.12088548168E+03  0.43671160628E+01  0.21181008594E+03  0.17235231376E+03 0.  0.
        -24    2    5    5    0    0  0.75121362081E+01 -0.69878373870E+02 -0.61299247004E+02  0.12313845602E+03  0.80411829612E+02 0.  0.
          5    1    3    3  501    0  0.77157175177E+02  0.50934538858E+02 -0.49658668651E+02  0.10505060829E+03  0.47000000000E+01 0. -1.
        -13    1    4    4    0    0 -0.44152513871E+02  0.47413167149E+02  0.11977965397E+02  0.65885693100E+02  0.00000000000E+00 0.  1.
         14    1    4    4    0    0 -0.10073872756E+02  0.22537775670E+02 -0.52789121230E+02  0.58276286469E+02  0.00000000000E+00 0. -1.
         -5    1    5    5    0  502 -0.30442924758E+02 -0.51007107807E+02  0.65666363067E+02  0.88671629923E+02  0.47000000000E+01 0.  1.
         13    1    6    6    0    0  0.37220595806E+02 -0.58071579908E+02 -0.21832937758E+02  0.72348865342E+02  0.00000000000E+00 0. -1.
        -14    1    6    6    0    0 -0.29708459598E+02 -0.11806793962E+02 -0.39466309246E+02  0.50789590674E+02  0.00000000000E+00 0.  1.
</event>
<event>
12    1  0.8133506E-002  0.2116915E+03  0.7818608E-02  0.1140267E+00
         21   -1    0    0  501  502  0.00000000000E+00  0.00000000000E+00  0.42358022000E+03  0.42358022000E+03  0.00000000000E+00 0. -1.
         21   -1    0    0  502  503 -0.00000000000E+00 -0.00000000000E+00 -0.16117284771E+03  0.16117284771E+03  0.00000000000E+00 0. -1.
         -6    2    1    2    0  503 -0.29197050186E+02  0.12017575686E+03 -0.40345163926E+02  0.21533134383E+03  0.17159596471E+03 0.  0.
        -24    2    3    3    0    0  0.36722996999E+01  0.90557527008E+02 -0.92994710422E+02  0.14639877933E+03  0.67604991978E+02 0.  0.
          6    2    1    2  501    0  0.29197050186E+02 -0.12017575686E+03  0.30275253621E+03  0.36942172388E+03  0.17180987055E+03 0.  0.
         24    2    5    5    0    0  0.67571375023E+02 -0.70022078820E+02  0.11119147427E+03  0.16766516097E+03  0.79240646185E+02 0.  0.
          5    1    5    5  501    0 -0.38374324837E+02 -0.50153678043E+02  0.19156106194E+03  0.20175656291E+03  0.47000000000E+01 0. -1.
        -13    1    6    6    0    0  0.68474812884E+02 -0.39195479595E+02  0.11177903532E+03  0.13681972942E+03  0.00000000000E+00 0.  1.
         14    1    6    6    0    0 -0.90343786125E+00 -0.30826599225E+02 -0.58756104915E+00  0.30845431554E+02  0.00000000000E+00 0. -1.
         -5    1    3    3    0  503 -0.32869349886E+02  0.29618229855E+02  0.52649546495E+02  0.68932564495E+02  0.47000000000E+01 0.  1.
         11    1    4    4    0    0 -0.26791105012E+02  0.41020174052E+02 -0.19628965399E+02  0.52779866139E+02  0.00000000000E+00 0. -1.
        -12    1    4    4    0    0  0.30463404712E+02  0.49537352955E+02 -0.73365745022E+02  0.93618913192E+02  0.00000000000E+00 0.  1.
</event>
<event>
12    1  0.8133506E-002  0.1871175E+03  0.7818608E-02  0.1161299E+00
         21   -1    0    0  501  502  0.00000000000E+00  0.00000000000E+00  0.13816369050E+03  0.13816369050E+03  0.00000000000E+00 0. -1.
         21   -1    0    0  502  503 -0.00000000000E+00 -0.00000000000E+00 -0.41199730172E+03  0.41199730172E+03  0.00000000000E+00 0. -1.
         -6    2    1    2    0  503  0.59051567723E+02 -0.36414191753E+02 -0.30803997081E+03  0.35994260867E+03  0.17279171539E+03 0.  0.
        -24    2    3    3    0    0 -0.16456250728E+02  0.28029586402E+02 -0.16000128313E+03  0.18163956820E+03  0.79599348189E+02 0.  0.
          6    2    1    2  501    0 -0.59051567723E+02  0.36414191753E+02  0.34206359586E+02  0.19021838355E+03  0.17378111920E+03 0.  0.
         24    2    5    5    0    0 -0.73312791327E+02  0.83593737930E+02  0.66729553396E+01  0.13356619537E+03  0.73706999792E+02 0.  0.
          5    1    5    5  501    0  0.14261223604E+02 -0.47179546178E+02  0.27533404247E+02  0.56652188180E+02  0.47000000000E+01 0. -1.
        -11    1    6    6    0    0 -0.23190393320E+02 -0.13076345963E+01 -0.20840855752E+02  0.31206498026E+02  0.00000000000E+00 0.  1.
         12    1    6    6    0    0 -0.50122398007E+02  0.84901372526E+02  0.27513811091E+02  0.10235969734E+03  0.00000000000E+00 0. -1.
         -5    1    3    3    0  503  0.75507818451E+02 -0.64443778154E+02 -0.14803868768E+03  0.17830304047E+03  0.47000000000E+01 0.  1.
         13    1    4    4    0    0 -0.41848974877E-01  0.13062230773E+02 -0.15886033575E+03  0.15939645510E+03  0.00000000000E+00 0. -1.
        -14    1    4    4    0    0 -0.16414401753E+02  0.14967355629E+02 -0.11409473757E+01  0.22243113099E+02  0.00000000000E+00 0.  1.
</event>
<event>
12    1  0.8133506E-002  0.2143544E+03  0.7818608E-02  0.1139352E+00
         21   -1    0    0  501  502  0.00000000000E+00  0.00000000000E+00  0.82972783632E+02  0.82972783632E+02  0.00000000000E+00 0.  1.
         21   -1    0    0  502  503 -0.00000000000E+00 -0.00000000000E+00 -0.69735385032E+03  0.69735385032E+03  0.00000000000E+00 0. -1.
         -6    2    1    2    0  503 -0.97372135090E+02 -0.66865577388E+02 -0.49016481490E+03  0.53258187489E+03  0.17155048691E+03 0.  0.
        -24    2    3    3    0    0 -0.13454557246E+03 -0.65947330253E+02 -0.37951566798E+03  0.41575708583E+03  0.79813850537E+02 0.  0.
          6    2    1    2  501    0  0.97372135090E+02  0.66865577388E+02 -0.12421625179E+03  0.24774475907E+03  0.17887272096E+03 0.  0.
         24    2    5    5    0    0  0.91117185258E+02  0.86271851888E+02 -0.31171931412E+02  0.15237671703E+03  0.80633744228E+02 0.  0.
          5    1    5    5  501    0  0.62549498320E+01 -0.19406274499E+02 -0.93044320374E+02  0.95368042033E+02  0.47000000000E+01 0. -1.
        -11    1    6    6    0    0  0.61698381056E+02  0.40539214265E+01 -0.12998115395E+02  0.63182873531E+02  0.00000000000E+00 0.  1.
         12    1    6    6    0    0  0.29418804203E+02  0.82217930461E+02 -0.18173816017E+02  0.89193843502E+02  0.00000000000E+00 0. -1.
         -5    1    3    3    0  503  0.37173437373E+02 -0.91824713520E+00 -0.11064914692E+03  0.11682478906E+03  0.47000000000E+01 0.  1.
         11    1    4    4    0    0 -0.86247012347E+02 -0.23154485242E+02 -0.30184758982E+03  0.31478031197E+03  0.00000000000E+00 0. -1.
        -12    1    4    4    0    0 -0.48298560116E+02 -0.42792845011E+02 -0.77668078165E+02  0.10097677386E+03  0.00000000000E+00 0.  1.
</event>
<event>
12    1  0.8133506E-002  0.2104810E+03  0.7818608E-02  0.1141317E+00
         21   -1    0    0  503  502  0.00000000000E+00  0.00000000000E+00  0.30130698349E+03  0.30130698349E+03  0.00000000000E+00 0.  1.
         21   -1    0    0  501  503 -0.00000000000E+00 -0.00000000000E+00 -0.39599765844E+03  0.39599765844E+03  0.00000000000E+00 0.  1.
          6    2    1    2  501    0 -0.10703980139E+03  0.57349720673E+02 -0.32407841634E+03  0.38643119274E+03  0.17191782119E+03 0.  0.
         24    2    3    3    0    0 -0.13854533287E+03  0.18286580904E+02 -0.24545908537E+03  0.29304159694E+03  0.78064118805E+02 0.  0.
         -6    2    1    2    0  502  0.10703980139E+03 -0.57349720673E+02  0.22938774140E+03  0.31087344919E+03  0.17110539432E+03 0.  0.
        -24    2    5    5    0    0  0.11368152737E+03 -0.54535648311E+02  0.95324687699E+02  0.17653423714E+03  0.78612430291E+02 0.  0.
          5    1    3    3  501    0  0.31505531477E+02  0.39063139769E+02 -0.78619330969E+02  0.93389595803E+02  0.47000000000E+01 0. -1.
        -13    1    4    4    0    0 -0.12139459091E+03  0.36691262293E+02 -0.23227178289E+03  0.26463763254E+03  0.00000000000E+00 0.  1.
         14    1    4    4    0    0 -0.17150741956E+02 -0.18404681389E+02 -0.13187302481E+02  0.28403964396E+02  0.00000000000E+00 0. -1.
         -5    1    5    5    0  502 -0.66417259772E+01 -0.28140723614E+01  0.13406305370E+03  0.13433921205E+03  0.47000000000E+01 0.  1.
         11    1    6    6    0    0  0.57831022851E+02 -0.14500369867E+01  0.78755270254E+02  0.97718587812E+02  0.00000000000E+00 0. -1.
        -12    1    6    6    0    0  0.55850504515E+02 -0.53085611324E+02  0.16569417445E+02  0.78815649327E+02  0.00000000000E+00 0.  1.
</event>
<event>
12    1  0.8133506E-002  0.1744386E+03  0.7818608E-02  0.1173600E+00
         21   -1    0    0  501  502  0.00000000000E+00  0.00000000000E+00  0.24941378207E+04  0.24941378207E+04  0.00000000000E+00 0.  1.
         21   -1    0    0  502  503 -0.00000000000E+00 -0.00000000000E+00 -0.18295880629E+02  0.18295880629E+02  0.00000000000E+00 0.  1.
         -6    2    1    2    0  503 -0.67368837008E+01  0.30120534626E+02  0.50503757445E+03  0.53392449620E+03  0.17046930466E+03 0.  0.
        -24    2    3    3    0    0 -0.47905943281E+02 -0.15239427211E+02  0.43201916927E+03  0.43849811044E+03  0.55792568513E+02 0.  0.
          6    2    1    2  501    0  0.67368837008E+01 -0.30120534626E+02  0.19708043656E+04  0.19785092051E+04  0.17168632737E+03 0.  0.
         24    2    5    5    0    0  0.29396247759E+02 -0.71911872725E+02  0.16869904887E+04  0.16907030734E+04  0.80650583724E+02 0.  0.
          5    1    5    5  501    0 -0.22659364058E+02  0.41791338100E+02  0.28381387694E+03  0.28780613173E+03  0.47000000000E+01 0. -1.
        -11    1    6    6    0    0  0.79921117098E+01 -0.83598940460E+02  0.14582674002E+04  0.14606835617E+04  0.00000000000E+00 0.  1.
         12    1    6    6    0    0  0.21404136049E+02  0.11687067734E+02  0.22872308847E+03  0.23001951176E+03  0.00000000000E+00 0. -1.
         -5    1    3    3    0  503  0.41169059580E+02  0.45359961836E+02  0.73018405182E+02  0.95426385763E+02  0.47000000000E+01 0.  1.
         13    1    4    4    0    0 -0.18567773154E+02 -0.11716105252E+02  0.35977837356E+03  0.36044764863E+03  0.00000000000E+00 0. -1.
        -14    1    4    4    0    0 -0.29338170127E+02 -0.35233219586E+01  0.72240795703E+02  0.78050461805E+02  0.00000000000E+00 0.  1.
</event>
<event>
12    1  0.8133506E-002  0.1778624E+03  0.7818608E-02  0.1170007E+00
         21   -1    0    0  503  502  0.00000000000E+00  0.00000000000E+00  0.17690002109E+03  0.17690002109E+03  0.00000000000E+00 0.  1.
         21   -1    0    0  501  503 -0.00000000000E+00 -0.00000000000E+00 -0.26609930788E+03  0.26609930788E+03  0.00000000000E+00 0.  1.
          6    2    1    2  501    0  0.43622254598E+02  0.46254064169E+01 -0.17175868851E+03  0.24690982604E+03  0.17186948431E+03 0.  0.
         24    2    3    3    0    0 -0.25759090935E+02  0.40591438791E+02 -0.74213325174E+02  0.12183179240E+03  0.83810335500E+02 0.  0.
         -6    2    1    2    0  502 -0.43622254598E+02 -0.46254064169E+01  0.82559401714E+02  0.19608950293E+03  0.17236804480E+03 0.  0.
        -24    2    5    5    0    0 -0.70988097566E+02 -0.49746318401E+02  0.83020823454E+02  0.14310753459E+03  0.77931400207E+02 0.  0.
          5    1    3    3  501    0  0.69381345532E+02 -0.35966032374E+02 -0.97545363334E+02  0.12507803364E+03  0.47000000000E+01 0. -1.
        -13    1    4    4    0    0 -0.34859912264E+02  0.76655540816E+01 -0.79612285038E+02  0.87247292975E+02  0.00000000000E+00 0.  1.
         14    1    4    4    0    0  0.91008213295E+01  0.32925884709E+02  0.53989598638E+01  0.34584499423E+02  0.00000000000E+00 0. -1.
         -5    1    5    5    0  502  0.27365842969E+02  0.45120911984E+02 -0.46142174039E+00  0.52981968345E+02  0.47000000000E+01 0.  1.
         11    1    6    6    0    0 -0.34036236678E+02  0.15007278019E+01 -0.53374496997E+01  0.34484865672E+02  0.00000000000E+00 0. -1.
        -12    1    6    6    0    0 -0.36951860888E+02 -0.51247046203E+02  0.88358273154E+02  0.10862266892E+03  0.00000000000E+00 0.  1.
</event>
<event>
12    1  0.8133506E-002  0.1937263E+03  0.7818608E-02  0.1155174E+00
         21   -1    0    0  501  502  0.00000000000E+00  0.00000000000E+00  0.79322530045E+03  0.79322530045E+03  0.00000000000E+00 0.  1.
         21   -1    0    0  502  503 -0.00000000000E+00 -0.00000000000E+00 -0.12546758017E+03  0.12546758017E+03  0.00000000000E+00 0.  1.
         -6    2    1    2    0  503 -0.55398253327E+02 -0.71174481447E+02 -0.28691880455E+02  0.19583948602E+03  0.17145001312E+03 0.  0.
        -24    2    3    3    0    0 -0.99519679319E+02 -0.48227224529E+02  0.27540182296E+01  0.13681227725E+03  0.80498340548E+02 0.  0.
          6    2    1    2  501    0  0.55398253327E+02  0.71174481447E+02  0.69644960073E+03  0.72285339461E+03  0.17128984340E+03 0.  0.
         24    2    5    5    0    0 -0.35925260259E+02  0.47093789983E+02  0.33253395990E+03  0.34685266658E+03  0.78863733402E+02 0.  0.
          5    1    5    5  501    0  0.91323513586E+02  0.24080691464E+02  0.36391564083E+03  0.37600072802E+03  0.47000000000E+01 0. -1.
        -13    1    6    6    0    0 -0.13811401754E+02  0.60347469636E+02  0.29428408602E+03  0.30072528193E+03  0.00000000000E+00 0.  1.
         14    1    6    6    0    0 -0.22113858506E+02 -0.13253679652E+02  0.38249873884E+02  0.46127384648E+02  0.00000000000E+00 0. -1.
         -5    1    3    3    0  503  0.44121425992E+02 -0.22947256918E+02 -0.31445898685E+02  0.59027208775E+02  0.47000000000E+01 0.  1.
         13    1    4    4    0    0 -0.46366903553E+02 -0.41589185765E+02  0.37745431481E+02  0.72830403784E+02  0.00000000000E+00 0. -1.
        -14    1    4    4    0    0 -0.53152775766E+02 -0.66380387640E+01 -0.34991413251E+02  0.63981873461E+02  0.00000000000E+00 0.  1.
</event>
<event>
12    1  0.8133506E-002  0.2349004E+03  0.7818608E-02  0.1123243E+00
         21   -1    0    0  501  502  0.00000000000E+00  0.00000000000E+00  0.93552182236E+02  0.93552182236E+02  0.00000000000E+00 0. -1.
         21   -1    0    0  502  503 -0.00000000000E+00 -0.00000000000E+00 -0.74918637617E+03  0.74918637617E+03  0.00000000000E+00 0. -1.
         -6    2    1    2    0  503  0.84106520524E+02  0.13562246805E+03 -0.52223584801E+03  0.57263292436E+03  0.17236828152E+03 0.  0.
        -24    2    3    3    0    0  0.25532994080E+01  0.12161137209E+03 -0.26654727180E+03  0.30384680737E+03  0.80495894804E+02 0.  0.
          6    2    1    2  501    0 -0.84106520524E+02 -0.13562246805E+03 -0.13339834593E+03  0.27010563405E+03  0.17232113688E+03 0.  0.
         24    2    5    5    0    0 -0.19709450415E+02 -0.13198219209E+03 -0.13434742030E+03  0.20542777857E+03  0.79646603210E+02 0.  0.
          5    1    5    5  501    0 -0.64397070109E+02 -0.36402759652E+01  0.94907437002E+00  0.64677855483E+02  0.47000000000E+01 0. -1.
        -11    1    6    6    0    0 -0.12597049460E+02 -0.80932483963E+02 -0.13006630583E+03  0.15370750316E+03  0.00000000000E+00 0.  1.
         12    1    6    6    0    0 -0.71124009546E+01 -0.51049708126E+02 -0.42811144649E+01  0.51720275406E+02  0.00000000000E+00 0. -1.
         -5    1    3    3    0  503  0.81553221116E+02  0.14011095961E+02 -0.25568857621E+03  0.26878611699E+03  0.47000000000E+01 0.  1.
         13    1    4    4    0    0  0.37952347032E+02  0.90176590998E+02 -0.16543266122E+03  0.19219824039E+03  0.00000000000E+00 0. -1.
        -14    1    4    4    0    0 -0.35399047624E+02  0.31434781096E+02 -0.10111461058E+03  0.11164856698E+03  0.00000000000E+00 0.  1.
</event>
<event>
12    1  0.8133506E-002  0.1970524E+03  0.7818608E-02  0.1154620E+00
         21   -1    0    0  503  502  0.00000000000E+00  0.00000000000E+00  0.26975459139E+03  0.26975459139E+03  0.00000000000E+00 0.  1.
         21   -1    0    0  501  503 -0.00000000000E+00 -0.00000000000E+00 -0.14253209784E+03  0.14253209784E+03  0.00000000000E+00 0.  1.
          6    2    1    2  501    0  0.60931385499E+01  0.94041530346E+02  0.10522410123E+03  0.21401021355E+03  0.16077103052E+03 0.  0.
         24    2    3    3    0    0 -0.18801419115E+02 -0.47473268302E+01  0.66884495813E+02  0.10505612851E+03  0.78658908485E+02 0.  0.
         -6    2    1    2    0  502 -0.60931385499E+01 -0.94041530346E+02  0.21998392309E+02  0.19827647568E+03  0.17305691484E+03 0.  0.
        -24    2    5    5    0    0 -0.26599462687E+02 -0.81093932767E+02  0.75680318077E+02  0.13918342391E+03  0.79754357879E+02 0.  0.
          5    1    3    3  501    0  0.24894557664E+02  0.98788857177E+02  0.38339605422E+02  0.10895408504E+03  0.47000000000E+01 0. -1.
        -13    1    4    4    0    0 -0.22795095559E+02  0.23889537373E+02  0.91991673908E+00  0.33032902147E+02  0.00000000000E+00 0.  1.
         14    1    4    4    0    0  0.39936764448E+01 -0.28636864203E+02  0.65964579074E+02  0.72023226361E+02  0.00000000000E+00 0. -1.
         -5    1    5    5    0  502  0.20506324137E+02 -0.12947597579E+02 -0.53681925768E+02  0.59093051765E+02  0.47000000000E+01 0.  1.
         11    1    6    6    0    0 -0.29729621601E+02 -0.96023022067E+02  0.71537935265E+02  0.12337725621E+03  0.00000000000E+00 0. -1.
        -12    1    6    6    0    0  0.31301589142E+01  0.14929089300E+02  0.41423828128E+01  0.15806167705E+02  0.00000000000E+00 0.  1.
</event>
<event>
12    1  0.8133506E-002  0.2016517E+03  0.7818608E-02  0.1148439E+00
         21   -1    0    0  501  502  0.00000000000E+00  0.00000000000E+00  0.32927491804E+02  0.32927491804E+02  0.00000000000E+00 0. -1.
         21   -1    0    0  502  503 -0.00000000000E+00 -0.00000000000E+00 -0.15659122277E+04  0.15659122277E+04  0.00000000000E+00 0. -1.
         -6    2    1    2    0  503 -0.47463630071E+01 -0.10433395333E+03 -0.11347996175E+04  0.11525048730E+04  0.17201514074E+03 0.  0.
        -24    2    3    3    0    0 -0.98945826769E+01 -0.12325417443E+03 -0.61785493704E+03  0.63516709980E+03  0.80018917497E+02 0.  0.
          6    2    1    2  501    0  0.47463630071E+01  0.10433395333E+03 -0.39818511835E+03  0.44633484645E+03  0.17249726056E+03 0.  0.
         24    2    5    5    0    0 -0.51995200517E+02  0.54739049559E+02 -0.31641624672E+03  0.33503570953E+03  0.80186164947E+02 0.  0.
          5    1    5    5  501    0  0.56741563524E+02  0.49594903773E+02 -0.81768871622E+02  0.11129913691E+03  0.47000000000E+01 0. -1.
        -13    1    6    6    0    0 -0.21028056811E+02 -0.15638771105E+02 -0.14237298612E+03  0.14476469705E+03  0.00000000000E+00 0.  1.
         14    1    6    6    0    0 -0.30967143706E+02  0.70377820664E+02 -0.17404326060E+03  0.19027101249E+03  0.00000000000E+00 0. -1.
         -5    1    3    3    0  503  0.51482196698E+01  0.18920221101E+02 -0.51694468047E+03  0.51733777322E+03  0.47000000000E+01 0.  1.
         13    1    4    4    0    0  0.14668356449E+02 -0.12019115537E+03 -0.54259375037E+03  0.55593979211E+03  0.00000000000E+00 0. -1.
        -14    1    4    4    0    0 -0.24562939126E+02 -0.30630190604E+01 -0.75261186675E+02  0.79227307691E+02  0.00000000000E+00 0.  1.
</event>
<event>
12    1  0.8133506E-002  0.2773691E+03  0.7818608E-02  0.1097190E+00
         21   -1    0    0  501  502  0.00000000000E+00  0.00000000000E+00  0.29962031393E+03  0.29962031393E+03  0.00000000000E+00 0.  1.
         21   -1    0    0  502  503 -0.00000000000E+00 -0.00000000000E+00 -0.64706710612E+03  0.64706710612E+03  0.00000000000E+00 0. -1.
         -6    2    1    2    0  503  0.72202585172E+02 -0.20489669648E+03 -0.54156611492E+03  0.60846320273E+03  0.17244634733E+03 0.  0.
        -24    2    3    3    0    0  0.87551156355E+02 -0.16497961609E+03 -0.52366257576E+03  0.56186300253E+03  0.81142230995E+02 0.  0.
          6    2    1    2  501    0 -0.72202585172E+02  0.20489669648E+03  0.19411932273E+03  0.33822421733E+03  0.17180640325E+03 0.  0.
         24    2    5    5    0    0 -0.23075383439E+02  0.12901963837E+03  0.19460616461E+03  0.24770826895E+03  0.79431019086E+02 0.  0.
          5    1    5    5  501    0 -0.49127201733E+02  0.75877058103E+02 -0.48684187827E+00  0.90515948382E+02  0.47000000000E+01 0. -1.
        -13    1    6    6    0    0 -0.40853877853E+02  0.96724138800E+02  0.95367899559E+02  0.14184369788E+03  0.00000000000E+00 0.  1.
         14    1    6    6    0    0  0.17778494414E+02  0.32295499573E+02  0.99238265055E+02  0.10586457107E+03  0.00000000000E+00 0. -1.
         -5    1    3    3    0  503 -0.15348571183E+02 -0.39917080387E+02 -0.17903539158E+02  0.46600200197E+02  0.47000000000E+01 0.  1.
         11    1    4    4    0    0  0.66927924231E+02 -0.48361752083E+02 -0.17197451413E+03  0.19077064663E+03  0.00000000000E+00 0. -1.
        -12    1    4    4    0    0  0.20623232124E+02 -0.11661786401E+03 -0.35168806163E+03  0.37109235590E+03  0.00000000000E+00 0.  1.
</event>
<event>
12    1  0.8133506E-002  0.2420016E+03  0.7818608E-02  0.1118499E+00
         21   -1    0    0  503  502  0.00000000000E+00  0.00000000000E+00  0.26721951894E+03  0.26721951894E+03  0.00000000000E+00 0. -1.
         21   -1    0    0  501  503 -0.00000000000E+00 -0.00000000000E+00 -0.21974726785E+03  0.21974726785E+03  0.00000000000E+00 0. -1.
          6    2    1    2  501    0 -0.12591797441E+03 -0.11523921193E+03  0.38057833787E+02  0.24478209509E+03  0.17127306595E+03 0.  0.
         24    2    3    3    0    0 -0.41985887493E+02 -0.12917801893E+03  0.88193555137E+01  0.15469400394E+03  0.73502914924E+02 0.  0.
         -6    2    1    2    0  502  0.12591797441E+03  0.11523921193E+03  0.94144173023E+01  0.24218469170E+03  0.17154993849E+03 0.  0.
        -24    2    5    5    0    0  0.15108554480E+03  0.11622018048E+03  0.30874909498E+02  0.20876296787E+03  0.79339426004E+02 0.  0.
          5    1    3    3  501    0 -0.83932086919E+02  0.13938806995E+02  0.29238478273E+02  0.90088091149E+02  0.47000000000E+01 0. -1.
        -13    1    4    4    0    0 -0.62074767371E+02 -0.99633778824E+02 -0.18641571033E+01  0.11740375509E+03  0.00000000000E+00 0.  1.
         14    1    4    4    0    0  0.20088879878E+02 -0.29544240101E+02  0.10683512617E+02  0.37290248856E+02  0.00000000000E+00 0. -1.
         -5    1    5    5    0  502 -0.25167570388E+02 -0.98096855007E+00 -0.21460492196E+02  0.33421723830E+02  0.47000000000E+01 0.  1.
         13    1    6    6    0    0  0.10238739929E+03  0.11971585116E+03  0.26532462729E+02  0.15974678755E+03  0.00000000000E+00 0. -1.
        -14    1    6    6    0    0  0.48698145508E+02 -0.34956706816E+01  0.43424467687E+01  0.49016180322E+02  0.00000000000E+00 0.  1.
</event>
<event>
12    1  0.8133506E-002  0.2989306E+03  0.7818608E-02  0.1085835E+00
         21   -1    0    0  501  502  0.00000000000E+00  0.00000000000E+00  0.74062652230E+03  0.74062652230E+03  0.00000000000E+00 0.  1.
         21   -1    0    0  502  503 -0.00000000000E+00 -0.00000000000E+00 -0.12448779793E+03  0.12448779793E+03  0.00000000000E+00 0. -1.
         -6    2    1    2    0  503  0.12476845698E+03 -0.20977417423E+03  0.23054473980E+03  0.37750549771E+03  0.17258954697E+03 0.  0.
        -24    2    3    3    0    0  0.10409528962E+03 -0.17385387103E+03  0.25034840690E+03  0.33133274318E+03  0.77756440700E+02 0.  0.
          6    2    1    2  501    0 -0.12476845698E+03  0.20977417423E+03  0.38559398457E+03  0.48760882252E+03  0.17177680527E+03 0.  0.
         24    2    5    5    0    0 -0.63430742350E+02  0.21183642167E+03  0.32554486578E+03  0.40161722544E+03  0.80117460736E+02 0.  0.
          5    1    5    5  501    0 -0.61337714625E+02 -0.20622474408E+01  0.60049118795E+02  0.85991597078E+02  0.47000000000E+01 0. -1.
        -13    1    6    6    0    0 -0.78507072741E+02  0.17759617957E+03  0.29572132351E+03  0.35377233449E+03  0.00000000000E+00 0.  1.
         14    1    6    6    0    0  0.15076330391E+02  0.34240242097E+02  0.29823542264E+02  0.47844890951E+02  0.00000000000E+00 0. -1.
         -5    1    3    3    0  503  0.20673167352E+02 -0.35920303198E+02 -0.19803667103E+02  0.46172754531E+02  0.47000000000E+01 0.  1.
         11    1    4    4    0    0  0.60987395294E+02 -0.52614654532E+02  0.55445338618E+02  0.97785222967E+02  0.00000000000E+00 0. -1.
        -12    1    4    4    0    0  0.43107894329E+02 -0.12123921650E+03  0.19490306828E+03  0.23354752021E+03  0.00000000000E+00 0.  1.
</event>
<event>
12    1  0.8133506E-002  0.1798386E+03  0.7818608E-02  0.1168291E+00
         21   -1    0    0  503  502  0.00000000000E+00  0.00000000000E+00  0.25471097884E+03  0.25471097884E+03  0.00000000000E+00 0.  1.
         21   -1    0    0  501  503 -0.00000000000E+00 -0.00000000000E+00 -0.28358367611E+03  0.28358367611E+03  0.00000000000E+00 0.  1.
          6    2    1    2  501    0 -0.50969283376E+02  0.18851782842E+02 -0.21503735615E+03  0.27945262331E+03  0.16999837227E+03 0.  0.
         24    2    3    3    0    0 -0.65759304225E+02  0.75948201932E+01 -0.54431994683E+02  0.11770703278E+03  0.80685414640E+02 0.  0.
         -6    2    1    2    0  502  0.50969283376E+02 -0.18851782842E+02  0.18616465887E+03  0.25884203164E+03  0.17143120943E+03 0.  0.
        -24    2    5    5    0    0  0.85914415462E+02  0.17694196131E+02  0.16628249712E+03  0.20430616096E+03  0.79979792424E+02 0.  0.
          5    1    3    3  501    0  0.14790020848E+02  0.11256962649E+02 -0.16060536146E+03  0.16174559053E+03  0.47000000000E+01 0. -1.
        -11    1    4    4    0    0 -0.14067330971E+02 -0.30882149031E+02 -0.38510881087E+02  0.51329181675E+02  0.00000000000E+00 0.  1.
         12    1    4    4    0    0 -0.51691973254E+02  0.38476969224E+02 -0.15921113597E+02  0.66377851108E+02  0.00000000000E+00 0. -1.
         -5    1    5    5    0  502 -0.34945132085E+02 -0.36545978973E+02  0.19882161756E+02  0.54535870687E+02  0.47000000000E+01 0.  1.
         13    1    6    6    0    0  0.92444795871E+02  0.63449620652E+01  0.16722130753E+03  0.19117861941E+03  0.00000000000E+00 0. -1.
        -14    1    6    6    0    0 -0.65303804098E+01  0.11349234066E+02 -0.93881040801E+00  0.13127541550E+02  0.00000000000E+00 0.  1.
</event>
<event>
12    1  0.8133506E-002  0.2600593E+03  0.7818608E-02  0.1107281E+00
         21   -1    0    0  503  502  0.00000000000E+00  0.00000000000E+00  0.11889742565E+04  0.11889742565E+04  0.00000000000E+00 0. -1.
         21   -1    0    0  501  503 -0.00000000000E+00 -0.00000000000E+00 -0.58540672716E+02  0.58540672716E+02  0.00000000000E+00 0. -1.
          6    2    1    2  501    0 -0.16764637899E+03  0.98205985397E+02  0.45374061104E+03  0.52298318022E+03  0.17286162307E+03 0.  0.
         24    2    3    3    0    0 -0.90938092795E+02  0.93413272837E+02  0.40404809776E+03  0.43133948354E+03  0.76178136605E+02 0.  0.
         -6    2    1    2    0  502  0.16764637899E+03 -0.98205985397E+02  0.67669297272E+03  0.72453174897E+03  0.17112320704E+03 0.  0.
        -24    2    5    5    0    0  0.10067462500E+03 -0.51597420411E+02  0.21525726029E+03  0.25591401471E+03  0.79740961269E+02 0.  0.
          5    1    3    3  501    0 -0.76708286193E+02  0.47927125604E+01  0.49692513280E+02  0.91643696676E+02  0.47000000000E+01 0. -1.
        -13    1    4    4    0    0  0.12232216904E+01  0.48208472369E+02  0.12130022883E+03  0.13053466434E+03  0.00000000000E+00 0.  1.
         14    1    4    4    0    0 -0.92161314486E+02  0.45204800467E+02  0.28274786893E+03  0.30080481920E+03  0.00000000000E+00 0. -1.
         -5    1    5    5    0  502  0.66971753986E+02 -0.46608564986E+02  0.46143571243E+03  0.46861773427E+03  0.47000000000E+01 0.  1.
         11    1    6    6    0    0  0.68686885127E+02 -0.55702209846E+02  0.20297661025E+03  0.22140489759E+03  0.00000000000E+00 0. -1.
        -12    1    6    6    0    0  0.31987739875E+02  0.41047894346E+01  0.12280650041E+02  0.34509117114E+02  0.00000000000E+00 0.  1.
</event>
<event>
12    1  0.8133506E-002  0.1790904E+03  0.7818608E-02  0.1168838E+00
         21   -1    0    0  503  502  0.00000000000E+00  0.00000000000E+00  0.14662875552E+03  0.14662875552E+03  0.00000000000E+00 0.  1.
         21   -1    0    0  501  503 -0.00000000000E+00 -0.00000000000E+00 -0.24549619321E+03  0.24549619321E+03  0.00000000000E+00 0.  1.
          6    2    1    2  501    0  0.25612463985E+02  0.42667934860E+02 -0.11499633774E+03  0.21230973875E+03  0.17139053794E+03 0.  0.
         24    2    3    3    0    0 -0.12918400245E+02  0.40580710853E+02 -0.13958616097E+03  0.16631263657E+03  0.79761629819E+02 0.  0.
         -6    2    1    2    0  502 -0.25612463985E+02 -0.42667934860E+02  0.16128900051E+02  0.17981520998E+03  0.17203725570E+03 0.  0.
        -24    2    5    5    0    0  0.42024843901E+02 -0.23214429284E+02 -0.26634608813E+02  0.97328532346E+02  0.80364442325E+02 0.  0.
          5    1    3    3  501    0  0.38530864230E+02  0.20872240075E+01  0.24589823225E+02  0.45997102176E+02  0.47000000000E+01 0. -1.
        -13    1    4    4    0    0  0.13362926983E+02 -0.20040261064E+02 -0.43051538677E+02  0.49331682148E+02  0.00000000000E+00 0.  1.
         14    1    4    4    0    0 -0.26281327229E+02  0.60620971917E+02 -0.96534622289E+02  0.11698095442E+03  0.00000000000E+00 0. -1.
         -5    1    5    5    0  502 -0.67637307885E+02 -0.19453505576E+02  0.42763508865E+02  0.82486677637E+02  0.47000000000E+01 0.  1.
         13    1    6    6    0    0 -0.23534937638E+02 -0.14030274627E+02 -0.70427215111E+01  0.28290313219E+02  0.00000000000E+00 0. -1.
        -14    1    6    6    0    0  0.65559781539E+02 -0.91841546569E+01 -0.19591887302E+02  0.69038219127E+02  0.00000000000E+00 0.  1.
</event>
<event>
12    1  0.8133506E-002  0.2245222E+03  0.7818608E-02  0.1131575E+00
         21   -1    0    0  503  502  0.00000000000E+00  0.00000000000E+00  0.47832188581E+02  0.47832188581E+02  0.00000000000E+00 0. -1.
         21   -1    0    0  501  503 -0.00000000000E+00 -0.00000000000E+00 -0.13022731747E+04  0.13022731747E+04  0.00000000000E+00 0. -1.
          6    2    1    2  501    0 -0.30059261343E+02  0.14174073247E+03 -0.94315091433E+03  0.96950702057E+03  0.17151157775E+03 0.  0.
         24    2    3    3    0    0  0.43931393896E+02  0.10829496182E+03 -0.64939206027E+03  0.66469627441E+03  0.80332578363E+02 0.  0.
         -6    2    1    2    0  502  0.30059261343E+02 -0.14174073247E+03 -0.31129007176E+03  0.38059834268E+03  0.16419377345E+03 0.  0.
        -24    2    5    5    0    0  0.39374229572E+02 -0.16624312009E+02 -0.10566546071E+03  0.13967416794E+03  0.80727850831E+02 0.  0.
          5    1    3    3  501    0 -0.73990655240E+02  0.33445770651E+02 -0.29375885406E+03  0.30481074616E+03  0.47000000000E+01 0. -1.
        -13    1    4    4    0    0  0.56587843685E+02  0.64788676365E+02 -0.29090045699E+03  0.30335265372E+03  0.00000000000E+00 0.  1.
         14    1    4    4    0    0 -0.12656449789E+02  0.43506285457E+02 -0.35849160327E+03  0.36134362069E+03  0.00000000000E+00 0. -1.
         -5    1    5    5    0  502 -0.93149682287E+01 -0.12511642046E+03 -0.20562461105E+03  0.24092417473E+03  0.47000000000E+01 0.  1.
         13    1    6    6    0    0  0.64310255438E+01 -0.44565853894E+02 -0.35764401660E+02  0.57502746447E+02  0.00000000000E+00 0. -1.
        -14    1    6    6    0    0  0.32943204028E+02  0.27941541885E+02 -0.69901059050E+02  0.82171421497E+02  0.00000000000E+00 0.  1.
</event>
<event>
12    1  0.8133506E-002  0.1748586E+03  0.7818608E-02  0.1172922E+00
         21   -1    0    0  503  502  0.00000000000E+00  0.00000000000E+00  0.74351088621E+03  0.74351088621E+03  0.00000000000E+00 0. -1.
         21   -1    0    0  501  503 -0.00000000000E+00 -0.00000000000E+00 -0.73713011370E+02  0.73713011370E+02  0.00000000000E+00 0. -1.
          6    2    1    2  501    0 -0.24042606060E+02 -0.15630312941E+02  0.63119282664E+02  0.18590203044E+03  0.17249106496E+03 0.  0.
         24    2    3    3    0    0 -0.82212097025E+02 -0.24592181882E+02  0.51455803505E+02  0.12571788369E+03  0.76116241756E+02 0.  0.
         -6    2    1    2    0  502  0.24042606060E+02  0.15630312941E+02  0.60667859218E+03  0.63132186714E+03  0.17229634973E+03 0.  0.
        -24    2    5    5    0    0  0.81105982259E+02  0.17969428101E+02  0.44989132113E+03  0.46439062762E+03  0.79720596410E+02 0.  0.
          5    1    3    3  501    0  0.58169490965E+02  0.89618689405E+01  0.11663479160E+02  0.60184146751E+02  0.47000000000E+01 0. -1.
        -13    1    4    4    0    0 -0.78855410179E+02  0.87602103555E+01  0.25549037152E+02  0.83352686215E+02  0.00000000000E+00 0.  1.
         14    1    4    4    0    0 -0.33566868466E+01 -0.33352392237E+02  0.25906766353E+02  0.42365197478E+02  0.00000000000E+00 0. -1.
         -5    1    5    5    0  502 -0.57063376199E+02 -0.23391151598E+01  0.15678727105E+03  0.16693123952E+03  0.47000000000E+01 0.  1.
         11    1    6    6    0    0  0.72361986276E+02  0.15738388428E+02  0.44928398320E+03  0.45534607881E+03  0.00000000000E+00 0. -1.
        -12    1    6    6    0    0  0.87439959836E+01  0.22310396728E+01  0.60733792484E+00  0.90445488079E+01  0.00000000000E+00 0.  1.
</event>
<event>
12    1  0.8133506E-002  0.2007538E+03  0.7818608E-02  0.1149298E+00
         21   -1    0    0  503  502  0.00000000000E+00  0.00000000000E+00  0.42598659753E+03  0.42598659753E+03  0.00000000000E+00 0. -1.
         21   -1    0    0  501  503 -0.00000000000E+00 -0.00000000000E+00 -0.10465786888E+03  0.10465786888E+03  0.00000000000E+00 0.  1.
          6    2    1    2  501    0  0.67460170352E+01 -0.10247783105E+03  0.77028665345E+02  0.21502444439E+03  0.17249603415E+03 0.  0.
         24    2    3    3    0    0  0.29345836433E+02 -0.49451002914E+02  0.10948287734E+03  0.14870731074E+03  0.82588038076E+02 0.  0.
         -6    2    1    2    0  502 -0.67460170352E+01  0.10247783105E+03  0.24430006331E+03  0.31562002202E+03  0.17142421871E+03 0.  0.
        -24    2    5    5    0    0  0.44400667404E+02  0.11118500587E+03  0.14919665061E+03  0.20718318635E+03  0.79572026216E+02 0.  0.
          5    1    3    3  501    0 -0.22599819398E+02 -0.53026828139E+02 -0.32454211995E+02  0.66317133650E+02  0.47000000000E+01 0. -1.
        -11    1    4    4    0    0  0.33317980116E+02 -0.10598460553E+01  0.52836550604E+01  0.33750971593E+02  0.00000000000E+00 0.  1.
         12    1    4    4    0    0 -0.39721436830E+01 -0.48391156859E+02  0.10419922228E+03  0.11495633915E+03  0.00000000000E+00 0. -1.
         -5    1    5    5    0  502 -0.51146684439E+02 -0.87071748186E+01  0.95103412698E+02  0.10843683567E+03  0.47000000000E+01 0.  1.
         13    1    6    6    0    0 -0.69585368436E+01  0.85491968737E+02  0.98143752375E+02  0.13034375353E+03  0.00000000000E+00 0. -1.
        -14    1    6    6    0    0  0.51359204247E+02  0.25693037134E+02  0.51052898239E+02  0.76839432823E+02  0.00000000000E+00 0.  1.
</event>
<event>
12    1  0.8133506E-002  0.2217381E+03  0.7818608E-02  0.1132951E+00
         21   -1    0    0  501  502  0.00000000000E+00  0.00000000000E+00  0.46532535523E+03  0.46532535523E+03  0.00000000000E+00 0.  1.
         21   -1    0    0  502  503 -0.00000000000E+00 -0.00000000000E+00 -0.25808712700E+03  0.25808712700E+03  0.00000000000E+00 0. -1.
         -6    2    1    2    0  503 -0.53224888760E+02 -0.12472961700E+03 -0.17536762459E+03  0.28119645139E+03  0.17299501259E+03 0.  0.
        -24    2    3    3    0    0 -0.32236983652E+02 -0.74857866705E+02 -0.18753999900E+02  0.11543276093E+03  0.79561840477E+02 0.  0.
          6    2    1    2  501    0  0.53224888760E+02  0.12472961700E+03  0.38260585282E+03  0.44221603084E+03  0.17543492576E+03 0.  0.
         24    2    5    5    0    0  0.10266226605E+03  0.72241841825E+02  0.25921871155E+03  0.29922827805E+03  0.81146764487E+02 0.  0.
          5    1    5    5  501    0 -0.49437377292E+02  0.52487775177E+02  0.12338714126E+03  0.14298775278E+03  0.47000000000E+01 0. -1.
        -13    1    6    6    0    0  0.42884103224E+02  0.55597104597E+02  0.66279066091E+02  0.96555677983E+02  0.00000000000E+00 0.  1.
         14    1    6    6    0    0  0.59778162828E+02  0.16644737229E+02  0.19293964546E+03  0.20267260007E+03  0.00000000000E+00 0. -1.
         -5    1    3    3    0  503 -0.20987905108E+02 -0.49871750298E+02 -0.15661362469E+03  0.16576369047E+03  0.47000000000E+01 0.  1.
         13    1    4    4    0    0 -0.56781639398E+02 -0.58511642391E+02 -0.20901973174E+01  0.81560626486E+02  0.00000000000E+00 0. -1.
        -14    1    4    4    0    0  0.24544655745E+02 -0.16346224314E+02 -0.16663802583E+02  0.33872134440E+02  0.00000000000E+00 0.  1.
</event>
<event>
12    1  0.8133506E-002  0.1822383E+03  0.7818608E-02  0.1168215E+00
         21   -1    0    0  503  502  0.00000000000E+00  0.00000000000E+00  0.18058393761E+04  0.18058393761E+04  0.00000000000E+00 0. -1.
         21   -1    0    0  501  503 -0.00000000000E+00 -0.00000000000E+00 -0.39849333989E+02  0.39849333989E+02  0.00000000000E+00 0. -1.
          6    2    1    2  501    0 -0.62413053122E+02  0.47341927786E+01  0.17843476337E+03  0.24770792916E+03  0.16000766110E+03 0.  0.
         24    2    3    3    0    0 -0.93326905862E+02 -0.27151372856E+02  0.12024950835E+03  0.17435965387E+03  0.80586824188E+02 0.  0.
         -6    2    1    2    0  502  0.62413053122E+02 -0.47341927786E+01  0.15875552787E+04  0.15979807809E+04  0.17115201245E+03 0.  0.
        -24    2    5    5    0    0  0.55769675816E+02  0.58550631280E+02  0.85882122775E+03  0.86645873034E+03  0.81476358437E+02 0.  0.
          5    1    3    3  501    0  0.30913852740E+02  0.31885565635E+02  0.58185255012E+02  0.73348275289E+02  0.47000000000E+01 0. -1.
        -13    1    4    4    0    0 -0.70660276880E+02 -0.43236664242E+02  0.12090053569E+03  0.14655791822E+03  0.00000000000E+00 0.  1.
         14    1    4    4    0    0 -0.22666628981E+02  0.16085291386E+02 -0.65102733738E+00  0.27801735647E+02  0.00000000000E+00 0. -1.
         -5    1    5    5    0  502  0.66433773054E+01 -0.63284824059E+02  0.72873405096E+03  0.73152205055E+03  0.47000000000E+01 0.  1.
         11    1    6    6    0    0  0.26595947059E+02 -0.13733812964E+02  0.39504640940E+03  0.39617878236E+03  0.00000000000E+00 0. -1.
        -12    1    6    6    0    0  0.29173728757E+02  0.72284444244E+02  0.46377481836E+03  0.47027994798E+03  0.00000000000E+00 0.  1.
</event>
<event>
12    1  0.8133506E-002  0.2015511E+03  0.7818608E-02  0.1149105E+00
         21   -1    0    0  503  502  0.00000000000E+00  0.00000000000E+00  0.19289829173E+03  0.19289829173E+03  0.00000000000E+00 0. -1.
         21   -1    0    0  501  503 -0.00000000000E+00 -0.00000000000E+00 -0.23996542898E+03  0.23996542898E+03  0.00000000000E+00 0. -1.
          6    2    1    2  501    0 -0.56950894391E+02  0.82969822322E+02  0.56167464760E+02  0.20923102963E+03  0.17462944732E+03 0.  0.
         24    2    3    3    0    0 -0.28634074676E+02  0.12156746951E+03  0.21804552311E+02  0.15011656101E+03  0.80380243294E+02 0.  0.
         -6    2    1    2    0  502  0.56950894391E+02 -0.82969822322E+02 -0.10323460201E+03  0.22363269108E+03  0.17095847940E+03 0.  0.
        -24    2    5    5    0    0  0.94652280974E+02 -0.96849295435E+02 -0.73283672733E+02  0.17330196002E+03  0.79525042215E+02 0.  0.
          5    1    3    3  501    0 -0.28316819715E+02 -0.38597647192E+02  0.34362912449E+02  0.59114468614E+02  0.47000000000E+01 0. -1.
        -13    1    4    4    0    0  0.27018220237E+02  0.55759861013E+02  0.38423745777E+01  0.62079869260E+02  0.00000000000E+00 0.  1.
         14    1    4    4    0    0 -0.55652294913E+02  0.65807608501E+02  0.17962177733E+02  0.88036691752E+02  0.00000000000E+00 0. -1.
         -5    1    5    5    0  502 -0.37701386582E+02  0.13879473113E+02 -0.29950929275E+02  0.50330731055E+02  0.47000000000E+01 0.  1.
         11    1    6    6    0    0  0.89986544132E+02 -0.74683134583E+02 -0.24448638528E+02  0.11946917863E+03  0.00000000000E+00 0. -1.
        -12    1    6    6    0    0  0.46657368413E+01 -0.22166160852E+02 -0.48835034205E+02  0.53832781397E+02  0.00000000000E+00 0.  1.
</event>
<event>
12    1  0.8133506E-002  0.2440550E+03  0.7818608E-02  0.1117504E+00
         21   -1    0    0  501  502  0.00000000000E+00  0.00000000000E+00  0.19372086712E+03  0.19372086712E+03  0.00000000000E+00 0. -1.
         21   -1    0    0  502  503 -0.00000000000E+00 -0.00000000000E+00 -0.43896936658E+03  0.43896936658E+03  0.00000000000E+00 0. -1.
         -6    2    1    2    0  503  0.61897480441E+01  0.17010120187E+03  0.52854859794E+02  0.24742611145E+03  0.17161967418E+03 0.  0.
        -24    2    3    3    0    0 -0.25951086474E+02  0.13544970300E+03  0.92141478098E+02  0.18578774681E+03  0.83707550121E+02 0.  0.
          6    2    1    2  501    0 -0.61897480441E+01 -0.17010120187E+03 -0.29810335926E+03  0.38526412225E+03  0.17490025510E+03 0.  0.
         24    2    5    5    0    0  0.58134148203E+02 -0.56590489596E+02 -0.13882015251E+03  0.17931394531E+03  0.79375018364E+02 0.  0.
          5    1    5    5  501    0 -0.64323896247E+02 -0.11351071227E+03 -0.15928320675E+03  0.20595017694E+03  0.47000000000E+01 0. -1.
        -11    1    6    6    0    0  0.49432358926E+01  0.19797248105E+02 -0.23915925962E+02  0.31437845477E+02  0.00000000000E+00 0.  1.
         12    1    6    6    0    0  0.53190912310E+02 -0.76387737702E+02 -0.11490422655E+03  0.14787609983E+03  0.00000000000E+00 0. -1.
         -5    1    3    3    0  503  0.32140834518E+02  0.34651498869E+02 -0.39286618304E+02  0.61638364637E+02  0.47000000000E+01 0.  1.
         13    1    4    4    0    0  0.25694660647E+02  0.43696514101E+02  0.86757208391E+01  0.51428290487E+02  0.00000000000E+00 0. -1.
        -14    1    4    4    0    0 -0.51645747122E+02  0.91753188898E+02  0.83465757259E+02  0.13435945632E+03  0.00000000000E+00 0.  1.
</event>
<event>
12    1  0.8133506E-002  0.2221551E+03  0.7818608E-02  0.1133773E+00
         21   -1    0    0  501  502  0.00000000000E+00  0.00000000000E+00  0.57449004870E+03  0.57449004870E+03  0.00000000000E+00 0.  1.
         21   -1    0    0  502  503 -0.00000000000E+00 -0.00000000000E+00 -0.54890449686E+03  0.54890449686E+03  0.00000000000E+00 0.  1.
         -6    2    1    2    0  503  0.11944564857E+03  0.65038724302E+02 -0.50472140823E+03  0.55144953020E+03  0.17565758114E+03 0.  0.
        -24    2    3    3    0    0  0.22151232507E+02 -0.16553751748E+02 -0.28940793718E+03  0.30143849772E+03  0.79646155020E+02 0.  0.
          6    2    1    2  501    0 -0.11944564857E+03 -0.65038724302E+02  0.53030696007E+03  0.57194501536E+03  0.16552440932E+03 0.  0.
         24    2    5    5    0    0 -0.12372004138E+03 -0.56680666444E+00  0.32783894721E+03  0.35936494850E+03  0.79735945420E+02 0.  0.
          5    1    5    5  501    0  0.42743928129E+01 -0.64471917638E+02  0.20246801286E+03  0.21258006687E+03  0.47000000000E+01 0. -1.
        -13    1    6    6    0    0 -0.89834852646E+02 -0.34756110523E+02  0.18404484473E+03  0.20772768915E+03  0.00000000000E+00 0.  1.
         14    1    6    6    0    0 -0.33885188735E+02  0.34189303859E+02  0.14379410248E+03  0.15163725935E+03  0.00000000000E+00 0. -1.
         -5    1    3    3    0  503  0.97294416062E+02  0.81592476050E+02 -0.21531347105E+03  0.25001103248E+03  0.47000000000E+01 0.  1.
         11    1    4    4    0    0 -0.10477252874E+02  0.11203466043E+01 -0.23694112097E+03  0.23717529975E+03  0.00000000000E+00 0. -1.
        -12    1    4    4    0    0  0.32628485381E+02 -0.17674098352E+02 -0.52466816205E+02  0.64263197971E+02  0.00000000000E+00 0.  1.
</event>
<event>
12    1  0.8133506E-002  0.1774407E+03  0.7818608E-02  0.1170883E+00
         21   -1    0    0  503  502  0.00000000000E+00  0.00000000000E+00  0.17654361229E+02  0.17654361229E+02  0.00000000000E+00 0. -1.
         21   -1    0    0  501  503 -0.00000000000E+00 -0.00000000000E+00 -0.17946231122E+04  0.17946231122E+04  0.00000000000E+00 0.  1.
          6    2    1    2  501    0 -0.32221808688E+02 -0.30307044324E+02 -0.10085392854E+04  0.10236273261E+04  0.16942446879E+03 0.  0.
         24    2    3    3    0    0  0.30672936842E+02  0.24721936856E+01 -0.77198870489E+03  0.77662834917E+03  0.78981589330E+02 0.  0.
         -6    2    1    2    0  502  0.32221808688E+02  0.30307044324E+02 -0.76842946564E+03  0.78865014741E+03  0.17183843999E+03 0.  0.
        -24    2    5    5    0    0  0.20847674116E+02  0.31058592542E+02 -0.18704117479E+03  0.20713112752E+03  0.80744295359E+02 0.  0.
          5    1    3    3  501    0 -0.62894745530E+02 -0.32779238010E+02 -0.23655058048E+03  0.24699897689E+03  0.47000000000E+01 0. -1.
        -11    1    4    4    0    0  0.14024739019E+02  0.16134940025E+02 -0.72049727868E+03  0.72081437151E+03  0.00000000000E+00 0.  1.
         12    1    4    4    0    0  0.16648197823E+02 -0.13662746340E+02 -0.51491426219E+02  0.55813977661E+02  0.00000000000E+00 0. -1.
         -5    1    5    5    0  502  0.11374134573E+02 -0.75154821805E+00 -0.58138829085E+03  0.58151901990E+03  0.47000000000E+01 0.  1.
         11    1    6    6    0    0 -0.18817250834E+02  0.43517842522E+02 -0.10002682447E+03  0.11069443148E+03  0.00000000000E+00 0. -1.
        -12    1    6    6    0    0  0.39664924950E+02 -0.12459249980E+02 -0.87014350323E+02  0.96436696042E+02  0.00000000000E+00 0.  1.
</event>
<event>
12    1  0.8133506E-002  0.2306739E+03  0.7818608E-02  0.1126457E+00
         21   -1    0    0  503  502  0.00000000000E+00  0.00000000000E+00  0.38163199031E+03  0.38163199031E+03  0.00000000000E+00 0. -1.
         21   -1    0    0  501  503 -0.00000000000E+00 -0.00000000000E+00 -0.16988619181E+03  0.16988619181E+03  0.00000000000E+00 0. -1.
          6    2    1    2  501    0  0.14891989639E+03 -0.29461275536E+02 -0.13094200292E+02  0.22939482315E+03  0.17148009945E+03 0.  0.
         24    2    3    3    0    0  0.45294582201E+02 -0.69499978431E+02 -0.31062042211E+02  0.11676162727E+03  0.76069579712E+02 0.  0.
         -6    2    1    2    0  502 -0.14891989639E+03  0.29461275536E+02  0.22483999879E+03  0.32212335897E+03  0.17368169459E+03 0.  0.
        -24    2    5    5    0    0 -0.17816099869E+03  0.12942998582E+02  0.17623146854E+03  0.26285469313E+03  0.78270023168E+02 0.  0.
          5    1    3    3  501    0  0.10362531419E+03  0.40038702894E+02  0.17967841919E+02  0.11263319588E+03  0.47000000000E+01 0. -1.
        -13    1    4    4    0    0 -0.60578600059E+01  0.94790540159E+01 -0.18596802490E+02  0.21734562239E+02  0.00000000000E+00 0.  1.
         14    1    4    4    0    0  0.51352442207E+02 -0.78979032447E+02 -0.12465239721E+02  0.95027065029E+02  0.00000000000E+00 0. -1.
         -5    1    5    5    0  502  0.29241102299E+02  0.16518276954E+02  0.48608530253E+02  0.59268665841E+02  0.47000000000E+01 0.  1.
         11    1    6    6    0    0 -0.10813971800E+03  0.10424154098E+02  0.52498344235E+02  0.12066042328E+03  0.00000000000E+00 0. -1.
        -12    1    6    6    0    0 -0.70021280691E+02  0.25188444835E+01  0.12373312431E+03  0.14219426985E+03  0.00000000000E+00 0.  1.
</event>
<event>
12    1  0.8133506E-002  0.1816313E+03  0.7818608E-02  0.1166772E+00
         21   -1    0    0  503  502  0.00000000000E+00  0.00000000000E+00  0.14646706794E+04  0.14646706794E+04  0.00000000000E+00 0.  1.
         21   -1    0    0  501  503 -0.00000000000E+00 -0.00000000000E+00 -0.43973693664E+02  0.43973693664E+02  0.00000000000E+00 0.  1.
          6    2    1    2  501    0  0.12218988424E+02  0.57968725139E+02  0.17791254930E+03  0.25265747333E+03  0.16933176566E+03 0.  0.
         24    2    3    3    0    0  0.70485329637E+02  0.52310212999E+02  0.10040131667E+03  0.15541002369E+03  0.79795432181E+02 0.  0.
         -6    2    1    2    0  502 -0.12218988424E+02 -0.57968725139E+02  0.12427844364E+04  0.12559868997E+04  0.17169816561E+03 0.  0.
        -24    2    5    5    0    0  0.56715184139E+02 -0.40587794732E+02  0.83287097201E+03  0.83992782315E+03  0.83310928977E+02 0.  0.
          5    1    3    3  501    0 -0.58266341213E+02  0.56585121400E+01  0.77511232627E+02  0.97247449639E+02  0.47000000000E+01 0. -1.
        -13    1    4    4    0    0 -0.56727022974E+01  0.19742027755E+02 -0.52106577017E+01  0.21191464436E+02  0.00000000000E+00 0.  1.
         14    1    4    4    0    0  0.76158031935E+02  0.32568185243E+02  0.10561197437E+03  0.13421855926E+03  0.00000000000E+00 0. -1.
         -5    1    5    5    0  502 -0.68934172563E+02 -0.17380930406E+02  0.40991346444E+03  0.41605907660E+03  0.47000000000E+01 0.  1.
         11    1    6    6    0    0  0.95364193860E+01  0.22756418841E+02  0.10884941397E+03  0.11161089917E+03  0.00000000000E+00 0. -1.
        -12    1    6    6    0    0  0.47178764753E+02 -0.63344213574E+02  0.72402155804E+03  0.72831692397E+03  0.00000000000E+00 0.  1.
</event>
<event>
12    1  0.8133506E-002  0.2196197E+03  0.7818608E-02  0.1134298E+00
         21   -1    0    0  501  502  0.00000000000E+00  0.00000000000E+00  0.11878026385E+03  0.11878026385E+03  0.00000000000E+00 0. -1.
         21   -1    0    0  502  503 -0.00000000000E+00 -0.00000000000E+00 -0.66115101438E+03  0.66115101438E+03  0.00000000000E+00 0.  1.
         -6    2    1    2    0  503  0.37080010357E+02  0.12842756083E+03 -0.51375642812E+03  0.55845532667E+03  0.17337277440E+03 0.  0.
        -24    2    3    3    0    0 -0.44969835973E+02  0.86881341075E+02 -0.27489373060E+03  0.30245582682E+03  0.79638624289E+02 0.  0.
          6    2    1    2  501    0 -0.37080010357E+02 -0.12842756083E+03 -0.28614322412E+02  0.22147595157E+03  0.17425341353E+03 0.  0.
         24    2    5    5    0    0 -0.11061422642E+02  0.16135684765E+01 -0.24537759770E+02  0.88711609286E+02  0.84514432457E+02 0.  0.
          5    1    5    5  501    0 -0.26018587715E+02 -0.13004112931E+03 -0.40765626420E+01  0.13276434228E+03  0.47000000000E+01 0. -1.
        -11    1    6    6    0    0 -0.44500969602E+02 -0.11444962091E+02 -0.13378619234E+01  0.45968612414E+02  0.00000000000E+00 0.  1.
         12    1    6    6    0    0  0.33439546960E+02  0.13058530567E+02 -0.23199897847E+02  0.42742996872E+02  0.00000000000E+00 0. -1.
         -5    1    3    3    0  503  0.82049846330E+02  0.41546219756E+02 -0.23886269752E+03  0.25599949985E+03  0.47000000000E+01 0.  1.
         13    1    4    4    0    0  0.20982028975E+02  0.28308917708E+02 -0.52707857124E+02  0.63401565945E+02  0.00000000000E+00 0. -1.
        -14    1    4    4    0    0 -0.65951864948E+02  0.58572423367E+02 -0.22218587347E+03  0.23905426087E+03  0.00000000000E+00 0.  1.
</event>
<event>
12    1  0.8133506E-002  0.1790153E+03  0.7818608E-02  0.1169633E+00
         21   -1    0    0  503  502  0.00000000000E+00  0.00000000000E+00  0.12901446582E+03  0.12901446582E+03  0.00000000000E+00 0.  1.
         21   -1    0    0  501  503 -0.00000000000E+00 -0.00000000000E+00 -0.38061707218E+03  0.38061707218E+03  0.00000000000E+00 0.  1.
          6    2    1    2  501    0  0.38161896187E+02 -0.32058954806E+02 -0.27954592622E+03  0.33195240791E+03  0.17193710868E+03 0.  0.
         24    2    3    3    0    0  0.54304330860E+02 -0.40316146486E+02 -0.29146254334E+03  0.30975206613E+03  0.80134738292E+02 0.  0.
         -6    2    1    2    0  502 -0.38161896187E+02  0.32058954806E+02  0.27943319860E+02  0.17767913009E+03  0.16824071220E+03 0.  0.
        -24    2    5    5    0    0 -0.45234267822E+01 -0.44569774482E+02  0.58614780912E+01  0.91000375416E+02  0.78992311102E+02 0.  0.
          5    1    3    3  501    0 -0.16142434673E+02  0.82571916795E+01  0.11916617117E+02  0.22200341780E+02  0.47000000000E+01 0. -1.
        -13    1    4    4    0    0  0.36582626199E+02 -0.19049679799E+02 -0.42385550389E+02  0.59141472098E+02  0.00000000000E+00 0.  1.
         14    1    4    4    0    0  0.17721704661E+02 -0.21266466687E+02 -0.24907699295E+03  0.25061059403E+03  0.00000000000E+00 0. -1.
         -5    1    5    5    0  502 -0.33638469405E+02  0.76628729288E+02  0.22081841769E+02  0.86678754676E+02  0.47000000000E+01 0.  1.
         13    1    6    6    0    0  0.28896421015E+02 -0.29115874370E+00  0.18224245856E+02  0.34164470696E+02  0.00000000000E+00 0. -1.
        -14    1    6    6    0    0 -0.33419847798E+02 -0.44278615738E+02 -0.12362767765E+02  0.56835904720E+02  0.00000000000E+00 0.  1.
</event>
<event>
12    1  0.8133506E-002  0.2001385E+03  0.7818608E-02  0.1149816E+00
         21   -1    0    0  501  502  0.00000000000E+00  0.00000000000E+00  0.61852917771E+02  0.61852917771E+02  0.00000000000E+00 0.  1.
         21   -1    0    0  502  503 -0.00000000000E+00 -0.00000000000E+00 -0.91772005355E+03  0.91772005355E+03  0.00000000000E+00 0.  1.
         -6    2    1    2    0  503  0.93756481036E+02  0.40955048656E+02 -0.69580826383E+03  0.72401971925E+03  0.17201110460E+03 0.  0.
        -24    2    3    3    0    0  0.13267565127E+03  0.38075267564E+02 -0.57580631360E+03  0.59774401688E+03  0.81807362081E+02 0.  0.
          6    2    1    2  501    0 -0.93756481036E+02 -0.40955048656E+02 -0.16005887195E+03  0.25555325207E+03  0.17094159355E+03 0.  0.
         24    2    5    5    0    0 -0.88949397611E+02 -0.89921244876E+02 -0.11058242342E+03  0.18561895875E+03  0.78918311317E+02 0.  0.
          5    1    5    5  501    0 -0.48070834241E+01  0.48966196221E+02 -0.49476448526E+02  0.69934293320E+02  0.47000000000E+01 0. -1.
        -11    1    6    6    0    0 -0.92603794622E+02 -0.43273883423E+02 -0.78612799246E+02  0.12894985060E+03  0.00000000000E+00 0.  1.
         12    1    6    6    0    0  0.36543970109E+01 -0.46647361454E+02 -0.31969624177E+02  0.56669108147E+02  0.00000000000E+00 0. -1.
         -5    1    3    3    0  503 -0.38919170238E+02  0.28797810917E+01 -0.12000195023E+03  0.12627570237E+03  0.47000000000E+01 0.  1.
         11    1    4    4    0    0  0.41599107517E+02  0.40889178444E+02 -0.12663149963E+03  0.13942003930E+03  0.00000000000E+00 0. -1.
        -12    1    4    4    0    0  0.91076543757E+02 -0.28139108799E+01 -0.44917481397E+03  0.45832397758E+03  0.00000000000E+00 0.  1.
</event>
<event>
12    1  0.8133506E-002  0.2150426E+03  0.7818608E-02  0.1139081E+00
         21   -1    0    0  503  502  0.00000000000E+00  0.00000000000E+00  0.28878921109E+03  0.28878921109E+03  0.00000000000E+00 0.  1.
         21   -1    0    0  501  503 -0.00000000000E+00 -0.00000000000E+00 -0.15843932353E+03  0.15843932353E+03  0.00000000000E+00 0. -1.
          6    2    1    2  501    0 -0.12125539649E+03 -0.42500360378E+02  0.31787879482E+02  0.21737936493E+03  0.17243598002E+03 0.  0.
         24    2    3    3    0    0 -0.32405699992E+02 -0.65041616166E+02 -0.14002824300E+02  0.11480619430E+03  0.87771532600E+02 0.  0.
         -6    2    1    2    0  502  0.12125539649E+03  0.42500360378E+02  0.98562008077E+02  0.22984916969E+03  0.16311658273E+03 0.  0.
        -24    2    5    5    0    0  0.49941388976E+02 -0.29225252858E+02  0.14734087574E+02  0.98397804096E+02  0.78209825321E+02 0.  0.
          5    1    3    3  501    0 -0.88849696498E+02  0.22541255789E+02  0.45790703783E+02  0.10257317063E+03  0.47000000000E+01 0. -1.
        -13    1    4    4    0    0 -0.27217715202E+02 -0.60313654382E+02  0.28268631621E+02  0.71955934151E+02  0.00000000000E+00 0.  1.
         14    1    4    4    0    0 -0.51879847902E+01 -0.47279617842E+01 -0.42271455922E+02  0.42850260146E+02  0.00000000000E+00 0. -1.
         -5    1    5    5    0  502  0.71314007514E+02  0.71725613236E+02  0.83827920503E+02  0.13145136560E+03  0.47000000000E+01 0.  1.
         13    1    6    6    0    0  0.64530775451E+01 -0.19603592744E+02 -0.29251632594E+02  0.35799456249E+02  0.00000000000E+00 0. -1.
        -14    1    6    6    0    0  0.43488311431E+02 -0.96216601143E+01  0.43985720168E+02  0.62598347847E+02  0.00000000000E+00 0.  1.
</event>
<event>
12    1  0.8133506E-002  0.2186694E+03  0.7818608E-02  0.1135020E+00
         21   -1    0    0  501  502  0.00000000000E+00  0.00000000000E+00  0.52784994351E+02  0.52784994351E+02  0.00000000000E+00 0.  1.
         21   -1    0    0  502  503 -0.00000000000E+00 -0.00000000000E+00 -0.97161070885E+03  0.97161070885E+03  0.00000000000E+00 0. -1.
         -6    2    1    2    0  503 -0.13532114838E+03 -0.12611198571E+02 -0.59502119601E+03  0.63367116396E+03  0.17034689552E+03 0.  0.
        -24    2    3    3    0    0 -0.11375819025E+03  0.37997585156E+02 -0.52484251580E+03  0.54437756223E+03  0.80638213954E+02 0.  0.
          6    2    1    2  501    0  0.13532114838E+03  0.12611198571E+02 -0.32380451849E+03  0.39072453924E+03  0.17130511913E+03 0.  0.
         24    2    5    5    0    0  0.14277121598E+03 -0.31031490440E+02 -0.29408304834E+03  0.33719283275E+03  0.76600219498E+02 0.  0.
          5    1    5    5  501    0 -0.74500676012E+01  0.43642689011E+02 -0.29721470151E+02  0.53531706486E+02  0.47000000000E+01 0. -1.
        -11    1    6    6    0    0  0.33873630268E+02  0.24846660406E+02 -0.87761378823E+02  0.97297682263E+02  0.00000000000E+00 0.  1.
         12    1    6    6    0    0  0.10889758571E+03 -0.55878150846E+02 -0.20632166952E+03  0.23989515049E+03  0.00000000000E+00 0. -1.
         -5    1    3    3    0  503 -0.21562958124E+02 -0.50608783727E+02 -0.70178680210E+02  0.89293601727E+02  0.47000000000E+01 0.  1.
         13    1    4    4    0    0 -0.88579693131E+02  0.23755118460E+02 -0.22257065902E+03  0.24072466834E+03  0.00000000000E+00 0. -1.
        -14    1    4    4    0    0 -0.25178497123E+02  0.14242466697E+02 -0.30227185677E+03  0.30365289390E+03  0.00000000000E+00 0.  1.
</event>
<event>
12    1  0.8133506E-002  0.1741352E+03  0.7818608E-02  0.1173922E+00
         21   -1    0    0  501  502  0.00000000000E+00  0.00000000000E+00  0.20117528322E+03  0.20117528322E+03  0.00000000000E+00 0. -1.
         21   -1    0    0  502  503 -0.00000000000E+00 -0.00000000000E+00 -0.19322687502E+03  0.19322687502E+03  0.00000000000E+00 0. -1.
         -6    2    1    2    0  503  0.28205223666E+02 -0.64194467803E+01  0.97642765924E+02  0.19964260351E+03  0.17171579851E+03 0.  0.
        -24    2    3    3    0    0  0.49588699499E+02  0.53251084652E+02  0.79735513092E+02  0.13360787731E+03  0.78731160896E+02 0.  0.
          6    2    1    2  501    0 -0.28205223666E+02  0.64194467803E+01 -0.89694357730E+02  0.19475955473E+03  0.17043902843E+03 0.  0.
         24    2    5    5    0    0  0.25205728159E+02  0.47422356076E+02 -0.82314503464E+02  0.12685874035E+03  0.80207567809E+02 0.  0.
          5    1    5    5  501    0 -0.53410951825E+02 -0.41002909296E+02 -0.73798542663E+01  0.67900814388E+02  0.47000000000E+01 0. -1.
        -11    1    6    6    0    0  0.32727314893E+02 -0.73858260878E+01 -0.84934513341E+01  0.34608760202E+02  0.00000000000E+00 0.  1.
         12    1    6    6    0    0 -0.75215867342E+01  0.54808182164E+02 -0.73821052130E+02  0.92249980145E+02  0.00000000000E+00 0. -1.
         -5    1    3    3    0  503 -0.21383475833E+02 -0.59670531432E+02  0.17907252832E+02  0.66034726198E+02  0.47000000000E+01 0.  1.
         13    1    4    4    0    0  0.19877613102E+02 -0.15439553378E+02  0.13113751449E+01  0.25203551653E+02  0.00000000000E+00 0. -1.
        -14    1    4    4    0    0  0.29711086397E+02  0.68690638030E+02  0.78424137947E+02  0.10840432566E+03  0.00000000000E+00 0.  1.
</event>
<event>
12    1  0.8133506E-002  0.2169806E+03  0.7818608E-02  0.1136211E+00
         21   -1    0    0  503  502  0.00000000000E+00  0.00000000000E+00  0.23729407512E+03  0.23729407512E+03  0.00000000000E+00 0.  1.
         21   -1    0    0  501  503 -0.00000000000E+00 -0.00000000000E+00 -0.25804331540E+03  0.25804331540E+03  0.00000000000E+00 0.  1.
          6    2    1    2  501    0 -0.10884867502E+03  0.76025949448E+02 -0.12971639123E+03  0.25279821172E+03  0.17161764085E+03 0.  0.
         24    2    3    3    0    0 -0.10807584085E+03  0.52595974869E+02 -0.15933598440E+03  0.21473285633E+03  0.79218177936E+02 0.  0.
         -6    2    1    2    0  502  0.10884867502E+03 -0.76025949448E+02  0.10896715096E+03  0.24253917881E+03  0.17124086611E+03 0.  0.
        -24    2    5    5    0    0 -0.86152171335E+01 -0.51559199274E+02  0.61581882401E+02  0.11345067622E+03  0.79662756036E+02 0.  0.
          5    1    3    3  501    0 -0.77283417005E+00  0.23429974579E+02  0.29619593169E+02  0.38065355389E+02  0.47000000000E+01 0. -1.
        -13    1    4    4    0    0 -0.42235679254E+02  0.59721018034E+02 -0.56538283157E+02  0.92450149050E+02  0.00000000000E+00 0.  1.
         14    1    4    4    0    0 -0.65840161591E+02 -0.71250431648E+01 -0.10279770125E+03  0.12228270728E+03  0.00000000000E+00 0. -1.
         -5    1    5    5    0  502  0.11746389215E+03 -0.24466750174E+02  0.47385268557E+02  0.12908850258E+03  0.47000000000E+01 0.  1.
         11    1    6    6    0    0 -0.24247316259E+02  0.96846610314E+01  0.37749927453E+02  0.45899695291E+02  0.00000000000E+00 0. -1.
        -12    1    6    6    0    0  0.15632099126E+02 -0.61243860305E+02  0.23831954948E+02  0.67550980932E+02  0.00000000000E+00 0.  1.
</event>
<event>
12    1  0.8133506E-002  0.2417846E+03  0.7818608E-02  0.1118711E+00
         21   -1    0    0  503  502  0.00000000000E+00  0.00000000000E+00  0.63767897437E+02  0.63767897437E+02  0.00000000000E+00 0. -1.
         21   -1    0    0  501  503 -0.00000000000E+00 -0.00000000000E+00 -0.24888725683E+04  0.24888725683E+04  0.00000000000E+00 0. -1.
          6    2    1    2  501    0  0.16845294787E+03 -0.66967719022E+01 -0.22271141592E+04  0.22401344173E+04  0.17246300266E+03 0.  0.
         24    2    3    3    0    0  0.98876754025E+02 -0.64953450283E+02 -0.10663354367E+04  0.10758045586E+04  0.79300829701E+02 0.  0.
         -6    2    1    2    0  502 -0.16845294787E+03  0.66967719022E+01 -0.19799051165E+03  0.31250604837E+03  0.17331631535E+03 0.  0.
        -24    2    5    5    0    0 -0.61110441313E+02 -0.39120464848E+02 -0.40176907506E+02  0.11616742112E+03  0.81337500738E+02 0.  0.
          5    1    3    3  501    0  0.69576193845E+02  0.58256678381E+02 -0.11607787225E+04  0.11643298587E+04  0.47000000000E+01 0. -1.
        -11    1    4    4    0    0  0.14614926523E+02  0.15022868545E+02 -0.29797897890E+03  0.29871517291E+03  0.00000000000E+00 0.  1.
         12    1    4    4    0    0  0.84261827502E+02 -0.79976318828E+02 -0.76835645782E+03  0.77708938573E+03  0.00000000000E+00 0. -1.
         -5    1    5    5    0  502 -0.10734250656E+03  0.45817236750E+02 -0.15781360414E+03  0.19633862725E+03  0.47000000000E+01 0.  1.
         13    1    6    6    0    0  0.13066444994E+02 -0.11907595876E+02  0.12104409830E+02  0.21425208556E+02  0.00000000000E+00 0. -1.
        -14    1    6    6    0    0 -0.74176886307E+02 -0.27212868972E+02 -0.52281317336E+02  0.94742212568E+02  0.00000000000E+00 0.  1.
</event>
<event>
12    1  0.8133506E-002  0.2150636E+03  0.7818608E-02  0.1138434E+00
         21   -1    0    0  503  502  0.00000000000E+00  0.00000000000E+00  0.12915618575E+04  0.12915618575E+04  0.00000000000E+00 0. -1.
         21   -1    0    0  501  503 -0.00000000000E+00 -0.00000000000E+00 -0.35280186255E+02  0.35280186255E+02  0.00000000000E+00 0. -1.
          6    2    1    2  501    0  0.29843885851E+02  0.12531209796E+03  0.57645798448E+03  0.61381146330E+03  0.16693389467E+03 0.  0.
         24    2    3    3    0    0  0.85047077818E+01  0.13885972522E+03  0.56158310616E+03  0.58410875753E+03  0.80331202876E+02 0.  0.
         -6    2    1    2    0  502 -0.29843885851E+02 -0.12531209796E+03  0.67982368677E+03  0.71303058046E+03  0.17221667794E+03 0.  0.
        -24    2    5    5    0    0 -0.19001187365E+02  0.83742805603E+01  0.23148345980E+03  0.24503414774E+03  0.77627106771E+02 0.  0.
          5    1    3    3  501    0  0.21339178069E+02 -0.13547627263E+02  0.14874878324E+02  0.29702705773E+02  0.47000000000E+01 0. -1.
        -11    1    4    4    0    0  0.26027332332E+02  0.13083500876E+03  0.40640752644E+03  0.42774092520E+03  0.00000000000E+00 0.  1.
         12    1    4    4    0    0 -0.17522624550E+02  0.80247164600E+01  0.15517557971E+03  0.15636783232E+03  0.00000000000E+00 0. -1.
         -5    1    5    5    0  502 -0.10842698486E+02 -0.13368637852E+03  0.44834022697E+03  0.46799643271E+03  0.47000000000E+01 0.  1.
         13    1    6    6    0    0 -0.13677322729E+02  0.38026401952E+02  0.18694982157E+03  0.19126764543E+03  0.00000000000E+00 0. -1.
        -14    1    6    6    0    0 -0.53238646361E+01 -0.29652121392E+02  0.44533638224E+02  0.53766502314E+02  0.00000000000E+00 0.  1.
</event>
<event>
12    1  0.8133506E-002  0.2374712E+03  0.7818608E-02  0.1121723E+00
         21   -1    0    0  501  502  0.00000000000E+00  0.00000000000E+00  0.25833715400E+03  0.25833715400E+03  0.00000000000E+00 0. -1.
         21   -1    0    0  502  503 -0.00000000000E+00 -0.00000000000E+00 -0.76271405234E+03  0.76271405234E+03  0.00000000000E+00 0. -1.
         -6    2    1    2    0  503 -0.29589617407E+02 -0.16322406692E+03 -0.68422621035E+03  0.72426382771E+03  0.16992628910E+03 0.  0.
        -24    2    3    3    0    0 -0.69884105264E+02 -0.14189739956E+03 -0.62381844121E+03  0.64843730818E+03  0.79390395366E+02 0.  0.
          6    2    1    2  501    0  0.29589617407E+02  0.16322406692E+03  0.17984931201E+03  0.29678737862E+03  0.16798610537E+03 0.  0.
         24    2    5    5    0    0 -0.73817984482E+01  0.17602106080E+03  0.13616902033E+03  0.23795960861E+03  0.83933714575E+02 0.  0.
          5    1    5    5  501    0  0.36971415856E+02 -0.12796993876E+02  0.43680291677E+02  0.58827770003E+02  0.47000000000E+01 0. -1.
        -13    1    6    6    0    0 -0.18167911000E+01 -0.18845022961E+01 -0.83081784288E+01  0.87107925937E+01  0.00000000000E+00 0.  1.
         14    1    6    6    0    0 -0.55650073482E+01  0.17790556309E+03  0.14447719876E+03  0.22924881602E+03  0.00000000000E+00 0. -1.
         -5    1    3    3    0  503  0.40294487857E+02 -0.21326667362E+02 -0.60407769135E+02  0.75826519532E+02  0.47000000000E+01 0.  1.
         11    1    4    4    0    0 -0.37038786474E+02 -0.13147506748E+03 -0.55383197049E+03  0.57042739819E+03  0.00000000000E+00 0. -1.
        -12    1    4    4    0    0 -0.32845318791E+02 -0.10422332078E+02 -0.69986470723E+02  0.78009909990E+02  0.00000000000E+00 0.  1.
</event>
<event>
12    1  0.8133506E-002  0.1885131E+03  0.7818608E-02  0.1161739E+00
         21   -1    0    0  503  502  0.00000000000E+00  0.00000000000E+00  0.36225955749E+03  0.36225955749E+03  0.00000000000E+00 0.  1.
         21   -1    0    0  501  503 -0.00000000000E+00 -0.00000000000E+00 -0.12450001982E+03  0.12450001982E+03  0.00000000000E+00 0.  1.
          6    2    1    2  501    0  0.43088484938E+02 -0.30815771326E+02 -0.38810555624E+01  0.18028385735E+03  0.17228168019E+03 0.  0.
         24    2    3    3    0    0 -0.28607455794E+02 -0.18571301491E+02  0.41814313607E+02  0.94258327864E+02  0.77284641316E+02 0.  0.
         -6    2    1    2    0  502 -0.43088484938E+02  0.30815771326E+02  0.24164059323E+03  0.30647571995E+03  0.18091700121E+03 0.  0.
        -24    2    5    5    0    0  0.31688658750E+02 -0.34588503945E+02  0.10080012941E+03  0.13405917002E+03  0.74904334179E+02 0.  0.
          5    1    3    3  501    0  0.71695940732E+02 -0.12244469836E+02 -0.45695369170E+02  0.86025529481E+02  0.47000000000E+01 0. -1.
        -13    1    4    4    0    0  0.87350790927E+01 -0.55666235134E+01 -0.19045974737E+02  0.21680361108E+02  0.00000000000E+00 0.  1.
         14    1    4    4    0    0 -0.37342534887E+02 -0.13004677977E+02  0.60860288345E+02  0.72577966756E+02  0.00000000000E+00 0. -1.
         -5    1    5    5    0  502 -0.74777143688E+02  0.65404275271E+02  0.14084046382E+03  0.17241654993E+03  0.47000000000E+01 0.  1.
         11    1    6    6    0    0  0.72540593463E+01 -0.17545763357E+02 -0.84779860626E+01  0.20793062220E+02  0.00000000000E+00 0. -1.
        -12    1    6    6    0    0  0.24434599404E+02 -0.17042740588E+02  0.10927811548E+03  0.11326610780E+03  0.00000000000E+00 0.  1.
</event>
<event>
12    1  0.8133506E-002  0.2147678E+03  0.7818608E-02  0.1138231E+00
         21   -1    0    0  501  502  0.00000000000E+00  0.00000000000E+00  0.24983814158E+04  0.24983814158E+04  0.00000000000E+00 0.  1.
         21   -1    0    0  502  503 -0.00000000000E+00 -0.00000000000E+00 -0.77275429161E+02  0.77275429161E+02  0.00000000000E+00 0. -1.
         -6    2    1    2    0  503  0.12419621245E+03 -0.22119737397E+02  0.84075956747E+02  0.22877922687E+03  0.17133938886E+03 0.  0.
        -24    2    3    3    0    0  0.13052816843E+03 -0.42052575037E+02  0.20942311458E+02  0.16210570251E+03  0.83866897855E+02 0.  0.
          6    2    1    2  501    0 -0.12419621245E+03  0.22119737397E+02  0.23370300299E+04  0.23468776181E+04  0.17381372708E+03 0.  0.
         24    2    5    5    0    0  0.48386131527E+01 -0.14681893512E+02  0.99923496158E+03  0.10023620618E+04  0.77590104791E+02 0.  0.
          5    1    5    5  501    0 -0.12903482560E+03  0.36801630909E+02  0.13377950683E+04  0.13445155562E+04  0.47000000000E+01 0. -1.
        -13    1    6    6    0    0  0.15336499861E+02  0.26466493916E+02  0.62054072860E+03  0.62129419712E+03  0.00000000000E+00 0.  1.
         14    1    6    6    0    0 -0.10497886708E+02 -0.41148387428E+02  0.37869423298E+03  0.38106786470E+03  0.00000000000E+00 0. -1.
         -5    1    3    3    0  503 -0.63319559813E+01  0.19932837640E+02  0.63133645288E+02  0.66673524358E+02  0.47000000000E+01 0.  1.
         11    1    4    4    0    0  0.70909391527E+02 -0.59050771349E+01  0.49587844730E+02  0.86729268921E+02  0.00000000000E+00 0. -1.
        -12    1    4    4    0    0  0.59618776902E+02 -0.36147497902E+02 -0.28645533271E+02  0.75376433587E+02  0.00000000000E+00 0.  1.
</event>
<event>
12    1  0.8133506E-002  0.2427427E+03  0.7818608E-02  0.1118703E+00
         21   -1    0    0  503  502  0.00000000000E+00  0.00000000000E+00  0.57072939853E+03  0.57072939853E+03  0.00000000000E+00 0.  1.
         21   -1    0    0  501  503 -0.00000000000E+00 -0.00000000000E+00 -0.53933654760E+03  0.53933654760E+03  0.00000000000E+00 0.  1.
          6    2    1    2  501    0  0.12282077454E+03  0.11045298807E+03 -0.48441911340E+03  0.54183568293E+03  0.17787418203E+03 0.  0.
         24    2    3    3    0    0  0.11368790049E+03  0.74918281512E+02 -0.19697193620E+03  0.25201833624E+03  0.78597776867E+02 0.  0.
         -6    2    1    2    0  502 -0.12282077454E+03 -0.11045298807E+03  0.51581196433E+03  0.56823026320E+03  0.17186868314E+03 0.  0.
        -24    2    5    5    0    0 -0.78367044761E+02 -0.83486909507E+02  0.17879100874E+03  0.22718991663E+03  0.80855275947E+02 0.  0.
          5    1    3    3  501    0  0.91328740453E+01  0.35534706560E+02 -0.28744717720E+03  0.28981734669E+03  0.47000000000E+01 0. -1.
        -13    1    4    4    0    0  0.22655741188E+02  0.54365584745E+02 -0.10833593631E+03  0.12331088561E+03  0.00000000000E+00 0.  1.
         14    1    4    4    0    0  0.91032159303E+02  0.20552696767E+02 -0.88635999890E+02  0.12870745063E+03  0.00000000000E+00 0. -1.
         -5    1    5    5    0  502 -0.44453729776E+02 -0.26966078564E+02  0.33702095559E+03  0.34104034658E+03  0.47000000000E+01 0.  1.
         13    1    6    6    0    0 -0.51384710719E+02 -0.91819497849E+02  0.16516851739E+03  0.19583627809E+03  0.00000000000E+00 0. -1.
        -14    1    6    6    0    0 -0.26982334042E+02  0.83325883420E+01  0.13622491349E+02  0.31353638535E+02  0.00000000000E+00 0.  1.
</event>
<event>
12    1  0.8133506E-002  0.1840818E+03  0.7818608E-02  0.1163944E+00
         21   -1    0    0  503  502  0.00000000000E+00  0.00000000000E+00  0.54781615623E+02  0.54781615623E+02  0.00000000000E+00 0. -1.
         21   -1    0    0  501  503 -0.00000000000E+00 -0.00000000000E+00 -0.72439112327E+03  0.72439112327E+03  0.00000000000E+00 0. -1.
          6    2    1    2  501    0 -0.30858251399E+02  0.57614109495E+02 -0.18544512469E+03  0.26119469647E+03  0.17193358572E+03 0.  0.
         24    2    3    3    0    0 -0.57891254564E+02  0.84597549626E+02 -0.17672765061E+03  0.22173619097E+03  0.86175014584E+02 0.  0.
         -6    2    1    2    0  502  0.30858251399E+02 -0.57614109495E+02 -0.48416438296E+03  0.51797804243E+03  0.17208859760E+03 0.  0.
        -24    2    5    5    0    0 -0.28173012857E+02 -0.73490025907E+02 -0.22047968202E+03  0.24725965297E+03  0.79570994992E+02 0.  0.
          5    1    3    3  501    0  0.27033003164E+02 -0.26983440130E+02 -0.87174740794E+01  0.39458505492E+02  0.47000000000E+01 0. -1.
        -11    1    4    4    0    0 -0.75474923691E+02  0.76664444142E+02 -0.11687215235E+03  0.15884898834E+03  0.00000000000E+00 0.  1.
         12    1    4    4    0    0  0.17583669128E+02  0.79331054835E+01 -0.59855498266E+02  0.62887202635E+02  0.00000000000E+00 0. -1.
         -5    1    5    5    0  502  0.59031264256E+02  0.15875916412E+02 -0.26368470093E+03  0.27071838945E+03  0.47000000000E+01 0.  1.
         13    1    6    6    0    0 -0.19205940572E+02 -0.65250236826E+02 -0.22438749974E+03  0.23447006546E+03  0.00000000000E+00 0. -1.
        -14    1    6    6    0    0 -0.89670722846E+01 -0.82397890810E+01  0.39078177164E+01  0.12789587513E+02  0.00000000000E+00 0.  1.
</event>
<event>
12    1  0.8133506E-002  0.2049817E+03  0.7818608E-02  0.1145985E+00
         21   -1    0    0  501  502  0.00000000000E+00  0.00000000000E+00  0.10036347545E+04  0.10036347545E+04  0.00000000000E+00 0. -1.
         21   -1    0    0  502  503 -0.00000000000E+00 -0.00000000000E+00 -0.51081766795E+02  0.51081766795E+02  0.00000000000E+00 0. -1.
         -6    2    1    2    0  503  0.86143417445E+00  0.10792393676E+03  0.24595084069E+03  0.31898280240E+03  0.17207525679E+03 0.  0.
        -24    2    3    3    0    0  0.57233771613E+02  0.89745980130E+02  0.11313176913E+03  0.17347928249E+03  0.77241301815E+02 0.  0.
          6    2    1    2  501    0 -0.86143417445E+00 -0.10792393676E+03  0.70660214704E+03  0.73573371891E+03  0.17426758950E+03 0.  0.
         24    2    5    5    0    0 -0.31109366313E+02 -0.85450902018E+02  0.24924066254E+03  0.27679843786E+03  0.78910189533E+02 0.  0.
          5    1    5    5  501    0  0.30247932138E+02 -0.22473034744E+02  0.45736148450E+03  0.45893528105E+03  0.47000000000E+01 0. -1.
        -13    1    6    6    0    0 -0.16326098893E+02  0.12899811780E+02  0.38287571948E+02  0.43576195505E+02  0.00000000000E+00 0.  1.
         14    1    6    6    0    0 -0.14783267419E+02 -0.98350713798E+02  0.21095309059E+03  0.23322224236E+03  0.00000000000E+00 0. -1.
         -5    1    3    3    0  503 -0.56372337439E+02  0.18177956632E+02  0.13281907156E+03  0.14550351991E+03  0.47000000000E+01 0.  1.
         13    1    4    4    0    0  0.50626780103E+02  0.63073999599E+02  0.30567437032E+02  0.86462526541E+02  0.00000000000E+00 0. -1.
        -14    1    4    4    0    0  0.66069915101E+01  0.26671980531E+02  0.82564332096E+02  0.87016755954E+02  0.00000000000E+00 0.  1.
</event>
<event>
12    1  0.8133506E-002  0.1802957E+03  0.7818608E-02  0.1168140E+00
         21   -1    0    0  501  502  0.00000000000E+00  0.00000000000E+00  0.27927151456E+03  0.27927151456E+03  0.00000000000E+00 0. -1.
         21   -1    0    0  502  503 -0.00000000000E+00 -0.00000000000E+00 -0.23811325648E+03  0.23811325648E+03  0.00000000000E+00 0. -1.
         -6    2    1    2    0  503  0.30311097981E+02  0.41377091742E+02 -0.16554871541E+03  0.24477114402E+03  0.17284591227E+03 0.  0.
        -24    2    3    3    0    0 -0.38606141754E+02  0.58306843175E+02 -0.12078461956E+03  0.16073474301E+03  0.79728358491E+02 0.  0.
          6    2    1    2  501    0 -0.30311097981E+02 -0.41377091742E+02  0.20670697348E+03  0.27261362703E+03  0.17017517555E+03 0.  0.
         24    2    5    5    0    0  0.16555382836E+02  0.14544926326E+02  0.17240247764E+03  0.19185084127E+03  0.81231123446E+02 0.  0.
          5    1    5    5  501    0 -0.46866480817E+02 -0.55922018068E+02  0.34304495846E+02  0.80762785763E+02  0.47000000000E+01 0. -1.
        -13    1    6    6    0    0  0.16240850965E+02  0.38067609652E+02  0.40638856656E+02  0.58003662083E+02  0.00000000000E+00 0.  1.
         14    1    6    6    0    0  0.31453187130E+00 -0.23522683326E+02  0.13176362098E+03  0.13384717918E+03  0.00000000000E+00 0. -1.
         -5    1    3    3    0  503  0.68917239735E+02 -0.16929751432E+02 -0.44764095852E+02  0.84036401004E+02  0.47000000000E+01 0.  1.
         13    1    4    4    0    0  0.43506923522E+01  0.20942861455E+02 -0.96494279184E+02  0.98836622186E+02  0.00000000000E+00 0. -1.
        -14    1    4    4    0    0 -0.42956834106E+02  0.37363981720E+02 -0.24290340372E+02  0.61898120826E+02  0.00000000000E+00 0.  1.
</event>
<event>
12    1  0.8133506E-002  0.1736035E+03  0.7818608E-02  0.1174260E+00
         21   -1    0    0  501  502  0.00000000000E+00  0.00000000000E+00  0.91658749852E+02  0.91658749852E+02  0.00000000000E+00 0. -1.
         21   -1    0    0  502  503 -0.00000000000E+00 -0.00000000000E+00 -0.33560970198E+03  0.33560970198E+03  0.00000000000E+00 0. -1.
         -6    2    1    2    0  503  0.19634070830E+02 -0.15372136399E+01 -0.15414546859E+03  0.23181208164E+03  0.17201208081E+03 0.  0.
        -24    2    3    3    0    0  0.47946831632E+02  0.50293853042E+02 -0.54821747059E+02  0.11616017480E+03  0.75228930212E+02 0.  0.
          6    2    1    2  501    0 -0.19634070830E+02  0.15372136399E+01 -0.89805483535E+02  0.19545637019E+03  0.17248277598E+03 0.  0.
         24    2    5    5    0    0 -0.34486151978E+02  0.18213450696E+02  0.12956819604E+02  0.90190696092E+02  0.80283609926E+02 0.  0.
          5    1    5    5  501    0  0.14852081149E+02 -0.16676237056E+02 -0.10276230314E+03  0.10526567410E+03  0.47000000000E+01 0. -1.
        -11    1    6    6    0    0  0.65821456686E+01  0.29717341137E+02 -0.19888993499E+02  0.36359552641E+02  0.00000000000E+00 0.  1.
         12    1    6    6    0    0 -0.41068297647E+02 -0.11503890441E+02  0.32845813102E+02  0.53831143451E+02  0.00000000000E+00 0. -1.
         -5    1    3    3    0  503 -0.28312760803E+02 -0.51831066682E+02 -0.99323721531E+02  0.11565190684E+03  0.47000000000E+01 0.  1.
         11    1    4    4    0    0  0.24987618950E+02  0.36609545320E+02 -0.71883703083E+02  0.84450616803E+02  0.00000000000E+00 0. -1.
        -12    1    4    4    0    0  0.22959212682E+02  0.13684307722E+02  0.17061956024E+02  0.31709557994E+02  0.00000000000E+00 0.  1.
</event>
<event>
12    1  0.8133506E-002  0.1986726E+03  0.7818608E-02  0.1150867E+00
         21   -1    0    0  501  502  0.00000000000E+00  0.00000000000E+00  0.21565053373E+03  0.21565053373E+03  0.00000000000E+00 0. -1.
         21   -1    0    0  502  503 -0.00000000000E+00 -0.00000000000E+00 -0.18593223627E+03  0.18593223627E+03  0.00000000000E+00 0. -1.
         -6    2    1    2    0  503 -0.99186759228E+02 -0.96156036466E+01 -0.10287320219E+02  0.19892237832E+03  0.17185403864E+03 0.  0.
        -24    2    3    3    0    0 -0.11343640861E+03 -0.50205349995E+02  0.14946751039E+02  0.14882818336E+03  0.80858065943E+02 0.  0.
          6    2    1    2  501    0  0.99186759228E+02  0.96156036466E+01  0.40005617675E+02  0.20266039168E+03  0.17187295270E+03 0.  0.
         24    2    5    5    0    0  0.55840173432E+02 -0.35574311646E+02  0.77657850464E+02  0.12944266446E+03  0.79630427770E+02 0.  0.
          5    1    5    5  501    0  0.43346585796E+02  0.45189915293E+02 -0.37652232789E+02  0.73217727214E+02  0.47000000000E+01 0. -1.
        -11    1    6    6    0    0  0.72704211515E+02 -0.38724239837E+02  0.48441358461E+02  0.95561678158E+02  0.00000000000E+00 0.  1.
         12    1    6    6    0    0 -0.16864038083E+02  0.31499281906E+01  0.29216492003E+02  0.33880986305E+02  0.00000000000E+00 0. -1.
         -5    1    3    3    0  503  0.14249649386E+02  0.40589746348E+02 -0.25234071258E+02  0.50094194958E+02  0.47000000000E+01 0.  1.
         13    1    4    4    0    0 -0.40590683896E+02 -0.59767086198E+02 -0.58129016344E+01  0.72481018461E+02  0.00000000000E+00 0. -1.
        -14    1    4    4    0    0 -0.72845724717E+02  0.95617362030E+01  0.20759652673E+02  0.76347164897E+02  0.00000000000E+00 0.  1.
</event>
<event>
12    1  0.8133506E-002  0.2256838E+03  0.7818608E-02  0.1129894E+00
         21   -1    0    0  501  502  0.00000000000E+00  0.00000000000E+00  0.84928668594E+02  0.84928668594E+02  0.00000000000E+00 0. -1.
         21   -1    0    0  502  503 -0.00000000000E+00 -0.00000000000E+00 -0.11229665992E+04  0.11229665992E+04  0.00000000000E+00 0. -1.
         -6    2    1    2    0  503 -0.12684980795E+03 -0.72164728483E+02 -0.93170435769E+03  0.95841584108E+03  0.17084874153E+03 0.  0.
        -24    2    3    3    0    0 -0.33488677797E+02 -0.36507264485E+01 -0.22472711492E+03  0.24200158879E+03  0.83232646539E+02 0.  0.
          6    2    1    2  501    0  0.12684980795E+03  0.72164728483E+02 -0.10633357289E+03  0.24947942669E+03  0.17214683791E+03 0.  0.
         24    2    5    5    0    0  0.56823131618E+02 -0.29326086229E+02 -0.42699474470E+02  0.11064315855E+03  0.79559888092E+02 0.  0.
          5    1    5    5  501    0  0.70026676333E+02  0.10149081471E+03 -0.63634098420E+02  0.13883626814E+03  0.47000000000E+01 0. -1.
        -11    1    6    6    0    0  0.40848263161E+02 -0.41640735954E+02  0.53062623851E+01  0.58572074528E+02  0.00000000000E+00 0.  1.
         12    1    6    6    0    0  0.15974868457E+02  0.12314649725E+02 -0.48005736855E+02  0.52071084021E+02  0.00000000000E+00 0. -1.
         -5    1    3    3    0  503 -0.93361130154E+02 -0.68514002034E+02 -0.70697724277E+03  0.71641425229E+03  0.47000000000E+01 0.  1.
         13    1    4    4    0    0  0.12643734140E+02  0.16992953185E+02 -0.15181573255E+03  0.15328614131E+03  0.00000000000E+00 0. -1.
        -14    1    4    4    0    0 -0.46132411938E+02 -0.20643679633E+02 -0.72911382376E+02  0.88715447471E+02  0.00000000000E+00 0.  1.
</event>
<event>
12    1  0.8133506E-002  0.1858007E+03  0.7818608E-02  0.1163007E+00
         21   -1    0    0  501  502  0.00000000000E+00  0.00000000000E+00  0.14020088242E+04  0.14020088242E+04  0.00000000000E+00 0. -1.
         21   -1    0    0  502  503 -0.00000000000E+00 -0.00000000000E+00 -0.25681808544E+02  0.25681808544E+02  0.00000000000E+00 0. -1.
         -6    2    1    2    0  503 -0.60852254200E+02  0.90633049106E+01  0.52355964626E+03  0.55555071717E+03  0.17531901155E+03 0.  0.
        -24    2    3    3    0    0  0.42864189051E+01 -0.15271419648E+02  0.43717512421E+03  0.44455701823E+03  0.79102867103E+02 0.  0.
          6    2    1    2  501    0  0.60852254200E+02 -0.90633049106E+01  0.85276736940E+03  0.87213991558E+03  0.17213571885E+03 0.  0.
         24    2    5    5    0    0  0.23538348404E+02 -0.69832379942E+02  0.45667549670E+03  0.46965256216E+03  0.81181307733E+02 0.  0.
          5    1    5    5  501    0  0.37313905796E+02  0.60769075032E+02  0.39609187270E+03  0.40248735342E+03  0.47000000000E+01 0. -1.
        -13    1    6    6    0    0 -0.20282995279E+02  0.43853866294E+01  0.53859876248E+02  0.57719301649E+02  0.00000000000E+00 0.  1.
         14    1    6    6    0    0  0.43821343683E+02 -0.74217766572E+02  0.40281562045E+03  0.41193326052E+03  0.00000000000E+00 0. -1.
         -5    1    3    3    0  503 -0.65138673105E+02  0.24334724558E+02  0.86384522052E+02  0.11099369894E+03  0.47000000000E+01 0.  1.
         13    1    4    4    0    0 -0.20386427635E+02  0.25652966681E+02  0.19005202193E+03  0.19285604002E+03  0.00000000000E+00 0. -1.
        -14    1    4    4    0    0  0.24672846540E+02 -0.40924386328E+02  0.24712310228E+03  0.25170097821E+03  0.00000000000E+00 0.  1.
</event>
<event>
12    1  0.8133506E-002  0.1752477E+03  0.7818608E-02  0.1172491E+00
         21   -1    0    0  501  502  0.00000000000E+00  0.00000000000E+00  0.12419069274E+04  0.12419069274E+04  0.00000000000E+00 0.  1.
         21   -1    0    0  502  503 -0.00000000000E+00 -0.00000000000E+00 -0.41862064942E+02  0.41862064942E+02  0.00000000000E+00 0.  1.
         -6    2    1    2    0  503 -0.27888577791E+02 -0.15689132466E+01  0.18936347872E+03  0.25801216848E+03  0.17300727658E+03 0.  0.
        -24    2    3    3    0    0  0.63361878319E+01  0.57484179794E+02  0.68329753986E+02  0.11898031996E+03  0.78375908640E+02 0.  0.
          6    2    1    2  501    0  0.27888577791E+02  0.15689132466E+01  0.10106813837E+04  0.10257568239E+04  0.17297389401E+03 0.  0.
         24    2    5    5    0    0  0.55540961380E+02 -0.54946834271E+02  0.61866534204E+03  0.62869593309E+03  0.80048846657E+02 0.  0.
          5    1    5    5  501    0 -0.27652383589E+02  0.56515747517E+02  0.39201604170E+03  0.39706089078E+03  0.47000000000E+01 0. -1.
        -11    1    6    6    0    0  0.64870885390E+02 -0.38631507795E+02  0.58727956180E+03  0.59211308791E+03  0.00000000000E+00 0.  1.
         12    1    6    6    0    0 -0.93299240101E+01 -0.16315326476E+02  0.31385780245E+02  0.36582845183E+02  0.00000000000E+00 0. -1.
         -5    1    3    3    0  503 -0.34224765623E+02 -0.59053093040E+02  0.12103372474E+03  0.13903184852E+03  0.47000000000E+01 0.  1.
         11    1    4    4    0    0  0.37509455779E+02  0.23445806223E+02  0.55699505135E+02  0.71127350397E+02  0.00000000000E+00 0. -1.
        -12    1    4    4    0    0 -0.31173267947E+02  0.34038373571E+02  0.12630248851E+02  0.47852969562E+02  0.00000000000E+00 0.  1.
</event>
<event>
12    1  0.8133506E-002  0.2528878E+03  0.7818608E-02  0.1111808E+00
         21   -1    0    0  501  502  0.00000000000E+00  0.00000000000E+00  0.10422486201E+03  0.10422486201E+03  0.00000000000E+00 0.  1.
         21   -1    0    0  502  503 -0.00000000000E+00 -0.00000000000E+00 -0.61769075671E+03  0.61769075671E+03  0.00000000000E+00 0. -1.
         -6    2    1    2    0  503 -0.17109297798E+03 -0.63141260038E+02 -0.30124954052E+03  0.39332370054E+03  0.17519309893E+03 0.  0.
        -24    2    3    3    0    0 -0.24996882514E+02 -0.44374393345E+02 -0.17772825870E+03  0.20103261532E+03  0.78948385412E+02 0.  0.
          6    2    1    2  501    0  0.17109297798E+03  0.63141260038E+02 -0.21221635418E+03  0.32859191818E+03  0.17227083874E+03 0.  0.
         24    2    5    5    0    0  0.18690849926E+03  0.43552880523E+02 -0.22064140786E+03  0.30163070799E+03  0.73937897182E+02 0.  0.
          5    1    5    5  501    0 -0.15815521281E+02  0.19588379515E+02  0.84250536839E+01  0.26961210191E+02  0.47000000000E+01 0. -1.
        -11    1    6    6    0    0  0.16939435200E+03  0.61712624509E+02 -0.18963814722E+03  0.26165917028E+03  0.00000000000E+00 0.  1.
         12    1    6    6    0    0  0.17514147266E+02 -0.18159743986E+02 -0.31003260642E+02  0.39971537705E+02  0.00000000000E+00 0. -1.
         -5    1    3    3    0  503 -0.14609609547E+03 -0.18766866693E+02 -0.12352128182E+03  0.19229108523E+03  0.47000000000E+01 0.  1.
         13    1    4    4    0    0 -0.53843460606E+02 -0.27579997827E+02 -0.11835155823E+03  0.13291676292E+03  0.00000000000E+00 0. -1.
        -14    1    4    4    0    0  0.28846578091E+02 -0.16794395518E+02 -0.59376700478E+02  0.68115852399E+02  0.00000000000E+00 0.  1.
</event>
<event>
12    1  0.8133506E-002  0.2071414E+03  0.7818608E-02  0.1143963E+00
         21   -1    0    0  501  502  0.00000000000E+00  0.00000000000E+00  0.40093749541E+03  0.40093749541E+03  0.00000000000E+00 0. -1.
         21   -1    0    0  502  503 -0.00000000000E+00 -0.00000000000E+00 -0.15183793943E+03  0.15183793943E+03  0.00000000000E+00 0. -1.
         -6    2    1    2    0  503  0.11308126891E+03  0.11990791512E+02  0.27507766296E+03  0.34401141045E+03  0.17246732271E+03 0.  0.
        -24    2    3    3    0    0  0.13193162311E+03 -0.25038850404E+02  0.19162893263E+03  0.25067165028E+03  0.89898449543E+02 0.  0.
          6    2    1    2  501    0 -0.11308126891E+03 -0.11990791512E+02 -0.25978106973E+02  0.20876402439E+03  0.17313694978E+03 0.  0.
         24    2    5    5    0    0 -0.70010809677E+02 -0.28862333174E+02  0.49086529756E+02  0.12046621545E+03  0.79800212486E+02 0.  0.
          5    1    5    5  501    0 -0.43070459231E+02  0.16871541662E+02 -0.75064636729E+02  0.88297808941E+02  0.47000000000E+01 0. -1.
        -13    1    6    6    0    0 -0.75724122575E+02 -0.18402934237E+02  0.87642994464E+01  0.78419536297E+02  0.00000000000E+00 0.  1.
         14    1    6    6    0    0  0.57133128980E+01 -0.10459398937E+02  0.40322230310E+02  0.42046679150E+02  0.00000000000E+00 0. -1.
         -5    1    3    3    0  503 -0.18850354203E+02  0.37029641916E+02  0.83448730334E+02  0.93339760169E+02  0.47000000000E+01 0.  1.
         13    1    4    4    0    0  0.66869089238E+02  0.31793177152E+02  0.10355190611E+03  0.12729995470E+03  0.00000000000E+00 0. -1.
        -14    1    4    4    0    0  0.65062533874E+02 -0.56832027556E+02  0.88077026520E+02  0.12337169558E+03  0.00000000000E+00 0.  1.
</event>
<event>
12    1  0.8133506E-002  0.1795884E+03  0.7818608E-02  0.1168391E+00
         21   -1    0    0  501  502  0.00000000000E+00  0.00000000000E+00  0.58266637934E+03  0.58266637934E+03  0.00000000000E+00 0.  1.
         21   -1    0    0  502  503 -0.00000000000E+00 -0.00000000000E+00 -0.57616782955E+02  0.57616782955E+02  0.00000000000E+00 0.  1.
         -6    2    1    2    0  503 -0.42133908019E+02  0.34745270722E+02  0.19633490978E+03  0.26608152980E+03  0.17108326529E+03 0.  0.
        -24    2    3    3    0    0 -0.54075128750E+02  0.68738965872E+02  0.75739493733E+02  0.14013110927E+03  0.79063846955E+02 0.  0.
          6    2    1    2  501    0  0.42133908019E+02 -0.34745270722E+02  0.32871468661E+03  0.37420163249E+03  0.17026748522E+03 0.  0.
         24    2    5    5    0    0  0.42911378381E+02  0.43431959285E+02  0.18895391358E+03  0.21399099792E+03  0.79754901118E+02 0.  0.
          5    1    5    5  501    0 -0.77747036208E+00 -0.78177230007E+02  0.13976077303E+03  0.16021063457E+03  0.47000000000E+01 0. -1.
        -13    1    6    6    0    0  0.63936280877E+02  0.17631849678E+02  0.11228037242E+03  0.13040556801E+03  0.00000000000E+00 0.  1.
         14    1    6    6    0    0 -0.21024902496E+02  0.25800109606E+02  0.76673541161E+02  0.83585429919E+02  0.00000000000E+00 0. -1.
         -5    1    3    3    0  503  0.11941220730E+02 -0.33993695149E+02  0.12059541604E+03  0.12595042054E+03  0.47000000000E+01 0.  1.
         11    1    4    4    0    0 -0.20494762385E+02  0.34304731616E+02  0.82396447289E+02  0.91575239133E+02  0.00000000000E+00 0. -1.
        -12    1    4    4    0    0 -0.33580366364E+02  0.34434234256E+02 -0.66569535557E+01  0.48555870135E+02  0.00000000000E+00 0.  1.
</event>
<event>
12    1  0.8133506E-002  0.2457788E+03  0.7818608E-02  0.1116367E+00
         21   -1    0    0  501  502  0.00000000000E+00  0.00000000000E+00  0.17140737811E+03  0.17140737811E+03  0.00000000000E+00 0.  1.
         21   -1    0    0  502  503 -0.00000000000E+00 -0.00000000000E+00 -0.18906230878E+04  0.18906230878E+04  0.00000000000E+00 0.  1.
         -6    2    1    2    0  503  0.26450341406E+02  0.17331513384E+03 -0.17898199079E+04  0.18063115491E+04  0.16902175446E+03 0.  0.
        -24    2    3    3    0    0 -0.35737656724E+02  0.75838136343E+02 -0.11714182539E+04  0.11771757864E+04  0.80582278585E+02 0.  0.
          6    2    1    2  501    0 -0.26450341406E+02 -0.17331513384E+03  0.70604198241E+02  0.25571891678E+03  0.17224823777E+03 0.  0.
         24    2    5    5    0    0 -0.58910178844E+02 -0.18552283198E+03  0.58667069627E+02  0.21874251917E+03  0.80730008538E+02 0.  0.
          5    1    5    5  501    0  0.32459837438E+02  0.12207698144E+02  0.11937128614E+02  0.36976397608E+02  0.47000000000E+01 0. -1.
        -11    1    6    6    0    0  0.12332447782E+01 -0.11020975057E+03  0.97188458852E+01  0.11064432195E+03  0.00000000000E+00 0.  1.
         12    1    6    6    0    0 -0.60143423622E+02 -0.75313081407E+02  0.48948223742E+02  0.10809819723E+03  0.00000000000E+00 0. -1.
         -5    1    3    3    0  503  0.62187998129E+02  0.97476997493E+02 -0.61840165407E+03  0.62913576270E+03  0.47000000000E+01 0.  1.
         13    1    4    4    0    0  0.15240999876E+02 -0.42872262415E+01 -0.33679517058E+03  0.33716710295E+03  0.00000000000E+00 0. -1.
        -14    1    4    4    0    0 -0.50978656600E+02  0.80125362584E+02 -0.83462308329E+03  0.84000868347E+03  0.00000000000E+00 0.  1.
</event>
<event>
12    1  0.8133506E-002  0.1760995E+03  0.7818608E-02  0.1174879E+00
         21   -1    0    0  503  502  0.00000000000E+00  0.00000000000E+00  0.15283889361E+03  0.15283889361E+03  0.00000000000E+00 0. -1.
         21   -1    0    0  501  503 -0.00000000000E+00 -0.00000000000E+00 -0.38110344126E+03  0.38110344126E+03  0.00000000000E+00 0. -1.
          6    2    1    2  501    0 -0.14419052254E+02 -0.68735325915E+01 -0.30584018189E+03  0.35291537004E+03  0.17537356423E+03 0.  0.
         24    2    3    3    0    0  0.58711907056E+02  0.66998476708E+01 -0.14047970639E+03  0.17153579368E+03  0.78727407030E+02 0.  0.
         -6    2    1    2    0  502  0.14419052254E+02  0.68735325915E+01  0.77575634233E+02  0.18102696483E+03  0.16278092165E+03 0.  0.
        -24    2    5    5    0    0 -0.13127469538E+02 -0.50642148408E+02  0.66512152795E+02  0.11613201091E+03  0.79535022699E+02 0.  0.
          5    1    3    3  501    0 -0.73130959311E+02 -0.13573380262E+02 -0.16536047550E+03  0.18137957635E+03  0.47000000000E+01 0. -1.
        -13    1    4    4    0    0  0.10662620669E+02  0.25841747420E+02 -0.76371717794E+01  0.28979540749E+02  0.00000000000E+00 0.  1.
         14    1    4    4    0    0  0.48049286387E+02 -0.19141899749E+02 -0.13284253461E+03  0.14255625293E+03  0.00000000000E+00 0. -1.
         -5    1    5    5    0  502  0.27546521792E+02  0.57515680999E+02  0.11063481437E+02  0.64894953927E+02  0.47000000000E+01 0.  1.
         13    1    6    6    0    0 -0.39644186211E+02 -0.79925054857E+01  0.12386269107E+02  0.42296114558E+02  0.00000000000E+00 0. -1.
        -14    1    6    6    0    0  0.26516716673E+02 -0.42649642922E+02  0.54125883689E+02  0.73835896348E+02  0.00000000000E+00 0.  1.
</event>
<event>
12    1  0.8133506E-002  0.1753337E+03  0.7818608E-02  0.1172857E+00
         21   -1    0    0  503  502  0.00000000000E+00  0.00000000000E+00  0.12547068509E+04  0.12547068509E+04  0.00000000000E+00 0.  1.
         21   -1    0    0  501  503 -0.00000000000E+00 -0.00000000000E+00 -0.51689656766E+02  0.51689656766E+02  0.00000000000E+00 0.  1.
          6    2    1    2  501    0 -0.33146411016E+02  0.62515080634E+01  0.12704197796E+03  0.21652155305E+03  0.17205857391E+03 0.  0.
         24    2    3    3    0    0 -0.33634622199E+02 -0.55743064238E+02  0.43382601400E+02  0.11228841709E+03  0.80548503948E+02 0.  0.
         -6    2    1    2    0  502  0.33146411016E+02 -0.62515080634E+01  0.10759752161E+04  0.10898749546E+04  0.17019690057E+03 0.  0.
        -24    2    5    5    0    0  0.56247701811E+02  0.74491066464E+01  0.32773480646E+03  0.34113789984E+03  0.75800199122E+02 0.  0.
          5    1    3    3  501    0  0.48821118279E+00  0.61994572301E+02  0.83659376564E+02  0.10423313596E+03  0.47000000000E+01 0. -1.
        -11    1    4    4    0    0 -0.10229466870E+02  0.20938393498E+02  0.11768672703E+02  0.26106703582E+02  0.00000000000E+00 0.  1.
         12    1    4    4    0    0 -0.23405155329E+02 -0.76681457735E+02  0.31613928697E+02  0.86181713513E+02  0.00000000000E+00 0. -1.
         -5    1    5    5    0  502 -0.23101290795E+02 -0.13700614710E+02  0.74824040967E+03  0.74873705474E+03  0.47000000000E+01 0.  1.
         11    1    6    6    0    0  0.48707264178E+02  0.21480432143E+02  0.31809596528E+03  0.32251953379E+03  0.00000000000E+00 0. -1.
        -12    1    6    6    0    0  0.75404376330E+01 -0.14031325497E+02  0.96388411888E+01  0.18618366050E+02  0.00000000000E+00 0.  1.
</event>
<event>
12    1  0.8133506E-002  0.2004022E+03  0.7818608E-02  0.1149682E+00
         21   -1    0    0  501  502  0.00000000000E+00  0.00000000000E+00  0.38582992663E+03  0.38582992663E+03  0.00000000000E+00 0.  1.
         21   -1    0    0  502  503 -0.00000000000E+00 -0.00000000000E+00 -0.16584600560E+03  0.16584600560E+03  0.00000000000E+00 0.  1.
         -6    2    1    2    0  503  0.97125493651E+02 -0.29849030269E+02 -0.59042150283E+02  0.20891870313E+03  0.17273309724E+03 0.  0.
        -24    2    3    3    0    0  0.28266399349E+02 -0.49965307838E+02 -0.87525341677E+02  0.13159068955E+03  0.79748998880E+02 0.  0.
          6    2    1    2  501    0 -0.97125493651E+02  0.29849030269E+02  0.27902607131E+03  0.34275722909E+03  0.17118014926E+03 0.  0.
         24    2    5    5    0    0 -0.12444529254E+02  0.48064825682E+02  0.21502105400E+03  0.23495457062E+03  0.80650497920E+02 0.  0.
          5    1    5    5  501    0 -0.84680964396E+02 -0.18215795413E+02  0.64005017313E+02  0.10780265848E+03  0.47000000000E+01 0. -1.
        -11    1    6    6    0    0 -0.39448232522E+02  0.35453057546E+02  0.75386993061E+02  0.92175273589E+02  0.00000000000E+00 0.  1.
         12    1    6    6    0    0  0.27003703267E+02  0.12611768136E+02  0.13963406094E+03  0.14277929703E+03  0.00000000000E+00 0. -1.
         -5    1    3    3    0  503  0.68859094302E+02  0.20116277569E+02  0.28483191394E+02  0.77328013574E+02  0.47000000000E+01 0.  1.
         11    1    4    4    0    0 -0.12937573375E+02  0.99615400917E+01 -0.43771585891E+02  0.46717928221E+02  0.00000000000E+00 0. -1.
        -12    1    4    4    0    0  0.41203972724E+02 -0.59926847930E+02 -0.43753755786E+02  0.84872761334E+02  0.00000000000E+00 0.  1.
</event>
<event>
12    1  0.8133506E-002  0.3102620E+03  0.7818608E-02  0.1080962E+00
         21   -1    0    0  501  502  0.00000000000E+00  0.00000000000E+00  0.13725316383E+03  0.13725316383E+03  0.00000000000E+00 0.  1.
         21   -1    0    0  502  503 -0.00000000000E+00 -0.00000000000E+00 -0.11268344526E+04  0.11268344526E+04  0.00000000000E+00 0. -1.
         -6    2    1    2    0  503  0.93074551439E+02  0.23289332300E+03 -0.88639248366E+03  0.93711597125E+03  0.17202481347E+03 0.  0.
        -24    2    3    3    0    0  0.67476291093E+02  0.54690454921E+02 -0.26184394111E+03  0.28712019809E+03  0.79571747078E+02 0.  0.
          6    2    1    2  501    0 -0.93074551439E+02 -0.23289332300E+03 -0.10318880510E+03  0.32697164518E+03  0.18264817336E+03 0.  0.
         24    2    5    5    0    0 -0.13705281423E+03 -0.20070524085E+03 -0.80140250669E+02  0.26761268552E+03  0.78281684197E+02 0.  0.
          5    1    5    5  501    0  0.43978262790E+02 -0.32188082147E+02 -0.23048554434E+02  0.59358959659E+02  0.47000000000E+01 0. -1.
        -11    1    6    6    0    0 -0.97124416691E+02 -0.73464603400E+02 -0.33049426504E+02  0.12618424966E+03  0.00000000000E+00 0.  1.
         12    1    6    6    0    0 -0.39928397538E+02 -0.12724063745E+03 -0.47090824166E+02  0.14142843586E+03  0.00000000000E+00 0. -1.
         -5    1    3    3    0  503  0.25598260346E+02  0.17820286808E+03 -0.62454854255E+03  0.64999577316E+03  0.47000000000E+01 0.  1.
         11    1    4    4    0    0  0.63923858080E+02  0.55554445075E+01 -0.18528730907E+03  0.19608291485E+03  0.00000000000E+00 0. -1.
        -12    1    4    4    0    0  0.35524330133E+01  0.49135010414E+02 -0.76556632045E+02  0.91037283235E+02  0.00000000000E+00 0.  1.
</event>
<event>
12    1  0.8133506E-002  0.1782098E+03  0.7818608E-02  0.1171447E+00
         21   -1    0    0  501  502  0.00000000000E+00  0.00000000000E+00  0.58907052936E+02  0.58907052936E+02  0.00000000000E+00 0. -1.
         21   -1    0    0  502  503 -0.00000000000E+00 -0.00000000000E+00 -0.74081699237E+03  0.74081699237E+03  0.00000000000E+00 0. -1.
         -6    2    1    2    0  503  0.37454501730E+02 -0.17771052832E+01 -0.55580843157E+03  0.58141157596E+03  0.16646444140E+03 0.  0.
        -24    2    3    3    0    0 -0.26135238413E+02 -0.16269790851E+02 -0.44077828814E+03  0.44909484654E+03  0.80330100904E+02 0.  0.
          6    2    1    2  501    0 -0.37454501730E+02  0.17771052832E+01 -0.12610150787E+03  0.21831246935E+03  0.17422039543E+03 0.  0.
         24    2    5    5    0    0  0.43518527745E+02 -0.95279533979E+01 -0.90583826734E+02  0.12904863834E+03  0.80395753856E+02 0.  0.
          5    1    5    5  501    0 -0.80973029476E+02  0.11305058681E+02 -0.35517681133E+02  0.89263831014E+02  0.47000000000E+01 0. -1.
        -11    1    6    6    0    0  0.23562616546E+02 -0.39328079030E+02 -0.20293141566E+02  0.50136875584E+02  0.00000000000E+00 0.  1.
         12    1    6    6    0    0  0.19955911199E+02  0.29800125633E+02 -0.70290685168E+02  0.78911762754E+02  0.00000000000E+00 0. -1.
         -5    1    3    3    0  503  0.63589740143E+02  0.14492685568E+02 -0.11503014343E+03  0.13231672942E+03  0.47000000000E+01 0.  1.
         11    1    4    4    0    0  0.19261936746E+02  0.94320354110E+01 -0.26157147892E+03  0.26244927907E+03  0.00000000000E+00 0. -1.
        -12    1    4    4    0    0 -0.45397175158E+02 -0.25701826262E+02 -0.17920680921E+03  0.18664556746E+03  0.00000000000E+00 0.  1.
</event>
<event>
12    1  0.8133506E-002  0.2443203E+03  0.7818608E-02  0.1116986E+00
         21   -1    0    0  501  502  0.00000000000E+00  0.00000000000E+00  0.19959208293E+03  0.19959208293E+03  0.00000000000E+00 0. -1.
         21   -1    0    0  502  503 -0.00000000000E+00 -0.00000000000E+00 -0.30803292518E+03  0.30803292518E+03  0.00000000000E+00 0.  1.
         -6    2    1    2    0  503  0.58841390379E+02 -0.16127345641E+03 -0.98179582249E+02  0.26308936979E+03  0.17350893107E+03 0.  0.
        -24    2    3    3    0    0 -0.30873096740E+01 -0.14053024763E+03 -0.22898559660E+02  0.16331579131E+03  0.79933858139E+02 0.  0.
          6    2    1    2  501    0 -0.58841390379E+02  0.16127345641E+03 -0.10261260002E+02  0.24453563831E+03  0.17384173257E+03 0.  0.
         24    2    5    5    0    0 -0.17614649637E+02  0.17859839721E+03 -0.21345899342E+02  0.19822411755E+03  0.81421680123E+02 0.  0.
          5    1    5    5  501    0 -0.41226740742E+02 -0.17324940794E+02  0.11084639339E+02  0.46311520759E+02  0.47000000000E+01 0. -1.
        -11    1    6    6    0    0  0.29510900448E+02  0.10270476903E+03 -0.20917781609E+02  0.10888855043E+03  0.00000000000E+00 0.  1.
         12    1    6    6    0    0 -0.47125550086E+02  0.75893628174E+02 -0.42811773293E+00  0.89335567122E+02  0.00000000000E+00 0. -1.
         -5    1    3    3    0  503  0.61928700053E+02 -0.20743208781E+02 -0.75281022590E+02  0.99773578481E+02  0.47000000000E+01 0.  1.
         13    1    4    4    0    0 -0.34446702984E+02 -0.93966766557E+02  0.58336140680E+01  0.10025148187E+03  0.00000000000E+00 0. -1.
        -14    1    4    4    0    0  0.31359393310E+02 -0.46563481074E+02 -0.28732173728E+02  0.63064309444E+02  0.00000000000E+00 0.  1.
</event>
<event>
12    1  0.8133506E-002  0.1815857E+03  0.7818608E-02  0.1166609E+00
         21   -1    0    0  503  502  0.00000000000E+00  0.00000000000E+00  0.54246090328E+03  0.54246090328E+03  0.00000000000E+00 0. -1.
         21   -1    0    0  501  503 -0.00000000000E+00 -0.00000000000E+00 -0.12394185067E+03  0.12394185067E+03  0.00000000000E+00 0. -1.
          6    2    1    2  501    0  0.27597536056E+02 -0.50514359769E+02 -0.29849458255E+02  0.18265935608E+03  0.17076336160E+03 0.  0.
         24    2    3    3    0    0 -0.49161630208E+02 -0.40336145943E+02 -0.26316080994E+02  0.10500537745E+03  0.79307771497E+02 0.  0.
         -6    2    1    2    0  502 -0.27597536056E+02  0.50514359769E+02  0.44836851087E+03  0.48374339787E+03  0.17222087244E+03 0.  0.
        -24    2    5    5    0    0  0.13231414219E+02  0.87517224667E+02  0.36102061559E+03  0.38036080745E+03  0.80648149587E+02 0.  0.
          5    1    3    3  501    0  0.76759166264E+02 -0.10178213826E+02 -0.35333772615E+01  0.77653978631E+02  0.47000000000E+01 0. -1.
        -11    1    4    4    0    0 -0.14487373775E+02 -0.40287570585E+02  0.19912965466E+02  0.47217565970E+02  0.00000000000E+00 0.  1.
         12    1    4    4    0    0 -0.34674256433E+02 -0.48575357804E-01 -0.46229046460E+02  0.57787811477E+02  0.00000000000E+00 0. -1.
         -5    1    5    5    0  502 -0.40828950275E+02 -0.37002864898E+02  0.87347895280E+02  0.10338259042E+03  0.47000000000E+01 0.  1.
         11    1    6    6    0    0  0.19700075976E+02 -0.92083621811E+01  0.87763808665E+02  0.90417769486E+02  0.00000000000E+00 0. -1.
        -12    1    6    6    0    0 -0.64686617569E+01  0.96725586848E+02  0.27325680692E+03  0.28994303796E+03  0.00000000000E+00 0.  1.
</event>
<event>
12    1  0.8133506E-002  0.2625914E+03  0.7818608E-02  0.1106346E+00
         21   -1    0    0  503  502  0.00000000000E+00  0.00000000000E+00  0.36074365590E+02  0.36074365590E+02  0.00000000000E+00 0. -1.
         21   -1    0    0  501  503 -0.00000000000E+00 -0.00000000000E+00 -0.18807201083E+04  0.18807201083E+04  0.00000000000E+00 0.  1.
          6    2    1    2  501    0  0.19135449978E+03  0.29422560966E+01 -0.87917508990E+03  0.91755277992E+03  0.17980284699E+03 0.  0.
         24    2    3    3    0    0  0.37019856292E+02  0.42606441035E+02 -0.42929488613E+03  0.44026176022E+03  0.79690273404E+02 0.  0.
         -6    2    1    2    0  502 -0.19135449978E+03 -0.29422560966E+01 -0.96547065283E+03  0.99924169399E+03  0.17240991871E+03 0.  0.
        -24    2    5    5    0    0 -0.75048127061E+02  0.45657865664E+02 -0.34450469013E+03  0.36559355740E+03  0.85195690131E+02 0.  0.
          5    1    3    3  501    0  0.15433464349E+03 -0.39664184938E+02 -0.44988020376E+03  0.47729101970E+03  0.47000000000E+01 0. -1.
        -11    1    4    4    0    0 -0.20562631425E+01 -0.11287797337E+02 -0.22711112859E+03  0.22740076367E+03  0.00000000000E+00 0.  1.
         12    1    4    4    0    0  0.39076119435E+02  0.53894238371E+02 -0.20218375754E+03  0.21286099655E+03  0.00000000000E+00 0. -1.
         -5    1    5    5    0  502 -0.11630637272E+03 -0.48600121761E+02 -0.62096596270E+03  0.63364813659E+03  0.47000000000E+01 0.  1.
         11    1    6    6    0    0 -0.33315774018E+02 -0.22887327652E+02 -0.88230133082E+02  0.97048065149E+02  0.00000000000E+00 0. -1.
        -12    1    6    6    0    0 -0.41732353043E+02  0.68545193316E+02 -0.25627455705E+03  0.26854549225E+03  0.00000000000E+00 0.  1.
</event>
<event>
12    1  0.8133506E-002  0.2316555E+03  0.7818608E-02  0.1125880E+00
         21   -1    0    0  501  502  0.00000000000E+00  0.00000000000E+00  0.20323791143E+04  0.20323791143E+04  0.00000000000E+00 0.  1.
         21   -1    0    0  502  503 -0.00000000000E+00 -0.00000000000E+00 -0.28176765152E+02  0.28176765152E+02  0.00000000000E+00 0.  1.
         -6    2    1    2    0  503  0.43892279457E+01  0.15688593701E+03  0.73005896198E+03  0.76593105249E+03  0.17038728428E+03 0.  0.
        -24    2    3    3    0    0  0.20088138675E+02  0.17170074350E+03  0.50784597579E+03  0.54262266590E+03  0.81530017694E+02 0.  0.
          6    2    1    2  501    0 -0.43892279457E+01 -0.15688593701E+03  0.12741433871E+04  0.12946248269E+04  0.16727106437E+03 0.  0.
         24    2    5    5    0    0 -0.38479802453E+02 -0.77416606523E+02  0.10059829909E+04  0.10128276839E+04  0.79649940134E+02 0.  0.
          5    1    5    5  501    0  0.34090574507E+02 -0.79469330483E+02  0.26816039619E+03  0.28179714307E+03  0.47000000000E+01 0. -1.
        -11    1    6    6    0    0 -0.28085617630E+02 -0.72598255432E+02  0.44698840958E+03  0.45371571155E+03  0.00000000000E+00 0.  1.
         12    1    6    6    0    0 -0.10394184823E+02 -0.48183510903E+01  0.55899458137E+03  0.55911197231E+03  0.00000000000E+00 0. -1.
         -5    1    3    3    0  503 -0.15698910729E+02 -0.14814806496E+02  0.22221298619E+03  0.22330838659E+03  0.47000000000E+01 0.  1.
         11    1    4    4    0    0 -0.27394594864E+02  0.25661572932E+02  0.95850634620E+02  0.10293844913E+03  0.00000000000E+00 0. -1.
        -12    1    4    4    0    0  0.47482733539E+02  0.14603917057E+03  0.41199534117E+03  0.43968421676E+03  0.00000000000E+00 0.  1.
</event>
<event>
12    1  0.8133506E-002  0.1733690E+03  0.7818608E-02  0.1174552E+00
         21   -1    0    0  501  502  0.00000000000E+00  0.00000000000E+00  0.30584985416E+03  0.30584985416E+03  0.00000000000E+00 0.  1.
         21   -1    0    0  502  503 -0.00000000000E+00 -0.00000000000E+00 -0.61140780524E+03  0.61140780524E+03  0.00000000000E+00 0.  1.
         -6    2    1    2    0  503 -0.11379365869E+02  0.14225635785E+02 -0.57314113886E+03  0.59878843687E+03  0.17240930485E+03 0.  0.
        -24    2    3    3    0    0 -0.55082469031E+02 -0.24670931512E+02 -0.22990412826E+03  0.25056919614E+03  0.79286068166E+02 0.  0.
          6    2    1    2  501    0  0.11379365869E+02 -0.14225635785E+02  0.26758318778E+03  0.31846922252E+03  0.17172659849E+03 0.  0.
         24    2    5    5    0    0 -0.30109436764E+02 -0.52155335757E+02  0.22982149670E+03  0.25058683749E+03  0.79681149281E+02 0.  0.
          5    1    5    5  501    0  0.41488802633E+02  0.37929699972E+02  0.37761691085E+02  0.67882385031E+02  0.47000000000E+01 0. -1.
        -11    1    6    6    0    0 -0.34228323223E+01 -0.34455170521E+02  0.21019547848E+03  0.21302819938E+03  0.00000000000E+00 0.  1.
         12    1    6    6    0    0 -0.26686604442E+02 -0.17700165235E+02  0.19626018215E+02  0.37558638114E+02  0.00000000000E+00 0. -1.
         -5    1    3    3    0  503  0.43703103161E+02  0.38896567298E+02 -0.34323701060E+03  0.34821924074E+03  0.47000000000E+01 0.  1.
         11    1    4    4    0    0 -0.14208477181E+01  0.22935860139E+02 -0.27549024181E+02  0.35875078005E+02  0.00000000000E+00 0. -1.
        -12    1    4    4    0    0 -0.53661621313E+02 -0.47606791652E+02 -0.20235510408E+03  0.21469411813E+03  0.00000000000E+00 0.  1.
</event>
<event>
12    1  0.8133506E-002  0.2143959E+03  0.7818608E-02  0.1138195E+00
         21   -1    0    0  503  502  0.00000000000E+00  0.00000000000E+00  0.22925280593E+03  0.22925280593E+03  0.00000000000E+00 0.  1.
         21   -1    0    0  501  503 -0.00000000000E+00 -0.00000000000E+00 -0.29666000513E+03  0.29666000513E+03  0.00000000000E+00 0. -1.
          6    2    1    2  501    0 -0.50643960299E+02  0.11634722196E+03 -0.18363395941E+03  0.28203937498E+03  0.17240444081E+03 0.  0.
         24    2    3    3    0    0 -0.74022840903E+02  0.14216911645E+03 -0.14870793512E+03  0.23248880014E+03  0.79028814846E+02 0.  0.
         -6    2    1    2    0  502  0.50643960299E+02 -0.11634722196E+03  0.11622676021E+03  0.24387343608E+03  0.17281234407E+03 0.  0.
        -24    2    5    5    0    0 -0.34175000072E+02 -0.91440711078E+02  0.67940538733E+02  0.14303574715E+03  0.79460517795E+02 0.  0.
          5    1    3    3  501    0  0.23378880605E+02 -0.25821894487E+02 -0.34926024297E+02  0.49550574835E+02  0.47000000000E+01 0. -1.
        -13    1    4    4    0    0  0.84715716469E+01  0.59528334216E+02 -0.35363202551E+02  0.69756334446E+02  0.00000000000E+00 0.  1.
         14    1    4    4    0    0 -0.82494412550E+02  0.82640782236E+02 -0.11334473257E+03  0.16273246569E+03  0.00000000000E+00 0. -1.
         -5    1    5    5    0  502  0.84818960371E+02 -0.24906510887E+02  0.48286221481E+02  0.10083768893E+03  0.47000000000E+01 0.  1.
         13    1    6    6    0    0 -0.31519125005E+02 -0.13471043198E+02 -0.68579009320E+01  0.34956473665E+02  0.00000000000E+00 0. -1.
        -14    1    6    6    0    0 -0.26558750675E+01 -0.77969667880E+02  0.74798439665E+02  0.10807927349E+03  0.00000000000E+00 0.  1.
</event>
<event>
12    1  0.8133506E-002  0.1804564E+03  0.7818608E-02  0.1167543E+00
         21   -1    0    0  501  502  0.00000000000E+00  0.00000000000E+00  0.71478505598E+03  0.71478505598E+03  0.00000000000E+00 0. -1.
         21   -1    0    0  502  503 -0.00000000000E+00 -0.00000000000E+00 -0.50806293476E+02  0.50806293476E+02  0.00000000000E+00 0. -1.
         -6    2    1    2    0  503  0.18953302860E+01 -0.51499434713E+02  0.45782657148E+03  0.49210738634E+03  0.17294139494E+03 0.  0.
        -24    2    3    3    0    0 -0.43256561760E+01 -0.85648456113E+02  0.43413399506E+03  0.44981927321E+03  0.80688806789E+02 0.  0.
          6    2    1    2  501    0 -0.18953302860E+01  0.51499434713E+02  0.20615219102E+03  0.27348396311E+03  0.17215971702E+03 0.  0.
         24    2    5    5    0    0 -0.48935686614E+02  0.74907057384E+01  0.54255692641E+02  0.10842579285E+03  0.79760016771E+02 0.  0.
          5    1    5    5  501    0  0.47040356328E+02  0.44008728974E+02  0.15189649838E+03  0.16505817026E+03  0.47000000000E+01 0. -1.
        -13    1    6    6    0    0  0.64767927599E+01 -0.20429700398E+02 -0.56640895134E+01  0.22167620820E+02  0.00000000000E+00 0.  1.
         14    1    6    6    0    0 -0.55412479374E+02  0.27920406137E+02  0.59919782155E+02  0.86258172034E+02  0.00000000000E+00 0. -1.
         -5    1    3    3    0  503  0.62209864621E+01  0.34149021400E+02  0.23692576416E+02  0.42288113133E+02  0.47000000000E+01 0.  1.
         11    1    4    4    0    0 -0.31572379636E+02 -0.51189207062E+02  0.34769012712E+03  0.35285347465E+03  0.00000000000E+00 0. -1.
        -12    1    4    4    0    0  0.27246723460E+02 -0.34459249051E+02  0.86443867942E+02  0.96965798554E+02  0.00000000000E+00 0.  1.
</event>
<event>
12    1  0.8133506E-002  0.2615721E+03  0.7818608E-02  0.1106222E+00
         21   -1    0    0  501  502  0.00000000000E+00  0.00000000000E+00  0.61514385055E+03  0.61514385055E+03  0.00000000000E+00 0. -1.
         21   -1    0    0  502  503 -0.00000000000E+00 -0.00000000000E+00 -0.14261929796E+03  0.14261929796E+03  0.00000000000E+00 0. -1.
         -6    2    1    2    0  503 -0.46461360842E+02  0.19139378312E+03  0.58299311329E+02  0.26786265223E+03  0.17193415161E+03 0.  0.
        -24    2    3    3    0    0  0.31447577045E+02  0.59287296991E+02  0.27552922784E+02  0.11137189631E+03  0.84502083093E+02 0.  0.
          6    2    1    2  501    0  0.46461360842E+02 -0.19139378312E+03  0.41422524126E+03  0.48990049628E+03  0.17213281932E+03 0.  0.
         24    2    5    5    0    0  0.51401472001E+02 -0.62797165758E+02  0.10644087005E+03  0.15626176372E+03  0.80637985061E+02 0.  0.
          5    1    5    5  501    0 -0.49401111580E+01 -0.12859661737E+03  0.30778437122E+03  0.33363873256E+03  0.47000000000E+01 0. -1.
        -13    1    6    6    0    0  0.57217016319E+02 -0.90943631128E+01  0.71081334709E+02  0.91700875355E+02  0.00000000000E+00 0.  1.
         14    1    6    6    0    0 -0.58155443183E+01 -0.53702802645E+02  0.35359535337E+02  0.64560888368E+02  0.00000000000E+00 0. -1.
         -5    1    3    3    0  503 -0.77908937887E+02  0.13210648613E+03  0.30746388545E+02  0.15649075592E+03  0.47000000000E+01 0.  1.
         11    1    4    4    0    0  0.77304679212E+01  0.54091556473E+02  0.53054581454E+02  0.76160654075E+02  0.00000000000E+00 0. -1.
        -12    1    4    4    0    0  0.23717109124E+02  0.51957405187E+01 -0.25501658670E+02  0.35211242234E+02  0.00000000000E+00 0.  1.
</event>
<event>
12    1  0.8133506E-002  0.2378870E+03  0.7818608E-02  0.1121290E+00
         21   -1    0    0  503  502  0.00000000000E+00  0.00000000000E+00  0.36088591836E+02  0.36088591836E+02  0.00000000000E+00 0. -1.
         21   -1    0    0  501  503 -0.00000000000E+00 -0.00000000000E+00 -0.15941274689E+04  0.15941274689E+04  0.00000000000E+00 0.  1.
          6    2    1    2  501    0  0.50141686167E+02 -0.15622885480E+03 -0.88857824390E+03  0.91974594782E+03  0.17157992084E+03 0.  0.
         24    2    3    3    0    0  0.41807027057E+01 -0.16998332221E+03 -0.74397178281E+03  0.76731656757E+03  0.79805345331E+02 0.  0.
         -6    2    1    2    0  502 -0.50141686167E+02  0.15622885480E+03 -0.66946063312E+03  0.71047011287E+03  0.17224574951E+03 0.  0.
        -24    2    5    5    0    0 -0.59558704253E+02  0.18411113331E+03 -0.57343807416E+03  0.60992895954E+03  0.75749337475E+02 0.  0.
          5    1    3    3  501    0  0.45960983462E+02  0.13754467412E+02 -0.14460646110E+03  0.15242938026E+03  0.47000000000E+01 0. -1.
        -11    1    4    4    0    0 -0.26229646260E+02 -0.79448485095E+02 -0.46453918483E+03  0.47201346418E+03  0.00000000000E+00 0.  1.
         12    1    4    4    0    0  0.30410348966E+02 -0.90534837120E+02 -0.27943259798E+03  0.29530310339E+03  0.00000000000E+00 0. -1.
         -5    1    5    5    0  502  0.94170180854E+01 -0.27882278507E+02 -0.96022558957E+02  0.10054115333E+03  0.47000000000E+01 0.  1.
         13    1    6    6    0    0 -0.25156885478E+02  0.69429291591E+02 -0.11958466014E+03  0.14054816384E+03  0.00000000000E+00 0. -1.
        -14    1    6    6    0    0 -0.34401818774E+02  0.11468184172E+03 -0.45385341402E+03  0.46938079570E+03  0.00000000000E+00 0.  1.
</event>
<event>
12    1  0.8133506E-002  0.1953177E+03  0.7818608E-02  0.1153913E+00
         21   -1    0    0  503  502  0.00000000000E+00  0.00000000000E+00  0.37399823630E+02  0.37399823630E+02  0.00000000000E+00 0.  1.
         21   -1    0    0  501  503 -0.00000000000E+00 -0.00000000000E+00 -0.11062935257E+04  0.11062935257E+04  0.00000000000E+00 0. -1.
          6    2    1    2  501    0  0.35491320544E+02 -0.84020923130E+02 -0.69673907907E+03  0.72339811896E+03  0.17187304863E+03 0.  0.
         24    2    3    3    0    0  0.82107327028E+02 -0.71906400172E+02 -0.60146502120E+03  0.61653816467E+03  0.80293170486E+02 0.  0.
         -6    2    1    2    0  502 -0.35491320544E+02  0.84020923130E+02 -0.37215462304E+03  0.42029523042E+03  0.17271325341E+03 0.  0.
        -24    2    5    5    0    0 -0.18674373950E+01  0.11514074022E+03 -0.33001787787E+03  0.35787244750E+03  0.76811532910E+02 0.  0.
          5    1    3    3  501    0 -0.46616006484E+02 -0.12114522959E+02 -0.95274057874E+02  0.10685995429E+03  0.47000000000E+01 0. -1.
        -13    1    4    4    0    0  0.42826767662E+02 -0.34048295138E+02 -0.11872215895E+03  0.13072249025E+03  0.00000000000E+00 0.  1.
         14    1    4    4    0    0  0.39280559366E+02 -0.37858105034E+02 -0.48274286225E+03  0.48581567442E+03  0.00000000000E+00 0. -1.
         -5    1    5    5    0  502 -0.33623883149E+02 -0.31119817085E+02 -0.42136745172E+02  0.62422782917E+02  0.47000000000E+01 0.  1.
         11    1    6    6    0    0  0.11541817787E+02  0.64660644060E+02 -0.85383503868E+02  0.10772444096E+03  0.00000000000E+00 0. -1.
        -12    1    6    6    0    0 -0.13409255182E+02  0.50480096156E+02 -0.24463437400E+03  0.25014800654E+03  0.00000000000E+00 0.  1.
</event>
<event>
12    1  0.8133506E-002  0.4418302E+03  0.7818608E-02  0.1030195E+00
         21   -1    0    0  501  502  0.00000000000E+00  0.00000000000E+00  0.42297499895E+03  0.42297499895E+03  0.00000000000E+00 0. -1.
         21   -1    0    0  502  503 -0.00000000000E+00 -0.00000000000E+00 -0.46154246470E+03  0.46154246470E+03  0.00000000000E+00 0.  1.
         -6    2    1    2    0  503 -0.37104934299E+03  0.16651694966E+03 -0.26719959728E+02  0.44252846372E+03  0.17237162033E+03 0.  0.
        -24    2    3    3    0    0 -0.36841366202E+03  0.16567264517E+03  0.36233698922E+01  0.41169881376E+03  0.79414940161E+02 0.  0.
          6    2    1    2  501    0  0.37104934299E+03 -0.16651694966E+03 -0.11847506021E+02  0.44198899993E+03  0.17265110251E+03 0.  0.
         24    2    5    5    0    0  0.17955370808E+03 -0.15318336905E+03 -0.56452322425E+01  0.24987205439E+03  0.81850450686E+02 0.  0.
          5    1    5    5  501    0  0.19149563492E+03 -0.13333580607E+02 -0.62022737788E+01  0.19211694554E+03  0.47000000000E+01 0. -1.
        -13    1    6    6    0    0  0.13149232426E+03 -0.11945766418E+03 -0.39648025540E+02  0.18202288537E+03  0.00000000000E+00 0.  1.
         14    1    6    6    0    0  0.48061383818E+02 -0.33725704869E+02  0.34002793297E+02  0.67849169011E+02  0.00000000000E+00 0. -1.
         -5    1    3    3    0  503 -0.26356809752E+01  0.84430448363E+00 -0.30343329620E+02  0.30829649961E+02  0.47000000000E+01 0.  1.
         13    1    4    4    0    0 -0.13941454823E+03  0.61402454480E+02  0.39901902064E+02  0.15747647273E+03  0.00000000000E+00 0. -1.
        -14    1    4    4    0    0 -0.22899911379E+03  0.10427019069E+03 -0.36278532172E+02  0.25422234103E+03  0.00000000000E+00 0.  1.
</event>
<event>
12    1  0.8133506E-002  0.2036466E+03  0.7818608E-02  0.1146735E+00
         21   -1    0    0  501  502  0.00000000000E+00  0.00000000000E+00  0.18775757056E+03  0.18775757056E+03  0.00000000000E+00 0.  1.
         21   -1    0    0  502  503 -0.00000000000E+00 -0.00000000000E+00 -0.22683109680E+03  0.22683109680E+03  0.00000000000E+00 0. -1.
         -6    2    1    2    0  503  0.10812340898E+03 -0.16434008962E+01  0.14592004867E+02  0.20398973557E+03  0.17235287429E+03 0.  0.
        -24    2    3    3    0    0  0.58075295988E+02 -0.20514248319E+02 -0.55703296652E+02  0.11553386006E+03  0.80322108876E+02 0.  0.
          6    2    1    2  501    0 -0.10812340898E+03  0.16434008962E+01 -0.53665531111E+02  0.21059893179E+03  0.17256462125E+03 0.  0.
         24    2    5    5    0    0 -0.13096036600E+03  0.29987707759E+02 -0.14459347817E+02  0.15689473134E+03  0.79730821531E+02 0.  0.
          5    1    5    5  501    0  0.22836957029E+02 -0.28344306863E+02 -0.39206183294E+02  0.53704200453E+02  0.47000000000E+01 0. -1.
        -13    1    6    6    0    0 -0.44540582163E+02  0.33871353990E+02  0.25633627037E+02  0.61548476143E+02  0.00000000000E+00 0.  1.
         14    1    6    6    0    0 -0.86419783841E+02 -0.38836462308E+01 -0.40092974853E+02  0.95346255196E+02  0.00000000000E+00 0. -1.
         -5    1    3    3    0  503  0.50048112987E+02  0.18870847423E+02  0.70295301519E+02  0.88455875507E+02  0.47000000000E+01 0.  1.
         11    1    4    4    0    0 -0.21369287422E+01  0.24081722182E+02 -0.24338587305E+02  0.34305431636E+02  0.00000000000E+00 0. -1.
        -12    1    4    4    0    0  0.60212224730E+02 -0.44595970501E+02 -0.31364709347E+02  0.81228428425E+02  0.00000000000E+00 0.  1.
</event>
<event>
12    1  0.8133506E-002  0.1944319E+03  0.7818608E-02  0.1155156E+00
         21   -1    0    0  501  502  0.00000000000E+00  0.00000000000E+00  0.13457004357E+03  0.13457004357E+03  0.00000000000E+00 0.  1.
         21   -1    0    0  502  503 -0.00000000000E+00 -0.00000000000E+00 -0.32996100287E+03  0.32996100287E+03  0.00000000000E+00 0.  1.
         -6    2    1    2    0  503 -0.84133858154E+02 -0.35775689979E+01 -0.19031775543E+03  0.27003300693E+03  0.17206298763E+03 0.  0.
        -24    2    3    3    0    0 -0.11509228885E+02  0.17935466435E+02 -0.11904258610E+02  0.76150018208E+02  0.72131619933E+02 0.  0.
          6    2    1    2  501    0  0.84133858154E+02  0.35775689979E+01 -0.50732038692E+01  0.19449803951E+03  0.17524966445E+03 0.  0.
         24    2    5    5    0    0  0.60088144851E+02 -0.41525278879E+02  0.49700929984E+02  0.11943300801E+03  0.80368694300E+02 0.  0.
          5    1    5    5  501    0  0.24045713303E+02  0.45102847877E+02 -0.54774133853E+02  0.75065031501E+02  0.47000000000E+01 0. -1.
        -13    1    6    6    0    0  0.38102652719E+02 -0.64044185550E+02  0.22523901768E+02  0.77851114301E+02  0.00000000000E+00 0.  1.
         14    1    6    6    0    0  0.21985492132E+02  0.22518906670E+02  0.27177028215E+02  0.41581893710E+02  0.00000000000E+00 0. -1.
         -5    1    3    3    0  503 -0.72624629269E+02 -0.21513035433E+02 -0.17841349682E+03  0.19388298872E+03  0.47000000000E+01 0.  1.
         11    1    4    4    0    0 -0.37561225238E+02 -0.23677429809E+01  0.67212104617E+01  0.38231224389E+02  0.00000000000E+00 0. -1.
        -12    1    4    4    0    0  0.26051996353E+02  0.20303209416E+02 -0.18625469072E+02  0.37918793819E+02  0.00000000000E+00 0.  1.
</event>
<event>
12    1  0.8133506E-002  0.2531983E+03  0.7818608E-02  0.1111350E+00
         21   -1    0    0  501  502  0.00000000000E+00  0.00000000000E+00  0.34864256035E+03  0.34864256035E+03  0.00000000000E+00 0.  1.
         21   -1    0    0  502  503 -0.00000000000E+00 -0.00000000000E+00 -0.26985004665E+03  0.26985004665E+03  0.00000000000E+00 0. -1.
         -6    2    1    2    0  503 -0.96180401268E+01  0.18529972389E+03 -0.13540207222E+03  0.28684716290E+03  0.17181117348E+03 0.  0.
        -24    2    3    3    0    0 -0.59144478249E+02  0.58240319724E+02 -0.47487669455E+02  0.12452651580E+03  0.79760706110E+02 0.  0.
          6    2    1    2  501    0  0.96180401268E+01 -0.18529972389E+03  0.21419458591E+03  0.33164544410E+03  0.17228141394E+03 0.  0.
         24    2    5    5    0    0  0.75139975653E+01 -0.16639172780E+03  0.88624017394E+02  0.20455493702E+03  0.79030617875E+02 0.  0.
          5    1    5    5  501    0  0.21040425615E+01 -0.18907996089E+02  0.12557056852E+03  0.12709050708E+03  0.47000000000E+01 0. -1.
        -13    1    6    6    0    0 -0.28650473982E+02 -0.12689784341E+03  0.54436828705E+02  0.14102227001E+03  0.00000000000E+00 0.  1.
         14    1    6    6    0    0  0.36164471547E+02 -0.39493884394E+02  0.34187188690E+02  0.63532667010E+02  0.00000000000E+00 0. -1.
         -5    1    3    3    0  503  0.49526438122E+02  0.12705940416E+03 -0.87914402765E+02  0.16232064709E+03  0.47000000000E+01 0.  1.
         13    1    4    4    0    0 -0.54796286620E+02  0.48142789160E+02 -0.68975747315E+02  0.10038931663E+03  0.00000000000E+00 0. -1.
        -14    1    4    4    0    0 -0.43481916291E+01  0.10097530564E+02  0.21488077860E+02  0.24137199176E+02  0.00000000000E+00 0.  1.
</event>
<event>
12    1  0.8133506E-002  0.1870943E+03  0.7818608E-02  0.1161377E+00
         21   -1    0    0  501  502  0.00000000000E+00  0.00000000000E+00  0.36978186553E+03  0.36978186553E+03  0.00000000000E+00 0. -1.
         21   -1    0    0  502  503 -0.00000000000E+00 -0.00000000000E+00 -0.26621076713E+03  0.26621076713E+03  0.00000000000E+00 0. -1.
         -6    2    1    2    0  503  0.89806910228E+01 -0.70042710627E+02 -0.20386588973E+03  0.27670483797E+03  0.17325597316E+03 0.  0.
        -24    2    3    3    0    0  0.22757086891E+02 -0.11415760678E+03 -0.15164908796E+03  0.20681494218E+03  0.78899494561E+02 0.  0.
          6    2    1    2  501    0 -0.89806910228E+01  0.70042710627E+02  0.30743698814E+03  0.35928779469E+03  0.17199878959E+03 0.  0.
         24    2    5    5    0    0 -0.29021079899E+02 -0.77374662995E+01  0.15239823654E+03  0.18461530801E+03  0.99777241829E+02 0.  0.
          5    1    5    5  501    0  0.20040388876E+02  0.77780176926E+02  0.15503875159E+03  0.17467248668E+03  0.47000000000E+01 0. -1.
        -13    1    6    6    0    0 -0.39047815596E+02  0.26282907050E+02  0.26926069807E+02  0.54226712431E+02  0.00000000000E+00 0.  1.
         14    1    6    6    0    0  0.10026735697E+02 -0.34020373350E+02  0.12547216674E+03  0.13038859558E+03  0.00000000000E+00 0. -1.
         -5    1    3    3    0  503 -0.13776395868E+02  0.44114896152E+02 -0.52216801770E+02  0.69889895784E+02  0.47000000000E+01 0.  1.
         11    1    4    4    0    0 -0.11001921235E+01 -0.32722459340E+02 -0.10498700550E+03  0.10997382003E+03  0.00000000000E+00 0. -1.
        -12    1    4    4    0    0  0.23857279014E+02 -0.81435147439E+02 -0.46662082456E+02  0.96841122151E+02  0.00000000000E+00 0.  1.
</event>
<event>
12    1  0.8133506E-002  0.2455147E+03  0.7818608E-02  0.1116451E+00
         21   -1    0    0  501  502  0.00000000000E+00  0.00000000000E+00  0.11075296420E+03  0.11075296420E+03  0.00000000000E+00 0. -1.
         21   -1    0    0  502  503 -0.00000000000E+00 -0.00000000000E+00 -0.15418108713E+04  0.15418108713E+04  0.00000000000E+00 0.  1.
         -6    2    1    2    0  503  0.17203462892E+03 -0.34109058883E+02 -0.13823057104E+04  0.14039396443E+04  0.17180834150E+03 0.  0.
        -24    2    3    3    0    0  0.14667059620E+03 -0.56529936362E+02 -0.73670558839E+03  0.75743547762E+03  0.79154793338E+02 0.  0.
          6    2    1    2  501    0 -0.17203462892E+03  0.34109058883E+02 -0.48752196643E+02  0.24862419120E+03  0.16934541720E+03 0.  0.
         24    2    5    5    0    0 -0.34096587117E+02  0.50826955233E+02 -0.40797362795E+02  0.10936988851E+03  0.80940663889E+02 0.  0.
          5    1    5    5  501    0 -0.13793804180E+03 -0.16717896350E+02 -0.79548338478E+01  0.13925430269E+03  0.47000000000E+01 0. -1.
        -13    1    6    6    0    0 -0.45148464317E+02  0.23132107831E+02 -0.56282102451E+02  0.75770398568E+02  0.00000000000E+00 0.  1.
         14    1    6    6    0    0  0.11051877201E+02  0.27694847402E+02  0.15484739656E+02  0.33599489944E+02  0.00000000000E+00 0. -1.
         -5    1    3    3    0  503  0.25364032716E+02  0.22420877478E+02 -0.64560012205E+03  0.64650416664E+03  0.47000000000E+01 0.  1.
         11    1    4    4    0    0  0.36945553822E+02 -0.46924581781E+02 -0.17160636258E+03  0.18170204732E+03  0.00000000000E+00 0. -1.
        -12    1    4    4    0    0  0.10972504238E+03 -0.96053545809E+01 -0.56509922581E+03  0.57573343031E+03  0.00000000000E+00 0.  1.
</event>
<event>
12    1  0.8133506E-002  0.2105069E+03  0.7818608E-02  0.1141194E+00
         21   -1    0    0  503  502  0.00000000000E+00  0.00000000000E+00  0.18445850947E+03  0.18445850947E+03  0.00000000000E+00 0.  1.
         21   -1    0    0  501  503 -0.00000000000E+00 -0.00000000000E+00 -0.49679913382E+03  0.49679913382E+03  0.00000000000E+00 0. -1.
          6    2    1    2  501    0  0.15776210493E+02 -0.12026574665E+03 -0.40106414406E+03  0.45295208595E+03  0.17204768492E+03 0.  0.
         24    2    3    3    0    0 -0.48910474796E+02 -0.81686060468E+02 -0.18157766000E+03  0.22085476558E+03  0.82106844107E+02 0.  0.
         -6    2    1    2    0  502 -0.15776210493E+02  0.12026574665E+03  0.88723519707E+02  0.22830555733E+03  0.17186862985E+03 0.  0.
        -24    2    5    5    0    0  0.60530534128E-01  0.14461841684E+03  0.38061835747E+02  0.16971757961E+03  0.80254989471E+02 0.  0.
          5    1    3    3  501    0  0.64686685290E+02 -0.38579686184E+02 -0.21948648406E+03  0.23209732038E+03  0.47000000000E+01 0. -1.
        -13    1    4    4    0    0  0.20287988724E+02 -0.39534894501E+02 -0.57614587944E+02  0.72760230302E+02  0.00000000000E+00 0.  1.
         14    1    4    4    0    0 -0.69198463520E+02 -0.42151165967E+02 -0.12396307205E+03  0.14809453528E+03  0.00000000000E+00 0. -1.
         -5    1    5    5    0  502 -0.15836741027E+02 -0.24352670191E+02  0.50661683960E+02  0.58587977722E+02  0.47000000000E+01 0.  1.
         13    1    6    6    0    0 -0.17977255630E+02  0.62415043376E+02 -0.19429254636E+02  0.67796130386E+02  0.00000000000E+00 0. -1.
        -14    1    6    6    0    0  0.18037786164E+02  0.82203373468E+02  0.57491090383E+02  0.10192144923E+03  0.00000000000E+00 0.  1.
</event>
<event>
12    1  0.8133506E-002  0.1845787E+03  0.7818608E-02  0.1163981E+00
         21   -1    0    0  503  502  0.00000000000E+00  0.00000000000E+00  0.19505400128E+03  0.19505400128E+03  0.00000000000E+00 0.  1.
         21   -1    0    0  501  503 -0.00000000000E+00 -0.00000000000E+00 -0.17494111421E+03  0.17494111421E+03  0.00000000000E+00 0.  1.
          6    2    1    2  501    0 -0.51793937842E+02  0.15369601364E+02 -0.11781686640E+02  0.18268100787E+03  0.17411118819E+03 0.  0.
         24    2    3    3    0    0 -0.96789749400E+02 -0.16645112775E+02 -0.24824970933E+01  0.12648376679E+03  0.79665959486E+02 0.  0.
         -6    2    1    2    0  502  0.51793937842E+02 -0.15369601364E+02  0.31894573700E+02  0.18731410762E+03  0.17649497001E+03 0.  0.
        -24    2    5    5    0    0  0.14144882891E+02 -0.14046346511E+02 -0.48849433027E+02  0.98090304939E+02  0.82692582821E+02 0.  0.
          5    1    3    3  501    0  0.44995811557E+02  0.32014714139E+02 -0.92991895463E+01  0.56197241083E+02  0.47000000000E+01 0. -1.
        -11    1    4    4    0    0 -0.60536528204E+02 -0.25991973554E+02 -0.37001281428E+02  0.75560232686E+02  0.00000000000E+00 0.  1.
         12    1    4    4    0    0 -0.36253221196E+02  0.93468607784E+01  0.34518784335E+02  0.50923534102E+02  0.00000000000E+00 0. -1.
         -5    1    5    5    0  502  0.37649054952E+02 -0.13232548522E+01  0.80744006728E+02  0.89223802680E+02  0.47000000000E+01 0.  1.
         11    1    6    6    0    0 -0.33201872418E+02  0.35294895468E+01 -0.27514422178E+02  0.43265055835E+02  0.00000000000E+00 0. -1.
        -12    1    6    6    0    0  0.47346755309E+02 -0.17575836058E+02 -0.21335010849E+02  0.54825249105E+02  0.00000000000E+00 0.  1.
</event>
<event>
12    1  0.8133506E-002  0.1867334E+03  0.7818608E-02  0.1162371E+00
         21   -1    0    0  503  502  0.00000000000E+00  0.00000000000E+00  0.51295455353E+02  0.51295455353E+02  0.00000000000E+00 0.  1.
         21   -1    0    0  501  503 -0.00000000000E+00 -0.00000000000E+00 -0.67346841708E+03  0.67346841708E+03  0.00000000000E+00 0.  1.
          6    2    1    2  501    0 -0.70595216910E+02 -0.15813687626E+02 -0.27459160804E+03  0.33206912546E+03  0.17214992163E+03 0.  0.
         24    2    3    3    0    0 -0.25808105869E+02  0.42714764511E+01 -0.41817703348E+02  0.94129889870E+02  0.80171142028E+02 0.  0.
         -6    2    1    2    0  502  0.70595216910E+02  0.15813687626E+02 -0.34758135369E+03  0.39269474696E+03  0.16781719070E+03 0.  0.
        -24    2    5    5    0    0  0.29015689573E+02 -0.37935568838E+02 -0.28658706918E+03  0.30126044045E+03  0.79653544423E+02 0.  0.
          5    1    3    3  501    0 -0.44787111041E+02 -0.20085164077E+02 -0.23277390469E+03  0.23793923559E+03  0.47000000000E+01 0. -1.
        -13    1    4    4    0    0  0.13412626831E+02  0.16877974270E+02 -0.47860762712E+02  0.52492067794E+02  0.00000000000E+00 0.  1.
         14    1    4    4    0    0 -0.39220732699E+02 -0.12606497819E+02  0.60430593637E+01  0.41637822076E+02  0.00000000000E+00 0. -1.
         -5    1    5    5    0  502  0.41579527337E+02  0.53749256464E+02 -0.60994284510E+02  0.91434306510E+02  0.47000000000E+01 0.  1.
         13    1    6    6    0    0  0.64805250572E+01  0.17721943795E+02 -0.16049924753E+03  0.16160468111E+03  0.00000000000E+00 0. -1.
        -14    1    6    6    0    0  0.22535164516E+02 -0.55657512633E+02 -0.12608782164E+03  0.13965575935E+03  0.00000000000E+00 0.  1.
</event>
<event>
12    1  0.8133506E-002  0.3266514E+03  0.7818608E-02  0.1072838E+00
         21   -1    0    0  501  502  0.00000000000E+00  0.00000000000E+00  0.14044343694E+03  0.14044343694E+03  0.00000000000E+00 0. -1.
         21   -1    0    0  502  503 -0.00000000000E+00 -0.00000000000E+00 -0.89396513980E+03  0.89396513980E+03  0.00000000000E+00 0. -1.
         -6    2    1    2    0  503 -0.24510339948E+02 -0.27655435368E+03 -0.57946001898E+03  0.66427537621E+03  0.16853722003E+03 0.  0.
        -24    2    3    3    0    0  0.43297775540E+02 -0.17985445553E+03 -0.41804401880E+03  0.46421032193E+03  0.80672788426E+02 0.  0.
          6    2    1    2  501    0  0.24510339948E+02  0.27655435368E+03 -0.17406168388E+03  0.37013320053E+03  0.17209895129E+03 0.  0.
         24    2    5    5    0    0  0.77651867030E+02  0.21528559168E+03 -0.10970205168E+03  0.26648892739E+03  0.81265674423E+02 0.  0.
          5    1    5    5  501    0 -0.53141527082E+02  0.61268761995E+02 -0.64359632202E+02  0.10364427314E+03  0.47000000000E+01 0. -1.
        -13    1    6    6    0    0  0.59223902398E+01 -0.63597674117E+01 -0.95440539941E+01  0.12907761786E+02  0.00000000000E+00 0.  1.
         14    1    6    6    0    0  0.71729476790E+02  0.22164535910E+03 -0.10015799768E+03  0.25358116560E+03  0.00000000000E+00 0. -1.
         -5    1    3    3    0  503 -0.67808115488E+02 -0.96699898148E+02 -0.16141600018E+03  0.20006505428E+03  0.47000000000E+01 0.  1.
         11    1    4    4    0    0  0.13474006975E+02 -0.53274301243E+02 -0.22383408424E+03  0.23048079596E+03  0.00000000000E+00 0. -1.
        -12    1    4    4    0    0  0.29823768566E+02 -0.12658015429E+03 -0.19420993456E+03  0.23372952597E+03  0.00000000000E+00 0.  1.
</event>
<event>
12    1  0.8133506E-002  0.1832742E+03  0.7818608E-02  0.1164686E+00
         21   -1    0    0  503  502  0.00000000000E+00  0.00000000000E+00  0.33200936621E+02  0.33200936621E+02  0.00000000000E+00 0.  1.
         21   -1    0    0  501  503 -0.00000000000E+00 -0.00000000000E+00 -0.13155862632E+04  0.13155862632E+04  0.00000000000E+00 0.  1.
          6    2    1    2  501    0  0.39849424987E+02 -0.55832421752E+02 -0.96541541925E+03  0.98264603529E+03  0.16988544065E+03 0.  0.
         24    2    3    3    0    0  0.67198041280E+02 -0.20450617027E+02 -0.35454656741E+03  0.37012447398E+03  0.79718588082E+02 0.  0.
         -6    2    1    2    0  502 -0.39849424987E+02  0.55832421752E+02 -0.31696990735E+03  0.36614116456E+03  0.16995350607E+03 0.  0.
        -24    2    5    5    0    0 -0.27393324080E+02  0.11583353919E+02 -0.30735190758E+03  0.31894232587E+03  0.79840114251E+02 0.  0.
          5    1    3    3  501    0 -0.27348616293E+02 -0.35381804725E+02 -0.61086885184E+03  0.61252156131E+03  0.47000000000E+01 0. -1.
        -11    1    4    4    0    0  0.40116437252E+02 -0.12543293002E+02 -0.33018491476E+03  0.33284942643E+03  0.00000000000E+00 0.  1.
         12    1    4    4    0    0  0.27081604029E+02 -0.79073240253E+01 -0.24361652647E+02  0.37275047548E+02  0.00000000000E+00 0. -1.
         -5    1    5    5    0  502 -0.12456100906E+02  0.44249067833E+02 -0.96179997662E+01  0.47198838687E+02  0.47000000000E+01 0.  1.
         13    1    6    6    0    0 -0.26932018217E+02 -0.31864855136E+02 -0.14651151619E+03  0.15233623001E+03  0.00000000000E+00 0. -1.
        -14    1    6    6    0    0 -0.46130586318E+00  0.43448209055E+02 -0.16084039139E+03  0.16660609586E+03  0.00000000000E+00 0.  1.
</event>
<event>
12    1  0.8133506E-002  0.2279785E+03  0.7818608E-02  0.1129318E+00
         21   -1    0    0  503  502  0.00000000000E+00  0.00000000000E+00  0.77545460726E+02  0.77545460726E+02  0.00000000000E+00 0. -1.
         21   -1    0    0  501  503 -0.00000000000E+00 -0.00000000000E+00 -0.27070913919E+04  0.27070913919E+04  0.00000000000E+00 0.  1.
          6    2    1    2  501    0  0.13711963619E+03  0.22404118748E+02 -0.25235604349E+04  0.25332265562E+04  0.17197609458E+03 0.  0.
         24    2    3    3    0    0  0.18964105237E+02 -0.13441361094E+02 -0.57268392908E+03  0.57844092626E+03  0.78017402368E+02 0.  0.
         -6    2    1    2    0  502 -0.13711963619E+03 -0.22404118748E+02 -0.10598549630E+03  0.25141029648E+03  0.18074975128E+03 0.  0.
        -24    2    5    5    0    0 -0.14717541815E+03 -0.59025254619E+02 -0.52659885273E+02  0.18577541906E+03  0.81208733633E+02 0.  0.
          5    1    3    3  501    0  0.11815553095E+03  0.35845479842E+02 -0.19508765058E+04  0.19547856299E+04  0.47000000000E+01 0. -1.
        -13    1    4    4    0    0  0.32600108255E+02  0.19863505667E+02 -0.17413029962E+03  0.17826577675E+03  0.00000000000E+00 0.  1.
         14    1    4    4    0    0 -0.13636003018E+02 -0.33304866762E+02 -0.39855362946E+03  0.40017514951E+03  0.00000000000E+00 0. -1.
         -5    1    5    5    0  502  0.10055781962E+02  0.36621135872E+02 -0.53325611024E+02  0.65634877424E+02  0.47000000000E+01 0.  1.
         13    1    6    6    0    0 -0.94433833851E+02 -0.37865283454E+01 -0.55032003564E+02  0.10936456551E+03  0.00000000000E+00 0. -1.
        -14    1    6    6    0    0 -0.52741584302E+02 -0.55238726274E+02  0.23721182914E+01  0.76410853550E+02  0.00000000000E+00 0.  1.
</event>
<event>
12    1  0.8133506E-002  0.1957485E+03  0.7818608E-02  0.1153378E+00
         21   -1    0    0  501  502  0.00000000000E+00  0.00000000000E+00  0.26169847226E+03  0.26169847226E+03  0.00000000000E+00 0.  1.
         21   -1    0    0  502  503 -0.00000000000E+00 -0.00000000000E+00 -0.32284160236E+03  0.32284160236E+03  0.00000000000E+00 0.  1.
         -6    2    1    2    0  503  0.90972859790E+02 -0.25530969340E+02 -0.24663079837E+03  0.31486775067E+03  0.17142653846E+03 0.  0.
        -24    2    3    3    0    0  0.60848536787E+00 -0.34344405715E+02 -0.19681655931E+03  0.21120027631E+03  0.68475471798E+02 0.  0.
          6    2    1    2  501    0 -0.90972859790E+02  0.25530969340E+02  0.18548766827E+03  0.26967232394E+03  0.17143393948E+03 0.  0.
         24    2    5    5    0    0 -0.89164393024E+02  0.74984437041E+02  0.11258171961E+03  0.18143240457E+03  0.81670796845E+02 0.  0.
          5    1    5    5  501    0 -0.18084667664E+01 -0.49453467701E+02  0.72905948663E+02  0.88239919368E+02  0.47000000000E+01 0. -1.
        -11    1    6    6    0    0 -0.10105891764E+03  0.68613044102E+02  0.79599934150E+02  0.14579713362E+03  0.00000000000E+00 0.  1.
         12    1    6    6    0    0  0.11894524614E+02  0.63713929387E+01  0.32981785462E+02  0.35635270955E+02  0.00000000000E+00 0. -1.
         -5    1    3    3    0  503  0.90364374423E+02  0.88134363754E+01 -0.49814239067E+02  0.10366747436E+03  0.47000000000E+01 0.  1.
         13    1    4    4    0    0  0.90128166631E+01 -0.28516342903E+02 -0.19858224009E+03  0.20082160928E+03  0.00000000000E+00 0. -1.
        -14    1    4    4    0    0 -0.84043312953E+01 -0.58280628120E+01  0.17656807803E+01  0.10378667028E+02  0.00000000000E+00 0.  1.
</event>
<event>
12    1  0.8133506E-002  0.3026188E+03  0.7818608E-02  0.1083958E+00
         21   -1    0    0  501  502  0.00000000000E+00  0.00000000000E+00  0.85916618466E+02  0.85916618466E+02  0.00000000000E+00 0. -1.
         21   -1    0    0  502  503 -0.00000000000E+00 -0.00000000000E+00 -0.15900792804E+04  0.15900792804E+04  0.00000000000E+00 0.  1.
         -6    2    1    2    0  503  0.94210916945E+02  0.23032768000E+03 -0.12336041068E+04  0.12701800081E+04  0.17219646833E+03 0.  0.
        -24    2    3    3    0    0  0.46390219744E+02  0.32195029485E+02 -0.45542401149E+03  0.46573627671E+03  0.79439768355E+02 0.  0.
          6    2    1    2  501    0 -0.94210916945E+02 -0.23032768000E+03 -0.27055855522E+03  0.40581589082E+03  0.17192460089E+03 0.  0.
         24    2    5    5    0    0 -0.76155964544E-01 -0.12626580024E+03 -0.86463058182E+02  0.17429165867E+03  0.83418605476E+02 0.  0.
          5    1    5    5  501    0 -0.94134760981E+02 -0.10406187976E+03 -0.18409549704E+03  0.23152423215E+03  0.47000000000E+01 0. -1.
        -13    1    6    6    0    0  0.64113862185E+01 -0.96881087239E+02 -0.16972540376E+02  0.98565298481E+02  0.00000000000E+00 0.  1.
         14    1    6    6    0    0 -0.64875421830E+01 -0.29384713004E+02 -0.69490517806E+02  0.75726360185E+02  0.00000000000E+00 0. -1.
         -5    1    3    3    0  503  0.47820697202E+02  0.19813265051E+03 -0.77818009527E+03  0.80444373138E+03  0.47000000000E+01 0.  1.
         11    1    4    4    0    0  0.60451476063E+02  0.15642467899E+01 -0.34581319849E+03  0.35106067292E+03  0.00000000000E+00 0. -1.
        -12    1    4    4    0    0 -0.14061256320E+02  0.30630782695E+02 -0.10961081300E+03  0.11467560379E+03  0.00000000000E+00 0.  1.
</event>
<event>
12    1  0.8133506E-002  0.1951273E+03  0.7818608E-02  0.1153931E+00
         21   -1    0    0  501  502  0.00000000000E+00  0.00000000000E+00  0.83024626357E+02  0.83024626357E+02  0.00000000000E+00 0.  1.
         21   -1    0    0  502  503 -0.00000000000E+00 -0.00000000000E+00 -0.76236518418E+03  0.76236518418E+03  0.00000000000E+00 0.  1.
         -6    2    1    2    0  503 -0.63027123544E+02  0.64807979721E+02 -0.60652302577E+03  0.63711819971E+03  0.17284943468E+03 0.  0.
        -24    2    3    3    0    0 -0.98800475648E+02  0.90423976014E+01 -0.43809766553E+03  0.45606924268E+03  0.78906847798E+02 0.  0.
          6    2    1    2  501    0  0.63027123544E+02 -0.64807979721E+02 -0.72817532053E+02  0.20827161083E+03  0.17292246345E+03 0.  0.
         24    2    5    5    0    0 -0.25236359506E+02  0.28139644089E+01 -0.30518624796E+02  0.89215080884E+02  0.79894630363E+02 0.  0.
          5    1    5    5  501    0  0.88263483050E+02 -0.67621944130E+02 -0.42298907257E+02  0.11905652995E+03  0.47000000000E+01 0. -1.
        -13    1    6    6    0    0  0.60742422205E+01 -0.34530281377E+02 -0.14112948496E+02  0.37794339071E+02  0.00000000000E+00 0.  1.
         14    1    6    6    0    0 -0.31310601727E+02  0.37344245786E+02 -0.16405676300E+02  0.51420741814E+02  0.00000000000E+00 0. -1.
         -5    1    3    3    0  503  0.35773352104E+02  0.55765582119E+02 -0.16842536024E+03  0.18104895703E+03  0.47000000000E+01 0.  1.
         13    1    4    4    0    0 -0.10056329812E+03 -0.15667000964E+02 -0.34128065111E+03  0.35613328217E+03  0.00000000000E+00 0. -1.
        -14    1    4    4    0    0  0.17628224762E+01  0.24709398565E+02 -0.96817014420E+02  0.99935960503E+02  0.00000000000E+00 0.  1.
</event>
<event>
12    1  0.8133506E-002  0.1959976E+03  0.7818608E-02  0.1153644E+00
         21   -1    0    0  501  502  0.00000000000E+00  0.00000000000E+00  0.12019789745E+03  0.12019789745E+03  0.00000000000E+00 0. -1.
         21   -1    0    0  502  503 -0.00000000000E+00 -0.00000000000E+00 -0.60985684455E+03  0.60985684455E+03  0.00000000000E+00 0. -1.
         -6    2    1    2    0  503 -0.51450565225E+02 -0.74221769060E+02 -0.49893988820E+03  0.53605604034E+03  0.17395124227E+03 0.  0.
        -24    2    3    3    0    0 -0.88091388315E+02 -0.65240007759E+02 -0.22732303221E+03  0.26179151764E+03  0.69589413205E+02 0.  0.
          6    2    1    2  501    0  0.51450565225E+02  0.74221769060E+02  0.92809410979E+01  0.19399870166E+03  0.17144482702E+03 0.  0.
         24    2    5    5    0    0  0.67981291512E+02  0.14347597054E+02  0.51880112896E+02  0.11853373745E+03  0.80817023350E+02 0.  0.
          5    1    5    5  501    0 -0.16530726287E+02  0.59874172006E+02 -0.42599171798E+02  0.75464964207E+02  0.47000000000E+01 0. -1.
        -13    1    6    6    0    0  0.32772204962E+02  0.11865274872E+02 -0.18748428727E+02  0.39576580772E+02  0.00000000000E+00 0.  1.
         14    1    6    6    0    0  0.35209086551E+02  0.24823221821E+01  0.70628541623E+02  0.78957156679E+02  0.00000000000E+00 0. -1.
         -5    1    3    3    0  503  0.36640823090E+02 -0.89817613006E+01 -0.27161685599E+03  0.27426452270E+03  0.47000000000E+01 0.  1.
         11    1    4    4    0    0 -0.49432222309E+02 -0.43378224858E+02 -0.19783754232E+03  0.20848239289E+03  0.00000000000E+00 0. -1.
        -12    1    4    4    0    0 -0.38659166005E+02 -0.21861782901E+02 -0.29485489885E+02  0.53309124750E+02  0.00000000000E+00 0.  1.
</event>
<event>
12    1  0.8133506E-002  0.2316062E+03  0.7818608E-02  0.1126340E+00
         21   -1    0    0  501  502  0.00000000000E+00  0.00000000000E+00  0.32170299456E+03  0.32170299456E+03  0.00000000000E+00 0.  1.
         21   -1    0    0  502  503 -0.00000000000E+00 -0.00000000000E+00 -0.23484786517E+03  0.23484786517E+03  0.00000000000E+00 0. -1.
         -6    2    1    2    0  503 -0.27426150745E+02 -0.14445929557E+03 -0.10975956156E+03  0.25629786919E+03  0.17894343960E+03 0.  0.
        -24    2    3    3    0    0 -0.49275688820E+02 -0.17084750890E+03 -0.10363047838E+03  0.22117813431E+03  0.81015592579E+02 0.  0.
          6    2    1    2  501    0  0.27426150745E+02  0.14445929557E+03  0.19661469095E+03  0.30025299054E+03  0.17284050397E+03 0.  0.
         24    2    5    5    0    0  0.15750811989E+02  0.10557580181E+03  0.21549391572E+03  0.25523349755E+03  0.85511242256E+02 0.  0.
          5    1    5    5  501    0  0.11675338756E+02  0.38883493755E+02 -0.18879224771E+02  0.45019492996E+02  0.47000000000E+01 0. -1.
        -11    1    6    6    0    0  0.49519819748E+02  0.73628699581E+02  0.15889120802E+03  0.18198849946E+03  0.00000000000E+00 0.  1.
         12    1    6    6    0    0 -0.33769007759E+02  0.31947102232E+02  0.56602707698E+02  0.73244998087E+02  0.00000000000E+00 0. -1.
         -5    1    3    3    0  503  0.21849538075E+02  0.26388213335E+02 -0.61290831759E+01  0.35119734875E+02  0.47000000000E+01 0.  1.
         13    1    4    4    0    0 -0.37784578049E+02 -0.65017782533E+02 -0.84333120045E+02  0.11299142233E+03  0.00000000000E+00 0. -1.
        -14    1    4    4    0    0 -0.11491110771E+02 -0.10582972637E+03 -0.19297358335E+02  0.10818671198E+03  0.00000000000E+00 0.  1.
</event>
<event>
12    1  0.8133506E-002  0.1933989E+03  0.7818608E-02  0.1155431E+00
         21   -1    0    0  503  502  0.00000000000E+00  0.00000000000E+00  0.29328410774E+03  0.29328410774E+03  0.00000000000E+00 0. -1.
         21   -1    0    0  501  503 -0.00000000000E+00 -0.00000000000E+00 -0.21526573140E+03  0.21526573140E+03  0.00000000000E+00 0. -1.
          6    2    1    2  501    0 -0.85226051374E+02 -0.19551544044E+02  0.20134048621E+03  0.27917939043E+03  0.17250332735E+03 0.  0.
         24    2    3    3    0    0 -0.80226670191E+02 -0.83958272490E+01  0.22544540583E+03  0.25174618101E+03  0.77741238212E+02 0.  0.
         -6    2    1    2    0  502  0.85226051374E+02  0.19551544044E+02 -0.12332210987E+03  0.22937044871E+03  0.17250135435E+03 0.  0.
        -24    2    5    5    0    0  0.10826159577E+03  0.28524378502E+02 -0.14210280771E+03  0.19797056535E+03  0.80404747980E+02 0.  0.
          5    1    3    3  501    0 -0.49993811828E+01 -0.11155716795E+02 -0.24104919617E+02  0.27433209421E+02  0.47000000000E+01 0. -1.
        -11    1    4    4    0    0  0.11963406321E+02 -0.12455192346E+02  0.58481139546E+02  0.60977853273E+02  0.00000000000E+00 0.  1.
         12    1    4    4    0    0 -0.92190076512E+02  0.40593650973E+01  0.16696426628E+03  0.19076832773E+03  0.00000000000E+00 0. -1.
         -5    1    5    5    0  502 -0.23035544401E+02 -0.89728344588E+01  0.18780697833E+02  0.31399883363E+02  0.47000000000E+01 0.  1.
         11    1    6    6    0    0  0.41741578417E+02  0.41207259601E+01 -0.32327795824E+01  0.42068879412E+02  0.00000000000E+00 0. -1.
        -12    1    6    6    0    0  0.66520017358E+02  0.24403652542E+02 -0.13887002812E+03  0.15590168594E+03  0.00000000000E+00 0.  1.
</event>
<event>
12    1  0.8133506E-002  0.1791387E+03  0.7818608E-02  0.1170302E+00
         21   -1    0    0  503  502  0.00000000000E+00  0.00000000000E+00  0.11550159219E+03  0.11550159219E+03  0.00000000000E+00 0. -1.
         21   -1    0    0  501  503 -0.00000000000E+00 -0.00000000000E+00 -0.29734803671E+03  0.29734803671E+03  0.00000000000E+00 0. -1.
          6    2    1    2  501    0 -0.66147383504E+01  0.89202493180E+01 -0.15469624532E+03  0.23166512671E+03  0.17208857313E+03 0.  0.
         24    2    3    3    0    0 -0.88185724117E+01  0.39560211627E+02 -0.17491112636E+03  0.19459228502E+03  0.75029845400E+02 0.  0.
         -6    2    1    2    0  502  0.66147383504E+01 -0.89202493180E+01 -0.27150199191E+02  0.18118450219E+03  0.17879419707E+03 0.  0.
        -24    2    5    5    0    0 -0.44988348028E+02 -0.50794478180E+02 -0.42194480207E+02  0.11288552740E+03  0.79741693388E+02 0.  0.
          5    1    3    3  501    0  0.22038340613E+01 -0.30639962309E+02  0.20214881043E+02  0.37072841683E+02  0.47000000000E+01 0. -1.
        -11    1    4    4    0    0 -0.16864601469E+02 -0.18883303093E+02 -0.39900692749E+02  0.47255255796E+02  0.00000000000E+00 0.  1.
         12    1    4    4    0    0  0.80460290572E+01  0.58443514720E+02 -0.13501043362E+03  0.14733702923E+03  0.00000000000E+00 0. -1.
         -5    1    5    5    0  502  0.51603086379E+02  0.41874228862E+02  0.15044281016E+02  0.68298974794E+02  0.47000000000E+01 0.  1.
         11    1    6    6    0    0 -0.29679018355E+02 -0.47671617020E+02 -0.64583850217E+02  0.85583298071E+02  0.00000000000E+00 0. -1.
        -12    1    6    6    0    0 -0.15309329673E+02 -0.31228611599E+01  0.22389370010E+02  0.27302229328E+02  0.00000000000E+00 0.  1.
</event>
<event>
12    1  0.8133506E-002  0.1734668E+03  0.7818608E-02  0.1175173E+00
         21   -1    0    0  503  502  0.00000000000E+00  0.00000000000E+00  0.68944011282E+02  0.68944011282E+02  0.00000000000E+00 0. -1.
         21   -1    0    0  501  503 -0.00000000000E+00 -0.00000000000E+00 -0.52646119197E+03  0.52646119197E+03  0.00000000000E+00 0. -1.
          6    2    1    2  501    0 -0.16219506187E+02 -0.70249480735E+01 -0.35954686264E+03  0.39920504138E+03  0.17256389065E+03 0.  0.
         24    2    3    3    0    0 -0.16978286190E+02 -0.64999107291E+02 -0.16670179831E+03  0.19777791382E+03  0.82543730730E+02 0.  0.
         -6    2    1    2    0  502  0.16219506187E+02  0.70249480735E+01 -0.97970318048E+02  0.19620016187E+03  0.16906773206E+03 0.  0.
        -24    2    5    5    0    0  0.44730497202E+02  0.46412120681E+02 -0.22670668978E+02  0.10644297205E+03  0.81616448957E+02 0.  0.
          5    1    3    3  501    0  0.75878000217E+00  0.57974159218E+02 -0.19284506433E+03  0.20142712757E+03  0.47000000000E+01 0. -1.
        -13    1    4    4    0    0 -0.27359816471E+02 -0.27791643959E+02 -0.15914545542E+02  0.42121346026E+02  0.00000000000E+00 0.  1.
         14    1    4    4    0    0  0.10381530281E+02 -0.37207463333E+02 -0.15078725277E+03  0.15565656779E+03  0.00000000000E+00 0. -1.
         -5    1    5    5    0  502 -0.28510991014E+02 -0.39387172607E+02 -0.75299649069E+02  0.89757189821E+02  0.47000000000E+01 0.  1.
         11    1    6    6    0    0 -0.22056495081E+02  0.25965617305E+02 -0.94581217113E+01  0.35357578022E+02  0.00000000000E+00 0. -1.
        -12    1    6    6    0    0  0.66786992282E+02  0.20446503376E+02 -0.13212547267E+02  0.71085394025E+02  0.00000000000E+00 0.  1.
</event>
<event>
12    1  0.8133506E-002  0.1916636E+03  0.7818608E-02  0.1161196E+00
         21   -1    0    0  501  502  0.00000000000E+00  0.00000000000E+00  0.73813953588E+02  0.73813953588E+02  0.00000000000E+00 0.  1.
         21   -1    0    0  502  503 -0.00000000000E+00 -0.00000000000E+00 -0.16063221319E+04  0.16063221319E+04  0.00000000000E+00 0.  1.
         -6    2    1    2    0  503 -0.58702342223E+02 -0.59227274384E+02 -0.14887442098E+04  0.15010310620E+04  0.17257198972E+03 0.  0.
        -24    2    3    3    0    0 -0.90237523148E+02 -0.19187991767E+02 -0.69654006610E+03  0.70717521412E+03  0.80110736980E+02 0.  0.
          6    2    1    2  501    0  0.58702342223E+02  0.59227274384E+02 -0.43763968488E+02  0.17910502354E+03  0.15234660976E+03 0.  0.
         24    2    5    5    0    0  0.44016690432E+02  0.11104340532E+02 -0.77395739781E+02  0.11840353121E+03  0.77256198786E+02 0.  0.
          5    1    5    5  501    0  0.14685651791E+02  0.48122933851E+02  0.33631771293E+02  0.60701492331E+02  0.47000000000E+01 0. -1.
        -13    1    6    6    0    0  0.57120702234E+02  0.95071833928E+01 -0.22798262528E+02  0.62232804325E+02  0.00000000000E+00 0.  1.
         14    1    6    6    0    0 -0.13104011802E+02  0.15971571397E+01 -0.54597477252E+02  0.56170726883E+02  0.00000000000E+00 0. -1.
         -5    1    3    3    0  503  0.31535180925E+02 -0.40039282617E+02 -0.79220414373E+03  0.79385584783E+03  0.47000000000E+01 0.  1.
         11    1    4    4    0    0 -0.10170760054E+03 -0.24016684080E+02 -0.66674864968E+03  0.67488887898E+03  0.00000000000E+00 0. -1.
        -12    1    4    4    0    0  0.11470077391E+02  0.48286923127E+01 -0.29791416420E+02  0.32286335145E+02  0.00000000000E+00 0.  1.
</event>
<event>
12    1  0.8133506E-002  0.1752984E+03  0.7818608E-02  0.1172733E+00
         21   -1    0    0  501  502  0.00000000000E+00  0.00000000000E+00  0.20954441569E+02  0.20954441569E+02  0.00000000000E+00 0.  1.
         21   -1    0    0  502  503 -0.00000000000E+00 -0.00000000000E+00 -0.22436883683E+04  0.22436883683E+04  0.00000000000E+00 0.  1.
         -6    2    1    2    0  503 -0.24937375878E+02  0.55679689411E+01 -0.17845199069E+04  0.17931092635E+04  0.17342623143E+03 0.  0.
        -24    2    3    3    0    0  0.25928303428E+02 -0.36471077918E+02 -0.62782336351E+03  0.63452237324E+03  0.80337101862E+02 0.  0.
          6    2    1    2  501    0  0.24937375878E+02 -0.55679689411E+01 -0.43821401984E+03  0.47153354637E+03  0.17221928805E+03 0.  0.
         24    2    5    5    0    0  0.62609417870E+02  0.43758420411E+02 -0.29113519059E+03  0.31182585261E+03  0.81491868256E+02 0.  0.
          5    1    5    5  501    0 -0.37672041992E+02 -0.49326389352E+02 -0.14707882925E+03  0.15970769376E+03  0.47000000000E+01 0. -1.
        -11    1    6    6    0    0  0.68169374885E+02  0.15448838966E+01 -0.19820279567E+03  0.20960390872E+03  0.00000000000E+00 0.  1.
         12    1    6    6    0    0 -0.55599570145E+01  0.42213536515E+02 -0.92932394919E+02  0.10222194389E+03  0.00000000000E+00 0. -1.
         -5    1    3    3    0  503 -0.50865679306E+02  0.42039046859E+02 -0.11566965434E+04  0.11585868902E+04  0.47000000000E+01 0.  1.
         11    1    4    4    0    0  0.31794866654E+02  0.17965885010E+02 -0.21419300794E+03  0.21728398749E+03  0.00000000000E+00 0. -1.
        -12    1    4    4    0    0 -0.58665632262E+01 -0.54436962928E+02 -0.41363035557E+03  0.41723838575E+03  0.00000000000E+00 0.  1.
</event>
<event>
12    1  0.8133506E-002  0.2777663E+03  0.7818608E-02  0.1097158E+00
         21   -1    0    0  501  502  0.00000000000E+00  0.00000000000E+00  0.13243719684E+04  0.13243719684E+04  0.00000000000E+00 0.  1.
         21   -1    0    0  502  503 -0.00000000000E+00 -0.00000000000E+00 -0.11425139904E+03  0.11425139904E+03  0.00000000000E+00 0. -1.
         -6    2    1    2    0  503 -0.76275473504E+02  0.20494198438E+03  0.11093056462E+04  0.11431275479E+04  0.16841142840E+03 0.  0.
        -24    2    3    3    0    0 -0.10057936528E+03  0.20468342733E+03  0.89883801168E+03  0.93120902300E+03  0.85023285820E+02 0.  0.
          6    2    1    2  501    0  0.76275473504E+02 -0.20494198438E+03  0.10081492319E+03  0.29549581957E+03  0.17127453351E+03 0.  0.
         24    2    5    5    0    0  0.12377658280E+02 -0.20389532910E+02  0.24544657525E+02  0.85777480945E+02  0.78653649295E+02 0.  0.
          5    1    5    5  501    0  0.63897815224E+02 -0.18455245147E+03  0.76270265660E+02  0.20971833863E+03  0.47000000000E+01 0. -1.
        -13    1    6    6    0    0  0.25391766245E+02  0.15765761089E+02  0.34930800162E+02  0.45972402762E+02  0.00000000000E+00 0.  1.
         14    1    6    6    0    0 -0.13014107966E+02 -0.36155293998E+02 -0.10386142637E+02  0.39805078183E+02  0.00000000000E+00 0. -1.
         -5    1    3    3    0  503  0.24303891777E+02  0.25855704517E+00  0.21046763455E+03  0.21191852491E+03  0.47000000000E+01 0.  1.
         13    1    4    4    0    0 -0.70962564244E+02  0.86126130641E+02  0.30126673278E+03  0.32127097625E+03  0.00000000000E+00 0. -1.
        -14    1    4    4    0    0 -0.29616801037E+02  0.11855729669E+03  0.59757127890E+03  0.60993804675E+03  0.00000000000E+00 0.  1.
</event>
<event>
12    1  0.8133506E-002  0.1812763E+03  0.7818608E-02  0.1166994E+00
         21   -1    0    0  503  502  0.00000000000E+00  0.00000000000E+00  0.11941172550E+03  0.11941172550E+03  0.00000000000E+00 0.  1.
         21   -1    0    0  501  503 -0.00000000000E+00 -0.00000000000E+00 -0.12925671044E+04  0.12925671044E+04  0.00000000000E+00 0.  1.
          6    2    1    2  501    0 -0.16022285329E+02 -0.49089593065E+02 -0.12143295505E+04  0.12277855550E+04  0.17376596317E+03 0.  0.
         24    2    3    3    0    0  0.32244676560E+02 -0.49359434234E+02 -0.39659895605E+03  0.40861818040E+03  0.78752857106E+02 0.  0.
         -6    2    1    2    0  502  0.16022285329E+02  0.49089593065E+02  0.41174171653E+02  0.18419327490E+03  0.17194577149E+03 0.  0.
        -24    2    5    5    0    0 -0.21299576717E+02 -0.23058841805E+02  0.54152462678E+02  0.10179883286E+03  0.80281573252E+02 0.  0.
          5    1    3    3  501    0 -0.48266961888E+02  0.26984116885E+00 -0.81773059446E+03  0.81916737456E+03  0.47000000000E+01 0. -1.
        -11    1    4    4    0    0  0.50776369642E+02 -0.41614551714E+02 -0.36714155866E+03  0.37296505831E+03  0.00000000000E+00 0.  1.
         12    1    4    4    0    0 -0.18531693082E+02 -0.77448825192E+01 -0.29457397391E+02  0.35653122090E+02  0.00000000000E+00 0. -1.
         -5    1    5    5    0  502  0.37321862045E+02  0.72148434870E+02 -0.12978291025E+02  0.82394442037E+02  0.47000000000E+01 0.  1.
         11    1    6    6    0    0  0.10330184737E+02 -0.16878530225E+01 -0.17626851761E+02  0.20500426033E+02  0.00000000000E+00 0. -1.
        -12    1    6    6    0    0 -0.31629761454E+02 -0.21370988782E+02  0.71779314439E+02  0.81298406827E+02  0.00000000000E+00 0.  1.
</event>
<event>
12    1  0.8133506E-002  0.1905813E+03  0.7818608E-02  0.1160253E+00
         21   -1    0    0  501  502  0.00000000000E+00  0.00000000000E+00  0.65881578855E+03  0.65881578855E+03  0.00000000000E+00 0. -1.
         21   -1    0    0  502  503 -0.00000000000E+00 -0.00000000000E+00 -0.54501039605E+02  0.54501039605E+02  0.00000000000E+00 0. -1.
         -6    2    1    2    0  503 -0.62368500912E+02  0.43438714243E+02  0.22225147770E+03  0.28635831609E+03  0.16379442619E+03 0.  0.
        -24    2    3    3    0    0 -0.34611493041E+02  0.85370863844E+01  0.38678638687E+02  0.97388338745E+02  0.81961052570E+02 0.  0.
          6    2    1    2  501    0  0.62368500912E+02 -0.43438714243E+02  0.38206327124E+03  0.42695851207E+03  0.17476977997E+03 0.  0.
         24    2    5    5    0    0  0.49462870938E+02 -0.90358611969E+02  0.33377343843E+03  0.35824148331E+03  0.79504703043E+02 0.  0.
          5    1    5    5  501    0  0.12905629974E+02  0.46919897725E+02  0.48289832813E+02  0.68717028753E+02  0.47000000000E+01 0. -1.
        -11    1    6    6    0    0 -0.16403804643E+02 -0.14149697461E+02  0.11981920235E+03  0.12176181666E+03  0.00000000000E+00 0.  1.
         12    1    6    6    0    0  0.65866675581E+02 -0.76208914508E+02  0.21395423608E+03  0.23647966665E+03  0.00000000000E+00 0. -1.
         -5    1    3    3    0  503 -0.27757007871E+02  0.34901627859E+02  0.18357283901E+03  0.18896997734E+03  0.47000000000E+01 0.  1.
         13    1    4    4    0    0 -0.30146991679E+02  0.14971963175E+02  0.63222806498E+02  0.71624884294E+02  0.00000000000E+00 0. -1.
        -14    1    4    4    0    0 -0.44645013619E+01 -0.64348767910E+01 -0.24544167811E+02  0.25763454451E+02  0.00000000000E+00 0.  1.
</event>
<event>
12    1  0.8133506E-002  0.2151698E+03  0.7818608E-02  0.1137620E+00
         21   -1    0    0  503  502  0.00000000000E+00  0.00000000000E+00  0.48097081953E+03  0.48097081953E+03  0.00000000000E+00 0. -1.
         21   -1    0    0  501  503 -0.00000000000E+00 -0.00000000000E+00 -0.12048057769E+03  0.12048057769E+03  0.00000000000E+00 0.  1.
          6    2    1    2  501    0  0.12923750231E+03 -0.82206952317E+01  0.45012496109E+02  0.21982759762E+03  0.17183752803E+03 0.  0.
         24    2    3    3    0    0  0.10580618144E+03  0.15277920560E+02 -0.30234876624E+02  0.13745364030E+03  0.80938202234E+02 0.  0.
         -6    2    1    2    0  502 -0.12923750231E+03  0.82206952317E+01  0.31547774573E+03  0.38162379960E+03  0.17129099374E+03 0.  0.
        -24    2    5    5    0    0 -0.11836625814E+03 -0.46372160868E+02  0.27424111699E+03  0.31218956138E+03  0.78058847158E+02 0.  0.
          5    1    3    3  501    0  0.23431320872E+02 -0.23498615791E+02  0.75247372733E+02  0.82373957323E+02  0.47000000000E+01 0. -1.
        -13    1    4    4    0    0  0.33583358360E+02  0.82296073237E+01 -0.51324550825E+02  0.61885199465E+02  0.00000000000E+00 0.  1.
         14    1    4    4    0    0  0.72222823076E+02  0.70483132361E+01  0.21089674201E+02  0.75568440836E+02  0.00000000000E+00 0. -1.
         -5    1    5    5    0  502 -0.10871244169E+02  0.54592856100E+02  0.41236628740E+02  0.69434238217E+02  0.47000000000E+01 0.  1.
         13    1    6    6    0    0 -0.52359825824E+02 -0.16059444201E+02  0.20371710814E+03  0.21095050902E+03  0.00000000000E+00 0. -1.
        -14    1    6    6    0    0 -0.66006432314E+02 -0.30312716667E+02  0.70524008851E+02  0.10123905236E+03  0.00000000000E+00 0.  1.
</event>
<event>
12    1  0.8133506E-002  0.2503855E+03  0.7818608E-02  0.1114702E+00
         21   -1    0    0  501  502  0.00000000000E+00  0.00000000000E+00  0.30479628155E+03  0.30479628155E+03  0.00000000000E+00 0.  1.
         21   -1    0    0  502  503 -0.00000000000E+00 -0.00000000000E+00 -0.37447552490E+03  0.37447552490E+03  0.00000000000E+00 0. -1.
         -6    2    1    2    0  503 -0.16649948774E+03 -0.74076047783E+02 -0.26797545685E+03  0.35987503264E+03  0.15649234285E+03 0.  0.
        -24    2    3    3    0    0 -0.47959594598E+02 -0.45205514885E+02 -0.61452236053E+02  0.11996016302E+03  0.79185870620E+02 0.  0.
          6    2    1    2  501    0  0.16649948774E+03  0.74076047783E+02  0.19829621349E+03  0.31939677381E+03  0.17170780577E+03 0.  0.
         24    2    5    5    0    0  0.18422102622E+03  0.55677992961E+02  0.12845692133E+03  0.24488396903E+03  0.80184488820E+02 0.  0.
          5    1    5    5  501    0 -0.17721538475E+02  0.18398054821E+02  0.69839292162E+02  0.74512804784E+02  0.47000000000E+01 0. -1.
        -11    1    6    6    0    0  0.87694743907E+02  0.45177416906E+02  0.10682802883E+03  0.14540837270E+03  0.00000000000E+00 0.  1.
         12    1    6    6    0    0  0.96526282310E+02  0.10500576055E+02  0.21628892504E+02  0.99475596329E+02  0.00000000000E+00 0. -1.
         -5    1    3    3    0  503 -0.11853989314E+03 -0.28870532898E+02 -0.20652322080E+03  0.23991486962E+03  0.47000000000E+01 0.  1.
         13    1    4    4    0    0 -0.58494751700E+02 -0.58717888210E+02 -0.60840352551E+02  0.10281524630E+03  0.00000000000E+00 0. -1.
        -14    1    4    4    0    0  0.10535157102E+02  0.13512373325E+02 -0.61188350165E+00  0.17144916724E+02  0.00000000000E+00 0.  1.
</event>
<event>
12    1  0.8133506E-002  0.2012007E+03  0.7818608E-02  0.1149810E+00
         21   -1    0    0  503  502  0.00000000000E+00  0.00000000000E+00  0.29714449990E+03  0.29714449990E+03  0.00000000000E+00 0.  1.
         21   -1    0    0  501  503 -0.00000000000E+00 -0.00000000000E+00 -0.16714289788E+03  0.16714289788E+03  0.00000000000E+00 0.  1.
          6    2    1    2  501    0  0.87876979646E+02  0.22053649348E+02 -0.39540679321E+02  0.20504918568E+03  0.17964680967E+03 0.  0.
         24    2    3    3    0    0  0.52661535805E+02  0.81059199529E+02 -0.37600039350E+01  0.12743392192E+03  0.82954419076E+02 0.  0.
         -6    2    1    2    0  502 -0.87876979646E+02 -0.22053649348E+02  0.16954228134E+03  0.25923821209E+03  0.17392854408E+03 0.  0.
        -24    2    5    5    0    0 -0.69032686607E+02 -0.43314193988E+02  0.32144369387E+02  0.11885518482E+03  0.80322246316E+02 0.  0.
          5    1    3    3  501    0  0.35215443841E+02 -0.59005550181E+02 -0.35780675386E+02  0.77615263758E+02  0.47000000000E+01 0. -1.
        -13    1    4    4    0    0  0.48063252023E+02  0.52691747336E+02 -0.39536103886E+02  0.81545079207E+02  0.00000000000E+00 0.  1.
         14    1    4    4    0    0  0.45982837822E+01  0.28367452193E+02  0.35776099951E+02  0.45888842711E+02  0.00000000000E+00 0. -1.
         -5    1    5    5    0  502 -0.18844293039E+02  0.21260544640E+02  0.13739791195E+03  0.14038302728E+03  0.47000000000E+01 0.  1.
         11    1    6    6    0    0 -0.20292932364E+02 -0.48137889617E+02 -0.11228146305E+02  0.53433423905E+02  0.00000000000E+00 0. -1.
        -12    1    6    6    0    0 -0.48739754244E+02  0.48236956297E+01  0.43372515692E+02  0.65421760911E+02  0.00000000000E+00 0.  1.
</event>
<event>
12    1  0.8133506E-002  0.2007970E+03  0.7818608E-02  0.1149181E+00
         21   -1    0    0  503  502  0.00000000000E+00  0.00000000000E+00  0.23021559694E+02  0.23021559694E+02  0.00000000000E+00 0.  1.
         21   -1    0    0  501  503 -0.00000000000E+00 -0.00000000000E+00 -0.17478607651E+04  0.17478607651E+04  0.00000000000E+00 0.  1.
          6    2    1    2  501    0  0.29260835265E+02 -0.99197426406E+02 -0.88623675846E+03  0.90869963842E+03  0.17211366868E+03 0.  0.
         24    2    3    3    0    0  0.74843708563E+02 -0.94374060030E+02 -0.51960011328E+03  0.53917889098E+03  0.78876833386E+02 0.  0.
         -6    2    1    2    0  502 -0.29260835265E+02  0.99197426406E+02 -0.83860244697E+03  0.86218268639E+03  0.17148934300E+03 0.  0.
        -24    2    5    5    0    0 -0.56987240576E+02  0.29247450848E+01 -0.46756754500E+03  0.47783106196E+03  0.80293305559E+02 0.  0.
          5    1    3    3  501    0 -0.45582873298E+02 -0.48233663755E+01 -0.36663664518E+03  0.36952074744E+03  0.47000000000E+01 0. -1.
        -13    1    4    4    0    0  0.38031860476E+02 -0.77908162287E+01 -0.72016738352E+02  0.81813995329E+02  0.00000000000E+00 0.  1.
         14    1    4    4    0    0  0.36811848088E+02 -0.86583243802E+02 -0.44758337493E+03  0.45736489566E+03  0.00000000000E+00 0. -1.
         -5    1    5    5    0  502  0.27726405311E+02  0.96272681321E+02 -0.37103490197E+03  0.38435162442E+03  0.47000000000E+01 0.  1.
         13    1    6    6    0    0 -0.10639880903E+02 -0.26612440369E+02 -0.59101647496E+02  0.65684349618E+02  0.00000000000E+00 0. -1.
        -14    1    6    6    0    0 -0.46347359673E+02  0.29537185454E+02 -0.40846589750E+03  0.41214671235E+03  0.00000000000E+00 0.  1.
</event>
<event>
12    1  0.8133506E-002  0.2183709E+03  0.7818608E-02  0.1135159E+00
         21   -1    0    0  503  502  0.00000000000E+00  0.00000000000E+00  0.29259931146E+03  0.29259931146E+03  0.00000000000E+00 0. -1.
         21   -1    0    0  501  503 -0.00000000000E+00 -0.00000000000E+00 -0.21923503195E+03  0.21923503195E+03  0.00000000000E+00 0. -1.
          6    2    1    2  501    0 -0.13179695108E+03  0.22721618017E+02 -0.93197095649E+02  0.23742695486E+03  0.17262430888E+03 0.  0.
         24    2    3    3    0    0 -0.12497462258E+03 -0.28730828900E+02 -0.28411769463E+02  0.15428173883E+03  0.80941395303E+02 0.  0.
         -6    2    1    2    0  502  0.13179695108E+03 -0.22721618017E+02  0.16656137516E+03  0.27440738855E+03  0.17224986199E+03 0.  0.
        -24    2    5    5    0    0  0.97670386095E+02  0.30373202910E+02  0.49393671506E+02  0.14123816078E+03  0.83943120623E+02 0.  0.
          5    1    3    3  501    0 -0.68223285063E+01  0.51452446917E+02 -0.64785326186E+02  0.83145216032E+02  0.47000000000E+01 0. -1.
        -11    1    4    4    0    0 -0.20752763718E+02 -0.21575080715E+02  0.23092920211E+02  0.37807992193E+02  0.00000000000E+00 0.  1.
         12    1    4    4    0    0 -0.10422185886E+03 -0.71557481848E+01 -0.51504689675E+02  0.11647374663E+03  0.00000000000E+00 0. -1.
         -5    1    5    5    0  502  0.34126564987E+02 -0.53094820927E+02  0.11716770365E+03  0.13316922777E+03  0.47000000000E+01 0.  1.
         11    1    6    6    0    0  0.32381961961E+02  0.15654929802E+02  0.63371604847E+02  0.72867198303E+02  0.00000000000E+00 0. -1.
        -12    1    6    6    0    0  0.65288424134E+02  0.14718273107E+02 -0.13977933341E+02  0.68370962474E+02  0.00000000000E+00 0.  1.
</event>
<event>
12    1  0.8133506E-002  0.2264364E+03  0.7818608E-02  0.1129503E+00
         21   -1    0    0  501  502  0.00000000000E+00  0.00000000000E+00  0.73542432082E+03  0.73542432082E+03  0.00000000000E+00 0.  1.
         21   -1    0    0  502  503 -0.00000000000E+00 -0.00000000000E+00 -0.82427632976E+02  0.82427632976E+02  0.00000000000E+00 0.  1.
         -6    2    1    2    0  503  0.10559650049E+03 -0.10096426472E+03  0.16131483314E+03  0.27653459886E+03  0.17060042588E+03 0.  0.
        -24    2    3    3    0    0 -0.97499881165E+01 -0.23057661865E+02  0.78148895269E+02  0.11432203947E+03  0.79596236326E+02 0.  0.
          6    2    1    2  501    0 -0.10559650049E+03  0.10096426472E+03  0.49168185471E+03  0.54131735494E+03  0.17300008336E+03 0.  0.
         24    2    5    5    0    0 -0.83662301255E+01  0.10062265782E+03  0.26216730071E+03  0.29201259633E+03  0.79653937617E+02 0.  0.
          5    1    5    5  501    0 -0.97230270362E+02  0.34160690134E+00  0.22951455399E+03  0.24930475861E+03  0.47000000000E+01 0. -1.
        -11    1    6    6    0    0 -0.53921959346E+01  0.10622701203E+03  0.26463087129E+03  0.28520650747E+03  0.00000000000E+00 0.  1.
         12    1    6    6    0    0 -0.29740341910E+01 -0.56043542116E+01 -0.24635705821E+01  0.68060888557E+01  0.00000000000E+00 0. -1.
         -5    1    3    3    0  503  0.11534648860E+03 -0.77906602859E+02  0.83165937867E+02  0.16221255939E+03  0.47000000000E+01 0.  1.
         13    1    4    4    0    0 -0.25730820398E+02  0.39710202079E+01  0.78723630047E+02  0.82917151710E+02  0.00000000000E+00 0. -1.
        -14    1    4    4    0    0  0.15980832281E+02 -0.27028682073E+02 -0.57473477807E+00  0.31404887758E+02  0.00000000000E+00 0.  1.
</event>
<event>
12    1  0.8133506E-002  0.2346256E+03  0.7818608E-02  0.1123625E+00
         21   -1    0    0  503  502  0.00000000000E+00  0.00000000000E+00  0.95629821032E+02  0.95629821032E+02  0.00000000000E+00 0.  1.
         21   -1    0    0  501  503 -0.00000000000E+00 -0.00000000000E+00 -0.88263315505E+03  0.88263315505E+03  0.00000000000E+00 0. -1.
          6    2    1    2  501    0  0.15706037646E+03 -0.19901615182E+02 -0.68266702540E+03  0.72148436430E+03  0.17158491838E+03 0.  0.
         24    2    3    3    0    0  0.39985132833E+02 -0.12797090419E+02 -0.47386424006E+03  0.48194776979E+03  0.77225374229E+02 0.  0.
         -6    2    1    2    0  502 -0.15706037646E+03  0.19901615182E+02 -0.10433630862E+03  0.25677861179E+03  0.17316221884E+03 0.  0.
        -24    2    5    5    0    0 -0.15478807579E+03  0.67205249568E+02 -0.78931558429E+02  0.20283152189E+03  0.80215593121E+02 0.  0.
          5    1    3    3  501    0  0.11707524363E+03 -0.71045247633E+01 -0.20880278534E+03  0.23953659451E+03  0.47000000000E+01 0. -1.
        -11    1    4    4    0    0  0.40859777868E+02  0.16779069525E+02 -0.39916830975E+03  0.40160477852E+03  0.00000000000E+00 0.  1.
         12    1    4    4    0    0 -0.87464503445E+00 -0.29576159944E+02 -0.74695930313E+02  0.80342991270E+02  0.00000000000E+00 0. -1.
         -5    1    5    5    0  502 -0.22723006777E+01 -0.47303634386E+02 -0.25404750192E+02  0.53947089902E+02  0.47000000000E+01 0.  1.
         11    1    6    6    0    0 -0.35434256366E+02  0.51149424348E+02 -0.71524140278E+01  0.62633913831E+02  0.00000000000E+00 0. -1.
        -12    1    6    6    0    0 -0.11935381942E+03  0.16055825220E+02 -0.71779144401E+02  0.14019760806E+03  0.00000000000E+00 0.  1.
</event>
<event>
12    1  0.8133506E-002  0.1894628E+03  0.7818608E-02  0.1159814E+00
         21   -1    0    0  501  502  0.00000000000E+00  0.00000000000E+00  0.16550430479E+03  0.16550430479E+03  0.00000000000E+00 0. -1.
         21   -1    0    0  502  503 -0.00000000000E+00 -0.00000000000E+00 -0.40568775866E+03  0.40568775866E+03  0.00000000000E+00 0. -1.
         -6    2    1    2    0  503  0.47691188707E+01 -0.71097584944E+02 -0.31776689155E+03  0.36996208731E+03  0.17555209370E+03 0.  0.
        -24    2    3    3    0    0 -0.83216643047E+01 -0.79640186023E+02 -0.33002492985E+03  0.34954899983E+03  0.82802413229E+02 0.  0.
          6    2    1    2  501    0 -0.47691188707E+01  0.71097584944E+02  0.77583437674E+02  0.20122997614E+03  0.17145466578E+03 0.  0.
         24    2    5    5    0    0 -0.32086672636E+02  0.10750360240E+03  0.44201705758E+02  0.14459008847E+03  0.79786739507E+02 0.  0.
          5    1    5    5  501    0  0.27317553765E+02 -0.36406017454E+02  0.33381731917E+02  0.56639887679E+02  0.47000000000E+01 0. -1.
        -11    1    6    6    0    0 -0.26159356270E+02  0.54556082040E+02  0.63701646661E+02  0.87855436914E+02  0.00000000000E+00 0.  1.
         12    1    6    6    0    0 -0.59273163658E+01  0.52947520358E+02 -0.19499940904E+02  0.56734651551E+02  0.00000000000E+00 0. -1.
         -5    1    3    3    0  503  0.13090783175E+02  0.85426010790E+01  0.12258038299E+02  0.20413087476E+02  0.47000000000E+01 0.  1.
         11    1    4    4    0    0  0.12125998134E+02  0.14369572868E+02 -0.47122857060E+02  0.50735471937E+02  0.00000000000E+00 0. -1.
        -12    1    4    4    0    0 -0.20447662438E+02 -0.94009758892E+02 -0.28290207279E+03  0.29881352790E+03  0.00000000000E+00 0.  1.
</event>
<event>
12    1  0.8133506E-002  0.1930448E+03  0.7818608E-02  0.1155771E+00
         21   -1    0    0  501  502  0.00000000000E+00  0.00000000000E+00  0.40204808566E+03  0.40204808566E+03  0.00000000000E+00 0. -1.
         21   -1    0    0  502  503 -0.00000000000E+00 -0.00000000000E+00 -0.77954056415E+03  0.77954056415E+03  0.00000000000E+00 0. -1.
         -6    2    1    2    0  503 -0.50408425511E+02  0.68603448538E+02 -0.74332181651E+03  0.76794944015E+03  0.17312301181E+03 0.  0.
        -24    2    3    3    0    0 -0.85311622471E+02  0.90344321519E+02 -0.51495347294E+03  0.53586090304E+03  0.80806303907E+02 0.  0.
          6    2    1    2  501    0  0.50408425511E+02 -0.68603448538E+02  0.36582933802E+03  0.41363920967E+03  0.17325948374E+03 0.  0.
         24    2    5    5    0    0 -0.16644605586E+02 -0.20487241708E+02  0.85168758994E+02  0.12105806031E+03  0.81881417247E+02 0.  0.
          5    1    5    5  501    0  0.67053031097E+02 -0.48116206830E+02  0.28066057902E+03  0.29258114935E+03  0.47000000000E+01 0. -1.
        -11    1    6    6    0    0  0.16157261488E+02  0.18576077131E+02  0.58562716888E+02  0.63527313414E+02  0.00000000000E+00 0.  1.
         12    1    6    6    0    0 -0.32801867074E+02 -0.39063318838E+02  0.26606042106E+02  0.57530746899E+02  0.00000000000E+00 0. -1.
         -5    1    3    3    0  503  0.34903196960E+02 -0.21740872981E+02 -0.22836834357E+03  0.23208853711E+03  0.47000000000E+01 0.  1.
         13    1    4    4    0    0  0.17164660627E+01  0.52410078552E+02 -0.15666160244E+03  0.16520478283E+03  0.00000000000E+00 0. -1.
        -14    1    4    4    0    0 -0.87028088534E+02  0.37934242967E+02 -0.35829187050E+03  0.37065612021E+03  0.00000000000E+00 0.  1.
</event>
<event>
12    1  0.8133506E-002  0.2069805E+03  0.7818608E-02  0.1144310E+00
         21   -1    0    0  501  502  0.00000000000E+00  0.00000000000E+00  0.75681536115E+03  0.75681536115E+03  0.00000000000E+00 0. -1.
         21   -1    0    0  502  503 -0.00000000000E+00 -0.00000000000E+00 -0.17515426644E+03  0.17515426644E+03  0.00000000000E+00 0.  1.
         -6    2    1    2    0  503 -0.74768441288E+02  0.83749184186E+02 -0.93618494314E+02  0.22568110947E+03  0.17193980060E+03 0.  0.
        -24    2    3    3    0    0 -0.48728385147E+02  0.87265515292E+02  0.79660342734E+00  0.12756510777E+03  0.79262200737E+02 0.  0.
          6    2    1    2  501    0  0.74768441288E+02 -0.83749184186E+02  0.67527958902E+03  0.70628851812E+03  0.17388703748E+03 0.  0.
         24    2    5    5    0    0 -0.24409876847E+02 -0.73670717091E+01  0.23928661198E+03  0.25265592236E+03  0.76985820774E+02 0.  0.
          5    1    5    5  501    0  0.99178318135E+02 -0.76382112476E+02  0.43599297705E+03  0.45363259575E+03  0.47000000000E+01 0. -1.
        -11    1    6    6    0    0  0.27415428920E+02  0.47430156963E+01  0.77812077871E+02  0.82636683158E+02  0.00000000000E+00 0.  1.
         12    1    6    6    0    0 -0.51825305768E+02 -0.12110087405E+02  0.16147453411E+03  0.17001923921E+03  0.00000000000E+00 0. -1.
         -5    1    3    3    0  503 -0.26040056141E+02 -0.35163311061E+01 -0.94415097742E+02  0.98116001701E+02  0.47000000000E+01 0.  1.
         13    1    4    4    0    0 -0.32309711730E+02 -0.59030429776E+01  0.25634574828E+01  0.32944418385E+02  0.00000000000E+00 0. -1.
        -14    1    4    4    0    0 -0.16418673416E+02  0.93168558269E+02 -0.17668540555E+01  0.94620689386E+02  0.00000000000E+00 0.  1.
</event>
<event>
12    1  0.8133506E-002  0.1835023E+03  0.7818608E-02  0.1166524E+00
         21   -1    0    0  503  502  0.00000000000E+00  0.00000000000E+00  0.54156218706E+02  0.54156218706E+02  0.00000000000E+00 0. -1.
         21   -1    0    0  501  503 -0.00000000000E+00 -0.00000000000E+00 -0.61797423055E+03  0.61797423055E+03  0.00000000000E+00 0. -1.
          6    2    1    2  501    0 -0.38610214558E+02 -0.40231805887E+02 -0.35567186179E+03  0.40021942099E+03  0.17482495473E+03 0.  0.
         24    2    3    3    0    0 -0.22509487860E+02 -0.88785895182E+02 -0.30587336975E+03  0.32867424088E+03  0.77965544111E+02 0.  0.
         -6    2    1    2    0  502  0.38610214558E+02  0.40231805887E+02 -0.20814615006E+03  0.27191102827E+03  0.16583558315E+03 0.  0.
        -24    2    5    5    0    0  0.62610439243E+00  0.82177806942E+02 -0.11416629074E+03  0.16210864402E+03  0.80571003248E+02 0.  0.
          5    1    3    3  501    0 -0.16100726699E+02  0.48554089295E+02 -0.49798492037E+02  0.71545180107E+02  0.47000000000E+01 0. -1.
        -13    1    4    4    0    0 -0.29368037293E+02 -0.21485739725E+01 -0.11886125112E+03  0.12245446093E+03  0.00000000000E+00 0.  1.
         14    1    4    4    0    0  0.68585494338E+01 -0.86637321209E+02 -0.18701211863E+03  0.20621977994E+03  0.00000000000E+00 0. -1.
         -5    1    5    5    0  502  0.37984110166E+02 -0.41946001055E+02 -0.93979859313E+02  0.10980238425E+03  0.47000000000E+01 0.  1.
         13    1    6    6    0    0 -0.29918934002E+02  0.70810536328E+01 -0.50088248629E+02  0.58771732857E+02  0.00000000000E+00 0. -1.
        -14    1    6    6    0    0  0.30545038394E+02  0.75096753309E+02 -0.64078042115E+02  0.10333691117E+03  0.00000000000E+00 0.  1.
</event>
<event>
12    1  0.8133506E-002  0.2670970E+03  0.7818608E-02  0.1103002E+00
         21   -1    0    0  501  502  0.00000000000E+00  0.00000000000E+00  0.10551983901E+03  0.10551983901E+03  0.00000000000E+00 0. -1.
         21   -1    0    0  502  503 -0.00000000000E+00 -0.00000000000E+00 -0.81739582236E+03  0.81739582236E+03  0.00000000000E+00 0. -1.
         -6    2    1    2    0  503 -0.15670215254E+02 -0.20299118363E+03 -0.54820291620E+03  0.60965909165E+03  0.17235659090E+03 0.  0.
        -24    2    3    3    0    0  0.54331339212E+02 -0.82255988580E+02 -0.27852206710E+03  0.30597001493E+03  0.79530912822E+02 0.  0.
          6    2    1    2  501    0  0.15670215254E+02  0.20299118363E+03 -0.16367306715E+03  0.31325656972E+03  0.17288675277E+03 0.  0.
         24    2    5    5    0    0  0.62766399032E+02  0.18899442748E+03 -0.11248644014E+03  0.24215016710E+03  0.79529804114E+02 0.  0.
          5    1    5    5  501    0 -0.47096183778E+02  0.13996756146E+02 -0.51186627008E+02  0.71106402620E+02  0.47000000000E+01 0. -1.
        -13    1    6    6    0    0  0.79009478014E+01  0.40784461454E+02 -0.64980969871E+02  0.77125376612E+02  0.00000000000E+00 0.  1.
         14    1    6    6    0    0  0.54865451231E+02  0.14820996603E+03 -0.47505470273E+02  0.16502479048E+03  0.00000000000E+00 0. -1.
         -5    1    3    3    0  503 -0.70001554466E+02 -0.12073519505E+03 -0.26968084910E+03  0.30368907672E+03  0.47000000000E+01 0.  1.
         13    1    4    4    0    0  0.31724031435E+02 -0.84689991367E+02 -0.14771070434E+03  0.17319717372E+03  0.00000000000E+00 0. -1.
        -14    1    4    4    0    0  0.22607307777E+02  0.24340027870E+01 -0.13081136276E+03  0.13277284121E+03  0.00000000000E+00 0.  1.
</event>
<event>
12    1  0.8133506E-002  0.1889328E+03  0.7818608E-02  0.1159445E+00
         21   -1    0    0  503  502  0.00000000000E+00  0.00000000000E+00  0.16720689460E+03  0.16720689460E+03  0.00000000000E+00 0.  1.
         21   -1    0    0  501  503 -0.00000000000E+00 -0.00000000000E+00 -0.25851739366E+03  0.25851739366E+03  0.00000000000E+00 0.  1.
          6    2    1    2  501    0  0.55900920061E+01  0.79489538427E+02 -0.13459599650E+03  0.23197347237E+03  0.17130608210E+03 0.  0.
         24    2    3    3    0    0  0.63323021766E+02  0.28619473184E+02 -0.58704241263E+02  0.12379536355E+03  0.83965616548E+02 0.  0.
         -6    2    1    2    0  502 -0.55900920061E+01 -0.79489538427E+02  0.43285497446E+02  0.19375081589E+03  0.17121889066E+03 0.  0.
        -24    2    5    5    0    0 -0.26908123308E+00  0.92562072243E+01  0.61458137660E+02  0.10288577652E+03  0.81991649263E+02 0.  0.
          5    1    3    3  501    0 -0.57732929760E+02  0.50870065243E+02 -0.75891755239E+02  0.10817810883E+03  0.47000000000E+01 0. -1.
        -11    1    4    4    0    0  0.22453236633E+01  0.29054802006E+02 -0.55435862656E+02  0.62628730359E+02  0.00000000000E+00 0.  1.
         12    1    4    4    0    0  0.61077698103E+02 -0.43532882195E+00 -0.32683786076E+01  0.61166633187E+02  0.00000000000E+00 0. -1.
         -5    1    5    5    0  502 -0.53210107730E+01 -0.88745745651E+02 -0.18172640214E+02  0.90865039367E+02  0.47000000000E+01 0.  1.
         11    1    6    6    0    0 -0.66793901278E+01  0.27554483901E+02  0.74370023692E+02  0.79591232303E+02  0.00000000000E+00 0. -1.
        -12    1    6    6    0    0  0.64103088947E+01 -0.18298276677E+02 -0.12911886031E+02  0.23294544219E+02  0.00000000000E+00 0.  1.
</event>
<event>
12    1  0.8133506E-002  0.2623979E+03  0.7818608E-02  0.1105822E+00
         21   -1    0    0  501  502  0.00000000000E+00  0.00000000000E+00  0.81534806097E+02  0.81534806097E+02  0.00000000000E+00 0.  1.
         21   -1    0    0  502  503 -0.00000000000E+00 -0.00000000000E+00 -0.28044211454E+04  0.28044211454E+04  0.00000000000E+00 0.  1.
         -6    2    1    2    0  503 -0.17410166581E+03 -0.94946985240E+02 -0.25679182624E+04  0.25812138677E+04  0.17068833686E+03 0.  0.
        -24    2    3    3    0    0 -0.19310877238E+03 -0.50357980823E+02 -0.20869496445E+04  0.20977861576E+04  0.74303569285E+02 0.  0.
          6    2    1    2  501    0  0.17410166581E+03  0.94946985240E+02 -0.15496807691E+03  0.30474208382E+03  0.17183222266E+03 0.  0.
         24    2    5    5    0    0  0.50954525956E+02  0.74495712797E+02 -0.11798717307E+03  0.17446104203E+03  0.91486104075E+02 0.  0.
          5    1    5    5  501    0  0.12314713986E+03  0.20451272443E+02 -0.36980903848E+02  0.13028104179E+03  0.47000000000E+01 0. -1.
        -11    1    6    6    0    0  0.66419229099E+02  0.73126465867E+02 -0.62629950477E+02  0.11696796442E+03  0.00000000000E+00 0.  1.
         12    1    6    6    0    0 -0.15464703143E+02  0.13692469303E+01 -0.55357222589E+02  0.57493077612E+02  0.00000000000E+00 0. -1.
         -5    1    3    3    0  503  0.19007106569E+02 -0.44589004417E+02 -0.48096861794E+03  0.48342771007E+03  0.47000000000E+01 0.  1.
         11    1    4    4    0    0 -0.14295834725E+03 -0.68124836376E+02 -0.14515253701E+04  0.14601383436E+04  0.00000000000E+00 0. -1.
        -12    1    4    4    0    0 -0.50150425135E+02  0.17766855553E+02 -0.63542427434E+03  0.63764781402E+03  0.00000000000E+00 0.  1.
</event>
<event>
12    1  0.8133506E-002  0.1936502E+03  0.7818608E-02  0.1155341E+00
         21   -1    0    0  501  502  0.00000000000E+00  0.00000000000E+00  0.86094874920E+02  0.86094874920E+02  0.00000000000E+00 0. -1.
         21   -1    0    0  502  503 -0.00000000000E+00 -0.00000000000E+00 -0.69181494599E+03  0.69181494599E+03  0.00000000000E+00 0.  1.
         -6    2    1    2    0  503  0.32982315914E+02  0.83443656202E+02 -0.54048582548E+03  0.57413006469E+03  0.17160922677E+03 0.  0.
        -24    2    3    3    0    0  0.30161953712E+02  0.12194621048E+03 -0.47547013659E+03  0.49837037270E+03  0.80749959096E+02 0.  0.
          6    2    1    2  501    0 -0.32982315914E+02 -0.83443656202E+02 -0.65234245587E+02  0.20377975622E+03  0.17093860103E+03 0.  0.
         24    2    5    5    0    0 -0.26440852741E+02  0.55979407659E+01 -0.76654591231E+02  0.11364812456E+03  0.79432450701E+02 0.  0.
          5    1    5    5  501    0 -0.65414631731E+01 -0.89041596968E+02  0.11420345644E+02  0.90131631660E+02  0.47000000000E+01 0. -1.
        -11    1    6    6    0    0  0.19590817386E+02 -0.22587719055E+02 -0.25897827857E+02  0.39556322701E+02  0.00000000000E+00 0.  1.
         12    1    6    6    0    0 -0.46031670127E+02  0.28185659820E+02 -0.50756763374E+02  0.74091801857E+02  0.00000000000E+00 0. -1.
         -5    1    3    3    0  503  0.28203622015E+01 -0.38502554275E+02 -0.65015688896E+02  0.75759691995E+02  0.47000000000E+01 0.  1.
         13    1    4    4    0    0  0.10337008235E+02  0.22721898776E+02 -0.20550788683E+02  0.32333780149E+02  0.00000000000E+00 0. -1.
        -14    1    4    4    0    0  0.19824945478E+02  0.99224311702E+02 -0.45491934790E+03  0.46603659255E+03  0.00000000000E+00 0.  1.
</event>
<event>
12    1  0.8133506E-002  0.2818316E+03  0.7818608E-02  0.1095105E+00
         21   -1    0    0  501  502  0.00000000000E+00  0.00000000000E+00  0.17874649801E+03  0.17874649801E+03  0.00000000000E+00 0.  1.
         21   -1    0    0  502  503 -0.00000000000E+00 -0.00000000000E+00 -0.49663001802E+03  0.49663001802E+03  0.00000000000E+00 0.  1.
         -6    2    1    2    0  503 -0.21956918946E+03 -0.97300830146E+01 -0.27412607940E+03  0.39315920794E+03  0.17641925038E+03 0.  0.
        -24    2    3    3    0    0 -0.10108411995E+03 -0.23378395985E+02 -0.23316968417E+03  0.26696687674E+03  0.78349620003E+02 0.  0.
          6    2    1    2  501    0  0.21956918946E+03  0.97300830146E+01 -0.43757440618E+02  0.28221730809E+03  0.17154180803E+03 0.  0.
         24    2    5    5    0    0  0.97748422095E+02 -0.57332899524E+02 -0.34009606750E+02  0.14273665261E+03  0.79845370920E+02 0.  0.
          5    1    5    5  501    0  0.12182076736E+03  0.67062982539E+02 -0.97478338682E+01  0.13948065548E+03  0.47000000000E+01 0. -1.
        -11    1    6    6    0    0  0.10949120775E+03 -0.62184795979E+02 -0.30651579516E+02  0.12959472501E+03  0.00000000000E+00 0.  1.
         12    1    6    6    0    0 -0.11742785651E+02  0.48518964550E+01 -0.33580272342E+01  0.13141927597E+02  0.00000000000E+00 0. -1.
         -5    1    3    3    0  503 -0.11848506951E+03  0.13648312970E+02 -0.40956395227E+02  0.12619233120E+03  0.47000000000E+01 0.  1.
         11    1    4    4    0    0 -0.37352843344E+02 -0.41747551496E+02 -0.15290898835E+03  0.16284732629E+03  0.00000000000E+00 0. -1.
        -12    1    4    4    0    0 -0.63731276607E+02  0.18369155511E+02 -0.80260695824E+02  0.10411955045E+03  0.00000000000E+00 0.  1.
</event>
<event>
12    1  0.8133506E-002  0.1794122E+03  0.7818608E-02  0.1168463E+00
         21   -1    0    0  503  502  0.00000000000E+00  0.00000000000E+00  0.35759183769E+02  0.35759183769E+02  0.00000000000E+00 0.  1.
         21   -1    0    0  501  503 -0.00000000000E+00 -0.00000000000E+00 -0.13619106782E+04  0.13619106782E+04  0.00000000000E+00 0.  1.
          6    2    1    2  501    0  0.49644093340E+02  0.16550861919E+00 -0.10712603170E+04  0.10861801920E+04  0.17240701669E+03 0.  0.
         24    2    3    3    0    0  0.55607852979E+02 -0.38839152724E+01 -0.31061307872E+03  0.32548427686E+03  0.79700763501E+02 0.  0.
         -6    2    1    2    0  502 -0.49644093340E+02 -0.16550861919E+00 -0.25489117750E+03  0.31148966999E+03  0.17202249490E+03 0.  0.
        -24    2    5    5    0    0 -0.84413508033E+02 -0.37613891115E+02 -0.21263499113E+03  0.24501434498E+03  0.79233481871E+02 0.  0.
          5    1    3    3  501    0 -0.59637596391E+01  0.40494238915E+01 -0.76064723827E+03  0.76069591516E+03  0.47000000000E+01 0. -1.
        -13    1    4    4    0    0  0.26203312029E+02 -0.40239363568E+02 -0.19380156796E+03  0.19966188340E+03  0.00000000000E+00 0.  1.
         14    1    4    4    0    0  0.29404540950E+02  0.36355448296E+02 -0.11681151076E+03  0.12582239346E+03  0.00000000000E+00 0. -1.
         -5    1    5    5    0  502  0.34769414693E+02  0.37448382496E+02 -0.42256186368E+02  0.66475325016E+02  0.47000000000E+01 0.  1.
         13    1    6    6    0    0 -0.40709173305E+02 -0.35198991613E+02 -0.18633255786E+03  0.19394851874E+03  0.00000000000E+00 0. -1.
        -14    1    6    6    0    0 -0.43704334728E+02 -0.24148995020E+01 -0.26302433265E+02  0.51065826237E+02  0.00000000000E+00 0.  1.
</event>
<event>
12    1  0.8133506E-002  0.1786034E+03  0.7818608E-02  0.1170753E+00
         21   -1    0    0  501  502  0.00000000000E+00  0.00000000000E+00  0.54065435294E+02  0.54065435294E+02  0.00000000000E+00 0.  1.
         21   -1    0    0  502  503 -0.00000000000E+00 -0.00000000000E+00 -0.19404120959E+04  0.19404120959E+04  0.00000000000E+00 0.  1.
         -6    2    1    2    0  503  0.37424714875E+02 -0.16850020292E+02 -0.17764365001E+04  0.17847648122E+04  0.16725508552E+03 0.  0.
        -24    2    3    3    0    0  0.66881258419E+02 -0.34682715243E+02 -0.16504835555E+04  0.16541052270E+04  0.79323019772E+02 0.  0.
          6    2    1    2  501    0 -0.37424714875E+02  0.16850020292E+02 -0.10991016050E+03  0.20971271895E+03  0.17382361359E+03 0.  0.
         24    2    5    5    0    0  0.47093494677E+02 -0.11979286367E+01 -0.49495223385E+02  0.10416125836E+03  0.78616527088E+02 0.  0.
          5    1    5    5  501    0 -0.84518209552E+02  0.18047948929E+02 -0.60414937112E+02  0.10555146059E+03  0.47000000000E+01 0. -1.
        -13    1    6    6    0    0  0.42130205927E+02 -0.36643752413E+02 -0.29040217849E+02  0.62936897724E+02  0.00000000000E+00 0.  1.
         14    1    6    6    0    0  0.49632887503E+01  0.35445823777E+02 -0.20455005536E+02  0.41224360637E+02  0.00000000000E+00 0. -1.
         -5    1    3    3    0  503 -0.29456543544E+02  0.17832694951E+02 -0.12595294462E+03  0.13065958528E+03  0.47000000000E+01 0.  1.
         11    1    4    4    0    0 -0.83930024817E+01 -0.14351212241E+02 -0.81131360931E+02  0.82817253698E+02  0.00000000000E+00 0. -1.
        -12    1    4    4    0    0  0.75274260901E+02 -0.20331503002E+02 -0.15693521946E+04  0.15712879733E+04  0.00000000000E+00 0.  1.
</event>
<event>
12    1  0.8133506E-002  0.1900879E+03  0.7818608E-02  0.1158562E+00
         21   -1    0    0  501  502  0.00000000000E+00  0.00000000000E+00  0.11946379990E+04  0.11946379990E+04  0.00000000000E+00 0.  1.
         21   -1    0    0  502  503 -0.00000000000E+00 -0.00000000000E+00 -0.37834824165E+02  0.37834824165E+02  0.00000000000E+00 0.  1.
         -6    2    1    2    0  503 -0.21889457508E+02 -0.76099007466E+02  0.85764329019E+03  0.87845627493E+03  0.17280974069E+03 0.  0.
        -24    2    3    3    0    0  0.18811604686E+02  0.18977631988E+02  0.46117859299E+03  0.46869721163E+03  0.79229758121E+02 0.  0.
          6    2    1    2  501    0  0.21889457508E+02  0.76099007466E+02  0.29915988466E+03  0.35401654824E+03  0.17193275591E+03 0.  0.
         24    2    5    5    0    0  0.16903965790E+01  0.38904106306E+01  0.58818410974E+02  0.10220670433E+03  0.83478213954E+02 0.  0.
          5    1    5    5  501    0  0.20199060929E+02  0.72208596835E+02  0.24034147368E+03  0.25180984391E+03  0.47000000000E+01 0. -1.
        -11    1    6    6    0    0 -0.25342984975E+02  0.34437969244E+02  0.31607352888E+02  0.53172035598E+02  0.00000000000E+00 0.  1.
         12    1    6    6    0    0  0.27033381554E+02 -0.30547558613E+02  0.27211058086E+02  0.49034668732E+02  0.00000000000E+00 0. -1.
         -5    1    3    3    0  503 -0.40701062194E+02 -0.95076639454E+02  0.39646469720E+03  0.40975906330E+03  0.47000000000E+01 0.  1.
         13    1    4    4    0    0  0.38222621468E+02 -0.89217543856E+01  0.13045239419E+03  0.13622919527E+03  0.00000000000E+00 0. -1.
        -14    1    4    4    0    0 -0.19411016782E+02  0.27899386374E+02  0.33072619880E+03  0.33246801636E+03  0.00000000000E+00 0.  1.
</event>
<event>
12    1  0.8133506E-002  0.1774058E+03  0.7818608E-02  0.1170573E+00
         21   -1    0    0  503  502  0.00000000000E+00  0.00000000000E+00  0.24717990344E+03  0.24717990344E+03  0.00000000000E+00 0. -1.
         21   -1    0    0  501  503 -0.00000000000E+00 -0.00000000000E+00 -0.28968091228E+03  0.28968091228E+03  0.00000000000E+00 0. -1.
          6    2    1    2  501    0  0.34049065686E+02 -0.12167905243E+02 -0.22265312594E+03  0.28468792887E+03  0.17368190914E+03 0.  0.
         24    2    3    3    0    0  0.57887897798E+02 -0.23757558225E+02 -0.55522574876E+02  0.11540319515E+03  0.79496609022E+02 0.  0.
         -6    2    1    2    0  502 -0.34049065686E+02  0.12167905243E+02  0.18015211711E+03  0.25217288685E+03  0.17271069096E+03 0.  0.
        -24    2    5    5    0    0  0.32122701306E+02  0.49993626613E+02  0.11093019378E+03  0.14910372263E+03  0.79969879138E+02 0.  0.
          5    1    3    3  501    0 -0.23838832112E+02  0.11589652982E+02 -0.16713055106E+03  0.16928473372E+03  0.47000000000E+01 0. -1.
        -11    1    4    4    0    0  0.18660106820E+02  0.19768454333E+02 -0.49534178077E+02  0.56503328849E+02  0.00000000000E+00 0.  1.
         12    1    4    4    0    0  0.39227790979E+02 -0.43526012558E+02 -0.59883967989E+01  0.58899866303E+02  0.00000000000E+00 0. -1.
         -5    1    5    5    0  502 -0.66171766992E+02 -0.37825721370E+02  0.69221923327E+02  0.10306916422E+03  0.47000000000E+01 0.  1.
         11    1    6    6    0    0  0.78585829193E+01 -0.68637000483E+01  0.78698684442E+02  0.79387345571E+02  0.00000000000E+00 0. -1.
        -12    1    6    6    0    0  0.24264118386E+02  0.56857326661E+02  0.32231509336E+02  0.69716377059E+02  0.00000000000E+00 0.  1.
</event>
<event>
12    1  0.8133506E-002  0.2100429E+03  0.7818608E-02  0.1141612E+00
         21   -1    0    0  503  502  0.00000000000E+00  0.00000000000E+00  0.55527701901E+02  0.55527701901E+02  0.00000000000E+00 0.  1.
         21   -1    0    0  501  503 -0.00000000000E+00 -0.00000000000E+00 -0.81411580667E+03  0.81411580667E+03  0.00000000000E+00 0.  1.
          6    2    1    2  501    0  0.70377265522E+02 -0.95443133492E+02 -0.44969029956E+03  0.49632587733E+03  0.17336568217E+03 0.  0.
         24    2    3    3    0    0  0.10859292766E+03 -0.10513636832E+03 -0.38919923352E+03  0.42396805326E+03  0.73666728766E+02 0.  0.
         -6    2    1    2    0  502 -0.70377265522E+02  0.95443133492E+02 -0.30889780521E+03  0.37331763124E+03  0.17287523970E+03 0.  0.
        -24    2    5    5    0    0  0.17197654280E+02  0.88938335133E+02 -0.15285183735E+03  0.19419724417E+03  0.78377922230E+02 0.  0.
          5    1    3    3  501    0 -0.38215662137E+02  0.96932348274E+01 -0.60491066040E+02  0.72357824073E+02  0.47000000000E+01 0. -1.
        -11    1    4    4    0    0  0.86257574650E+02 -0.70329911772E+02 -0.18725624633E+03  0.21783380698E+03  0.00000000000E+00 0.  1.
         12    1    4    4    0    0  0.22335353009E+02 -0.34806456548E+02 -0.20194298719E+03  0.20613424628E+03  0.00000000000E+00 0. -1.
         -5    1    5    5    0  502 -0.87574919802E+02  0.65047983599E+01 -0.15604596786E+03  0.17912038707E+03  0.47000000000E+01 0.  1.
         11    1    6    6    0    0  0.28516525868E+02  0.24493167676E+02 -0.10933290564E+03  0.11561484232E+03  0.00000000000E+00 0. -1.
        -12    1    6    6    0    0 -0.11318871588E+02  0.64445167456E+02 -0.43518931711E+02  0.78582401846E+02  0.00000000000E+00 0.  1.
</event>
<event>
12    1  0.8133506E-002  0.1890090E+03  0.7818608E-02  0.1159766E+00
         21   -1    0    0  503  502  0.00000000000E+00  0.00000000000E+00  0.30841381699E+03  0.30841381699E+03  0.00000000000E+00 0. -1.
         21   -1    0    0  501  503 -0.00000000000E+00 -0.00000000000E+00 -0.21870120606E+03  0.21870120606E+03  0.00000000000E+00 0. -1.
          6    2    1    2  501    0 -0.17836778148E+02  0.75273308837E+02 -0.13696713515E+03  0.23197416943E+03  0.17049280775E+03 0.  0.
         24    2    3    3    0    0 -0.25867468434E+02  0.29333303312E+02 -0.30751613679E+02  0.11587592183E+03  0.10465179841E+03 0.  0.
         -6    2    1    2    0  502  0.17836778148E+02 -0.75273308837E+02  0.22667974608E+03  0.29514085362E+03  0.17245345608E+03 0.  0.
        -24    2    5    5    0    0  0.38885391116E+02 -0.10112843346E+03  0.11373715331E+03  0.17728649078E+03  0.82190790692E+02 0.  0.
          5    1    3    3  501    0  0.80306902863E+01  0.45940005525E+02 -0.10621552147E+03  0.11609824760E+03  0.47000000000E+01 0. -1.
        -11    1    4    4    0    0 -0.62347148703E+02  0.31481150993E+02 -0.36624201152E+02  0.78864199287E+02  0.00000000000E+00 0.  1.
         12    1    4    4    0    0  0.36479680269E+02 -0.21478476808E+01  0.58725874724E+01  0.37011722546E+02  0.00000000000E+00 0. -1.
         -5    1    5    5    0  502 -0.21048612968E+02  0.25855124624E+02  0.11294259278E+03  0.11785436284E+03  0.47000000000E+01 0.  1.
         13    1    6    6    0    0 -0.22951505839E+02 -0.51108456659E+02  0.40101986394E+02  0.68898586887E+02  0.00000000000E+00 0. -1.
        -14    1    6    6    0    0  0.61836896954E+02 -0.50019976803E+02  0.73635166913E+02  0.10838790389E+03  0.00000000000E+00 0.  1.
</event>
<event>
12    1  0.8133506E-002  0.2442494E+03  0.7818608E-02  0.1117168E+00
         21   -1    0    0  501  502  0.00000000000E+00  0.00000000000E+00  0.15104473889E+03  0.15104473889E+03  0.00000000000E+00 0. -1.
         21   -1    0    0  502  503 -0.00000000000E+00 -0.00000000000E+00 -0.39819124629E+03  0.39819124629E+03  0.00000000000E+00 0.  1.
         -6    2    1    2    0  503 -0.38809618739E+02 -0.16735513874E+03 -0.92689293394E+02  0.26024674209E+03  0.17211372022E+03 0.  0.
        -24    2    3    3    0    0 -0.18426258024E+02 -0.13098980702E+03 -0.13170003248E+03  0.20295933938E+03  0.79685245548E+02 0.  0.
          6    2    1    2  501    0  0.38809618739E+02  0.16735513874E+03 -0.15445721400E+03  0.28898924309E+03  0.17361976470E+03 0.  0.
         24    2    5    5    0    0 -0.40195958925E+02  0.94254544945E+02 -0.53918861187E+02  0.14162700742E+03  0.81555694360E+02 0.  0.
          5    1    5    5  501    0  0.79005577663E+02  0.73100593795E+02 -0.10053835281E+03  0.14736223567E+03  0.47000000000E+01 0. -1.
        -13    1    6    6    0    0  0.34683511828E+01 -0.10092085597E+02 -0.21429379990E+02  0.23939464872E+02  0.00000000000E+00 0.  1.
         14    1    6    6    0    0 -0.43664310107E+02  0.10434663054E+03 -0.32489481197E+02  0.11768754255E+03  0.00000000000E+00 0. -1.
         -5    1    3    3    0  503 -0.20383360715E+02 -0.36365331716E+02  0.39010739087E+02  0.57287402708E+02  0.47000000000E+01 0.  1.
         11    1    4    4    0    0  0.23592191349E+02 -0.12557109645E+02 -0.11608619527E+02  0.29138162993E+02  0.00000000000E+00 0. -1.
        -12    1    4    4    0    0 -0.42018449372E+02 -0.11843269738E+03 -0.12009141295E+03  0.17382117639E+03  0.00000000000E+00 0.  1.
</event>
<event>
12    1  0.8133506E-002  0.1760028E+03  0.7818608E-02  0.1172466E+00
         21   -1    0    0  503  502  0.00000000000E+00  0.00000000000E+00  0.12871056251E+04  0.12871056251E+04  0.00000000000E+00 0. -1.
         21   -1    0    0  501  503 -0.00000000000E+00 -0.00000000000E+00 -0.27622157183E+02  0.27622157183E+02  0.00000000000E+00 0. -1.
          6    2    1    2  501    0  0.33538108668E+01 -0.29857389491E+02  0.38556136963E+03  0.42383316775E+03  0.17341935468E+03 0.  0.
         24    2    3    3    0    0  0.40619652814E+02 -0.60322064307E+02  0.16450102498E+03  0.19754440230E+03  0.81697588867E+02 0.  0.
         -6    2    1    2    0  502 -0.33538108668E+01  0.29857389491E+02  0.87392209834E+03  0.89089461458E+03  0.17044256680E+03 0.  0.
        -24    2    5    5    0    0  0.42489544255E+01  0.25087962480E+02  0.87639635375E+03  0.88046574053E+03  0.80634309793E+02 0.  0.
          5    1    3    3  501    0 -0.37265841947E+02  0.30464674816E+02  0.22106034465E+03  0.22628876544E+03  0.47000000000E+01 0. -1.
        -13    1    4    4    0    0 -0.20829588338E+02  0.16936530046E+01  0.44319800547E+02  0.48999846238E+02  0.00000000000E+00 0.  1.
         14    1    4    4    0    0  0.61449241151E+02 -0.62015717312E+02  0.12018122443E+03  0.14854455607E+03  0.00000000000E+00 0. -1.
         -5    1    5    5    0  502 -0.76027652923E+01  0.47694270110E+01 -0.24742554109E+01  0.10428874050E+02  0.47000000000E+01 0.  1.
         13    1    6    6    0    0 -0.26461010675E+02 -0.10114687390E+02  0.15563830934E+03  0.15819537073E+03  0.00000000000E+00 0. -1.
        -14    1    6    6    0    0  0.30709965100E+02  0.35202649870E+02  0.72075804441E+03  0.72227036980E+03  0.00000000000E+00 0.  1.
</event>
<event>
12    1  0.8133506E-002  0.2423432E+03  0.7818608E-02  0.1118848E+00
         21   -1    0    0  503  502  0.00000000000E+00  0.00000000000E+00  0.87412675262E+03  0.87412675262E+03  0.00000000000E+00 0. -1.
         21   -1    0    0  501  503 -0.00000000000E+00 -0.00000000000E+00 -0.10396001533E+03  0.10396001533E+03  0.00000000000E+00 0.  1.
          6    2    1    2  501    0  0.11861819881E+03 -0.11151942812E+03  0.92131199168E+02  0.25926505499E+03  0.17950863751E+03 0.  0.
         24    2    3    3    0    0  0.55319519247E+02 -0.56061713550E+02  0.12180898141E+03  0.16990543492E+03  0.88471825620E+02 0.  0.
         -6    2    1    2    0  502 -0.11861819881E+03  0.11151942812E+03  0.67803553812E+03  0.71882171296E+03  0.17454398907E+03 0.  0.
        -24    2    5    5    0    0 -0.13026373314E+01  0.74087437055E+02  0.40944382289E+03  0.42330911692E+03  0.77818501510E+02 0.  0.
          5    1    3    3  501    0  0.63298679562E+02 -0.55457714567E+02 -0.29677782243E+02  0.89359620065E+02  0.47000000000E+01 0. -1.
        -11    1    4    4    0    0 -0.23858426754E+02 -0.13224079561E+02  0.18945369966E+02  0.33211863100E+02  0.00000000000E+00 0.  1.
         12    1    4    4    0    0  0.79177946001E+02 -0.42837633988E+02  0.10286361145E+03  0.13669357182E+03  0.00000000000E+00 0. -1.
         -5    1    5    5    0  502 -0.11731556148E+03  0.37431991062E+02  0.26859171524E+03  0.29551259603E+03  0.47000000000E+01 0.  1.
         11    1    6    6    0    0 -0.32595685272E+02  0.21210194673E+02  0.23868426097E+03  0.24183160978E+03  0.00000000000E+00 0. -1.
        -12    1    6    6    0    0  0.31293047941E+02  0.52877242382E+02  0.17075956192E+03  0.18147750714E+03  0.00000000000E+00 0.  1.
</event>
<event>
12    1  0.8133506E-002  0.2051969E+03  0.7818608E-02  0.1145503E+00
         21   -1    0    0  503  502  0.00000000000E+00  0.00000000000E+00  0.54660778775E+02  0.54660778775E+02  0.00000000000E+00 0. -1.
         21   -1    0    0  501  503 -0.00000000000E+00 -0.00000000000E+00 -0.10653087096E+04  0.10653087096E+04  0.00000000000E+00 0.  1.
          6    2    1    2  501    0 -0.11149779777E+03  0.11932496828E+02 -0.80036796915E+03  0.82616096481E+03  0.17140277227E+03 0.  0.
         24    2    3    3    0    0 -0.69794043352E+02  0.98397784489E+01 -0.21894800127E+03  0.24322456034E+03  0.79069145472E+02 0.  0.
         -6    2    1    2    0  502  0.11149779777E+03 -0.11932496828E+02 -0.21027996165E+03  0.29380852355E+03  0.17184773158E+03 0.  0.
        -24    2    5    5    0    0  0.41702748254E+02 -0.34177666108E+02 -0.32237257582E+02  0.10122739528E+03  0.79375769006E+02 0.  0.
          5    1    3    3  501    0 -0.41703754417E+02  0.20927183788E+01 -0.58141996788E+03  0.58293640447E+03  0.47000000000E+01 0. -1.
        -13    1    4    4    0    0 -0.97847426595E+00  0.28843024495E+02 -0.10383378981E+03  0.10776981665E+03  0.00000000000E+00 0.  1.
         14    1    4    4    0    0 -0.68815569086E+02 -0.19003246046E+02 -0.11511421145E+03  0.13545474369E+03  0.00000000000E+00 0. -1.
         -5    1    5    5    0  502  0.69795049514E+02  0.22245169280E+02 -0.17804270407E+03  0.19258112827E+03  0.47000000000E+01 0.  1.
         13    1    6    6    0    0  0.44356327636E+02  0.13250811500E+02 -0.26600388886E+02  0.53391464633E+02  0.00000000000E+00 0. -1.
        -14    1    6    6    0    0 -0.26535793822E+01 -0.47428477608E+02 -0.56368686957E+01  0.47835930643E+02  0.00000000000E+00 0.  1.
</event>
<event>
12    1  0.8133506E-002  0.1868950E+03  0.7818608E-02  0.1162076E+00
         21   -1    0    0  501  502  0.00000000000E+00  0.00000000000E+00  0.56993805020E+03  0.56993805020E+03  0.00000000000E+00 0. -1.
         21   -1    0    0  502  503 -0.00000000000E+00 -0.00000000000E+00 -0.60825734633E+02  0.60825734633E+02  0.00000000000E+00 0. -1.
         -6    2    1    2    0  503 -0.73208155111E+02 -0.19909992983E+01  0.21995235489E+03  0.28646269310E+03  0.16828083094E+03 0.  0.
        -24    2    3    3    0    0 -0.41481260151E+02  0.63001399996E+02  0.14078587931E+03  0.17913129654E+03  0.81101703089E+02 0.  0.
          6    2    1    2  501    0  0.73208155111E+02  0.19909992983E+01  0.28915996068E+03  0.34430109174E+03  0.17194871578E+03 0.  0.
         24    2    5    5    0    0  0.27996787695E+02  0.13230118256E+02  0.44495490436E+02  0.95196337594E+02  0.78253676411E+02 0.  0.
          5    1    5    5  501    0  0.45211367416E+02 -0.11239118958E+02  0.24466447024E+03  0.24910475414E+03  0.47000000000E+01 0. -1.
        -11    1    6    6    0    0 -0.15970921407E+02  0.21484558384E+02 -0.63081376355E+01  0.27503621215E+02  0.00000000000E+00 0.  1.
         12    1    6    6    0    0  0.43967709102E+02 -0.82544401275E+01  0.50803628072E+02  0.67692716379E+02  0.00000000000E+00 0. -1.
         -5    1    3    3    0  503 -0.31726894960E+02 -0.64992399294E+02  0.79166475586E+02  0.10733139656E+03  0.47000000000E+01 0.  1.
         13    1    4    4    0    0 -0.15015365424E+02 -0.18924444720E+02  0.38295962645E+02  0.45278875447E+02  0.00000000000E+00 0. -1.
        -14    1    4    4    0    0 -0.26465894727E+02  0.81925844716E+02  0.10248991666E+03  0.13385242110E+03  0.00000000000E+00 0.  1.
</event>
<event>
12    1  0.8133506E-002  0.1830009E+03  0.7818608E-02  0.1165122E+00
         21   -1    0    0  501  502  0.00000000000E+00  0.00000000000E+00  0.33015167405E+03  0.33015167405E+03  0.00000000000E+00 0.  1.
         21   -1    0    0  502  503 -0.00000000000E+00 -0.00000000000E+00 -0.10630324351E+03  0.10630324351E+03  0.00000000000E+00 0.  1.
         -6    2    1    2    0  503 -0.19353683225E+02  0.58038213634E+02  0.62887169767E+02  0.19273817891E+03  0.17161063543E+03 0.  0.
        -24    2    3    3    0    0 -0.40317197437E+02 -0.42963389483E+01  0.84280794666E+02  0.12342120725E+03  0.80533267118E+02 0.  0.
          6    2    1    2  501    0  0.19353683225E+02 -0.58038213634E+02  0.16096126076E+03  0.24371673865E+03  0.17247122060E+03 0.  0.
         24    2    5    5    0    0  0.67451081816E+01  0.39300680942E+02  0.73903525807E+02  0.11243469198E+03  0.74764890335E+02 0.  0.
          5    1    5    5  501    0  0.12608575043E+02 -0.97338894576E+02  0.87057734957E+02  0.13128204667E+03  0.47000000000E+01 0. -1.
        -11    1    6    6    0    0 -0.20130101311E+01 -0.78003992238E+01  0.62723953946E+02  0.63239171694E+02  0.00000000000E+00 0.  1.
         12    1    6    6    0    0  0.87581183127E+01  0.47101080166E+02  0.11179571860E+02  0.49195520285E+02  0.00000000000E+00 0. -1.
         -5    1    3    3    0  503  0.20963514212E+02  0.62334552582E+02 -0.21393624898E+02  0.69316971659E+02  0.47000000000E+01 0.  1.
         13    1    4    4    0    0  0.69616464224E+01 -0.20952034887E+02 -0.34826513008E+01  0.22351311973E+02  0.00000000000E+00 0. -1.
        -14    1    4    4    0    0 -0.47278843860E+02  0.16655695939E+02  0.87763445967E+02  0.10106989528E+03  0.00000000000E+00 0.  1.
</event>
<event>
12    1  0.8133506E-002  0.1910117E+03  0.7818608E-02  0.1157763E+00
         21   -1    0    0  503  502  0.00000000000E+00  0.00000000000E+00  0.64014505336E+02  0.64014505336E+02  0.00000000000E+00 0.  1.
         21   -1    0    0  501  503 -0.00000000000E+00 -0.00000000000E+00 -0.85009453926E+03  0.85009453926E+03  0.00000000000E+00 0.  1.
          6    2    1    2  501    0 -0.21055060835E+02 -0.77214511596E+02 -0.65607386125E+03  0.68305263116E+03  0.17240240464E+03 0.  0.
         24    2    3    3    0    0  0.27154123035E+02  0.75898633036E+01 -0.21450291250E+03  0.23081054975E+03  0.80418020269E+02 0.  0.
         -6    2    1    2    0  502  0.21055060835E+02  0.77214511596E+02 -0.13000617268E+03  0.23105641344E+03  0.17343605412E+03 0.  0.
        -24    2    5    5    0    0 -0.44461862673E+02  0.21658716141E+02 -0.10023653397E+03  0.14002216130E+03  0.84337925605E+02 0.  0.
          5    1    3    3  501    0 -0.48209183870E+02 -0.84804374900E+02 -0.44157094875E+03  0.45224208141E+03  0.47000000000E+01 0. -1.
        -11    1    4    4    0    0  0.25520153016E+02 -0.32706536481E+02 -0.14093168302E+03  0.14691063616E+03  0.00000000000E+00 0.  1.
         12    1    4    4    0    0  0.16339700188E+01  0.40296399785E+02 -0.73571229483E+02  0.83899913595E+02  0.00000000000E+00 0. -1.
         -5    1    5    5    0  502  0.65516923508E+02  0.55555795455E+02 -0.29769638711E+02  0.91034252145E+02  0.47000000000E+01 0.  1.
         11    1    6    6    0    0  0.40833017215E+00 -0.19380274592E+01 -0.87800174580E+02  0.87822510442E+02  0.00000000000E+00 0. -1.
        -12    1    6    6    0    0 -0.44870192846E+02  0.23596743600E+02 -0.12436359385E+02  0.52199650854E+02  0.00000000000E+00 0.  1.
</event>
<event>
12    1  0.8133506E-002  0.1749638E+03  0.7818608E-02  0.1173101E+00
         21   -1    0    0  503  502  0.00000000000E+00  0.00000000000E+00  0.53855267339E+02  0.53855267339E+02  0.00000000000E+00 0. -1.
         21   -1    0    0  501  503 -0.00000000000E+00 -0.00000000000E+00 -0.56414880347E+03  0.56414880347E+03  0.00000000000E+00 0. -1.
          6    2    1    2  501    0 -0.22309200051E+02  0.20220384146E+02 -0.25760779981E+03  0.31140666368E+03  0.17235361128E+03 0.  0.
         24    2    3    3    0    0 -0.78358198088E+01 -0.37612963550E+02 -0.22789312212E+03  0.24462922055E+03  0.80200033278E+02 0.  0.
         -6    2    1    2    0  502  0.22309200051E+02 -0.20220384146E+02 -0.25268573632E+03  0.30659740712E+03  0.17101264390E+03 0.  0.
        -24    2    5    5    0    0 -0.89501107182E+00  0.16219993619E+02 -0.25088520789E+03  0.26310409214E+03  0.77566013989E+02 0.  0.
          5    1    3    3  501    0 -0.14473380242E+02  0.57833347696E+02 -0.29714677688E+02  0.66777443133E+02  0.47000000000E+01 0. -1.
        -11    1    4    4    0    0  0.15741644831E+02 -0.79906763740E+01 -0.47285168668E+01  0.18275917560E+02  0.00000000000E+00 0.  1.
         12    1    4    4    0    0 -0.23577464640E+02 -0.29622287176E+02 -0.22316460525E+03  0.22635330299E+03  0.00000000000E+00 0. -1.
         -5    1    5    5    0  502  0.23204211123E+02 -0.36440377765E+02 -0.18005284309E+01  0.43493314982E+02  0.47000000000E+01 0.  1.
         13    1    6    6    0    0 -0.11510020365E+02 -0.17196700466E+02 -0.17503010447E+02  0.27102812592E+02  0.00000000000E+00 0. -1.
        -14    1    6    6    0    0  0.10615009293E+02  0.33416694085E+02 -0.23338219744E+03  0.23600127955E+03  0.00000000000E+00 0.  1.
</event>
<event>
12    1  0.8133506E-002  0.1900590E+03  0.7818608E-02  0.1158486E+00
         21   -1    0    0  503  502  0.00000000000E+00  0.00000000000E+00  0.31252306904E+03  0.31252306904E+03  0.00000000000E+00 0.  1.
         21   -1    0    0  501  503 -0.00000000000E+00 -0.00000000000E+00 -0.18939676203E+03  0.18939676203E+03  0.00000000000E+00 0.  1.
          6    2    1    2  501    0 -0.28165829121E+02  0.76824959580E+02 -0.95364262032E+02  0.21233299000E+03  0.17115948068E+03 0.  0.
         24    2    3    3    0    0 -0.45779175796E+02  0.53205551360E+02  0.88215321944E+01  0.10395921022E+03  0.76178306149E+02 0.  0.
         -6    2    1    2    0  502  0.28165829121E+02 -0.76824959580E+02  0.21849056904E+03  0.28958684106E+03  0.17154305992E+03 0.  0.
        -24    2    5    5    0    0 -0.95895410143E+01 -0.49726003780E+01  0.19334412859E+03  0.20448300469E+03  0.65686079919E+02 0.  0.
          5    1    3    3  501    0  0.17613346675E+02  0.23619408220E+02 -0.10418579423E+03  0.10837377978E+03  0.47000000000E+01 0. -1.
        -11    1    4    4    0    0 -0.13925094324E+02  0.66405726570E+02 -0.18174355889E+01  0.67874382836E+02  0.00000000000E+00 0.  1.
         12    1    4    4    0    0 -0.31854081472E+02 -0.13200175210E+02  0.10638967783E+02  0.36084827386E+02  0.00000000000E+00 0. -1.
         -5    1    5    5    0  502  0.37755370135E+02 -0.71852359201E+02  0.25146440451E+02  0.85103836366E+02  0.47000000000E+01 0.  1.
         13    1    6    6    0    0 -0.24481169313E+02  0.19957516410E+02  0.57839704924E+02  0.65901908758E+02  0.00000000000E+00 0. -1.
        -14    1    6    6    0    0  0.14891628299E+02 -0.24930116788E+02  0.13550442367E+03  0.13858109593E+03  0.00000000000E+00 0.  1.
</event>
<event>
12    1  0.8133506E-002  0.2266989E+03  0.7818608E-02  0.1129058E+00
         21   -1    0    0  501  502  0.00000000000E+00  0.00000000000E+00  0.87173235114E+03  0.87173235114E+03  0.00000000000E+00 0. -1.
         21   -1    0    0  502  503 -0.00000000000E+00 -0.00000000000E+00 -0.59590082394E+02  0.59590082394E+02  0.00000000000E+00 0.  1.
         -6    2    1    2    0  503  0.42050264813E+02 -0.14268736256E+03  0.45765749653E+03  0.51054716422E+03  0.17052892587E+03 0.  0.
        -24    2    3    3    0    0 -0.34727478898E+01 -0.91080850386E+02  0.13772276113E+03  0.18326150658E+03  0.79431980806E+02 0.  0.
          6    2    1    2  501    0 -0.42050264813E+02  0.14268736256E+03  0.35448477221E+03  0.42077526931E+03  0.17106859831E+03 0.  0.
         24    2    5    5    0    0 -0.88356482813E+02  0.80434382105E+02  0.19256849068E+03  0.24116827717E+03  0.82480036555E+02 0.  0.
          5    1    5    5  501    0  0.46306218000E+02  0.62252980452E+02  0.16191628153E+03  0.17960699214E+03  0.47000000000E+01 0. -1.
        -11    1    6    6    0    0 -0.81943970755E+02  0.92800206238E+02  0.19034302225E+03  0.22706201519E+03  0.00000000000E+00 0.  1.
         12    1    6    6    0    0 -0.64125120582E+01 -0.12365824133E+02  0.22254684299E+01  0.14106261983E+02  0.00000000000E+00 0. -1.
         -5    1    3    3    0  503  0.45523012703E+02 -0.51606512171E+02  0.31993473539E+03  0.32728565764E+03  0.47000000000E+01 0.  1.
         11    1    4    4    0    0 -0.16717052660E+02 -0.25503604093E+01  0.67222921822E+02  0.69317280719E+02  0.00000000000E+00 0. -1.
        -12    1    4    4    0    0  0.13244304771E+02 -0.88530489976E+02  0.70499839312E+02  0.11394422586E+03  0.00000000000E+00 0.  1.
</event>
<event>
12    1  0.8133506E-002  0.1866557E+03  0.7818608E-02  0.1161558E+00
         21   -1    0    0  503  502  0.00000000000E+00  0.00000000000E+00  0.26883167311E+04  0.26883167311E+04  0.00000000000E+00 0.  1.
         21   -1    0    0  501  503 -0.00000000000E+00 -0.00000000000E+00 -0.26922071633E+02  0.26922071633E+02  0.00000000000E+00 0.  1.
          6    2    1    2  501    0  0.70202861035E+02 -0.12817212019E+02  0.35286896784E+03  0.39919525339E+03  0.17247498151E+03 0.  0.
         24    2    3    3    0    0  0.75090433550E+02 -0.13573090292E+02  0.36723748750E+03  0.38328915160E+03  0.78894863699E+02 0.  0.
         -6    2    1    2    0  502 -0.70202861035E+02  0.12817212019E+02  0.23085256917E+04  0.23160435494E+04  0.17226180922E+03 0.  0.
        -24    2    5    5    0    0 -0.65861672137E+02 -0.49182426421E+02  0.18146131059E+04  0.18182137256E+04  0.79522052594E+02 0.  0.
          5    1    3    3  501    0 -0.48875725156E+01  0.75587827213E+00 -0.14368519660E+02  0.15906101794E+02  0.47000000000E+01 0. -1.
        -11    1    4    4    0    0 -0.13390676747E+02 -0.12080201102E+02  0.10461116979E+03  0.10615431375E+03  0.00000000000E+00 0.  1.
         12    1    4    4    0    0  0.88481110297E+02 -0.14928891891E+01  0.26262631770E+03  0.27713483785E+03  0.00000000000E+00 0. -1.
         -5    1    5    5    0  502 -0.43411888977E+01  0.61999638441E+02  0.49391258574E+03  0.49782982378E+03  0.47000000000E+01 0.  1.
         11    1    6    6    0    0 -0.34582832177E+02 -0.11677170169E+02  0.23256238860E+03  0.23540941607E+03  0.00000000000E+00 0. -1.
        -12    1    6    6    0    0 -0.31278839959E+02 -0.37505256252E+02  0.15820507173E+04  0.15828043095E+04  0.00000000000E+00 0.  1.
</event>
<event>
12    1  0.8133506E-002  0.1854953E+03  0.7818608E-02  0.1162909E+00
         21   -1    0    0  503  502  0.00000000000E+00  0.00000000000E+00  0.18844353380E+03  0.18844353380E+03  0.00000000000E+00 0. -1.
         21   -1    0    0  501  503 -0.00000000000E+00 -0.00000000000E+00 -0.19956726308E+03  0.19956726308E+03  0.00000000000E+00 0. -1.
          6    2    1    2  501    0 -0.21768677462E+02  0.64116873662E+02  0.53202664484E+02  0.19297417742E+03  0.17269528319E+03 0.  0.
         24    2    3    3    0    0  0.18871442922E+01  0.69357107283E+02  0.98922514935E+02  0.14101792008E+03  0.72707772475E+02 0.  0.
         -6    2    1    2    0  502  0.21768677462E+02 -0.64116873662E+02 -0.64326393772E+02  0.19503661946E+03  0.17122076156E+03 0.  0.
        -24    2    5    5    0    0 -0.30468531495E+01 -0.35006034906E+02 -0.10674159612E+03  0.13772701396E+03  0.79625725988E+02 0.  0.
          5    1    3    3  501    0 -0.23655821754E+02 -0.52402336203E+01 -0.45719850451E+02  0.51956257338E+02  0.47000000000E+01 0. -1.
        -13    1    4    4    0    0 -0.22598597250E+01  0.23265143393E+01  0.66257058024E+02  0.66336395538E+02  0.00000000000E+00 0.  1.
         14    1    4    4    0    0  0.41470040172E+01  0.67030592944E+02  0.32665456911E+02  0.74681524542E+02  0.00000000000E+00 0. -1.
         -5    1    5    5    0  502  0.24815530611E+02 -0.29110838757E+02  0.42415202347E+02  0.57309605501E+02  0.47000000000E+01 0.  1.
         11    1    6    6    0    0 -0.63113415350E+01 -0.60748200407E+02 -0.75898768435E+02  0.97420736677E+02  0.00000000000E+00 0. -1.
        -12    1    6    6    0    0  0.32644883854E+01  0.25742165501E+02 -0.30842827683E+02  0.40306277286E+02  0.00000000000E+00 0.  1.
</event>
<event>
12    1  0.8133506E-002  0.1769767E+03  0.7818608E-02  0.1171043E+00
         21   -1    0    0  503  502  0.00000000000E+00  0.00000000000E+00  0.38394077878E+03  0.38394077878E+03  0.00000000000E+00 0.  1.
         21   -1    0    0  501  503 -0.00000000000E+00 -0.00000000000E+00 -0.97211287359E+02  0.97211287359E+02  0.00000000000E+00 0.  1.
          6    2    1    2  501    0 -0.29693420716E+02 -0.21851118530E+02  0.45672847528E+02  0.18277514017E+03  0.17309411385E+03 0.  0.
         24    2    3    3    0    0 -0.84081805934E+02 -0.17447470097E+02  0.11723230974E+02  0.11833792243E+03  0.80574595495E+02 0.  0.
         -6    2    1    2    0  502  0.29693420716E+02  0.21851118530E+02  0.24105664390E+03  0.29837692597E+03  0.17193403901E+03 0.  0.
        -24    2    5    5    0    0 -0.30587074549E+02  0.12910998628E+02  0.57273501998E+02  0.10469678476E+03  0.81110416672E+02 0.  0.
          5    1    3    3  501    0  0.54388385218E+02 -0.44036484331E+01  0.33949616554E+02  0.64437217742E+02  0.47000000000E+01 0. -1.
        -11    1    4    4    0    0 -0.38845298963E+02 -0.42110016800E+02 -0.16463358148E+02  0.59609168154E+02  0.00000000000E+00 0.  1.
         12    1    4    4    0    0 -0.45236506971E+02  0.24662546703E+02  0.28186589122E+02  0.58728754279E+02  0.00000000000E+00 0. -1.
         -5    1    5    5    0  502  0.60280495265E+02  0.89401199022E+01  0.18378314190E+03  0.19368014121E+03  0.47000000000E+01 0.  1.
         11    1    6    6    0    0  0.22696420916E+02  0.23431861029E+02  0.15171780729E+02  0.35977250648E+02  0.00000000000E+00 0. -1.
        -12    1    6    6    0    0 -0.53283495465E+02 -0.10520862401E+02  0.42101721269E+02  0.68719534111E+02  0.00000000000E+00 0.  1.
</event>
<event>
12    1  0.8133506E-002  0.2609660E+03  0.7818608E-02  0.1106623E+00
         21   -1    0    0  503  502  0.00000000000E+00  0.00000000000E+00  0.78058149224E+03  0.78058149224E+03  0.00000000000E+00 0.  1.
         21   -1    0    0  501  503 -0.00000000000E+00 -0.00000000000E+00 -0.91826880130E+02  0.91826880130E+02  0.00000000000E+00 0. -1.
          6    2    1    2  501    0 -0.92828221059E+02  0.17276037172E+03  0.24581514064E+03  0.35850851272E+03  0.17216284635E+03 0.  0.
         24    2    3    3    0    0 -0.11288000539E+03  0.18890512431E+03  0.20930843804E+03  0.31359129525E+03  0.78118094018E+02 0.  0.
         -6    2    1    2    0  502  0.92828221059E+02 -0.17276037172E+03  0.44293947147E+03  0.51389985965E+03  0.17156475657E+03 0.  0.
        -24    2    5    5    0    0  0.10308528040E+03 -0.86301995538E+02  0.36408999879E+03  0.39634311837E+03  0.80322666716E+02 0.  0.
          5    1    3    3  501    0  0.20051784333E+02 -0.16144752583E+02  0.36506702597E+02  0.44917217472E+02  0.47000000000E+01 0. -1.
        -13    1    4    4    0    0 -0.80448942900E+02  0.60286575137E+02  0.98661917590E+02  0.14085693997E+03  0.00000000000E+00 0.  1.
         14    1    4    4    0    0 -0.32431062493E+02  0.12861854917E+03  0.11064652045E+03  0.17273435528E+03  0.00000000000E+00 0. -1.
         -5    1    5    5    0  502 -0.10257059340E+02 -0.86458376185E+02  0.78849472675E+02  0.11755674128E+03  0.47000000000E+01 0.  1.
         13    1    6    6    0    0  0.49529388474E+02 -0.14196741421E+02  0.59118050513E+02  0.78419714907E+02  0.00000000000E+00 0. -1.
        -14    1    6    6    0    0  0.53555891925E+02 -0.72105254117E+02  0.30497194828E+03  0.31792340346E+03  0.00000000000E+00 0.  1.
</event>
<event>
12    1  0.8133506E-002  0.2052012E+03  0.7818608E-02  0.1145520E+00
         21   -1    0    0  501  502  0.00000000000E+00  0.00000000000E+00  0.10701624635E+03  0.10701624635E+03  0.00000000000E+00 0. -1.
         21   -1    0    0  502  503 -0.00000000000E+00 -0.00000000000E+00 -0.39857782385E+03  0.39857782385E+03  0.00000000000E+00 0. -1.
         -6    2    1    2    0  503 -0.11094870417E+03  0.16749430004E+02 -0.11489286798E+03  0.23517628958E+03  0.17180616318E+03 0.  0.
        -24    2    3    3    0    0 -0.10258348565E+03 -0.96972309469E+01 -0.14743380745E+02  0.13115027096E+03  0.79784826129E+02 0.  0.
          6    2    1    2  501    0  0.11094870417E+03 -0.16749430004E+02 -0.17666870952E+03  0.27041778062E+03  0.17124188970E+03 0.  0.
         24    2    5    5    0    0  0.25400347610E+02 -0.32603327348E+02 -0.15448518397E+03  0.18050634543E+03  0.83718062944E+02 0.  0.
          5    1    5    5  501    0  0.85548356558E+02  0.15853897344E+02 -0.22183525554E+02  0.89911435184E+02  0.47000000000E+01 0. -1.
        -11    1    6    6    0    0  0.10674782784E+02  0.14284708713E+02  0.57724796826E+00  0.17842003972E+02  0.00000000000E+00 0.  1.
         12    1    6    6    0    0  0.14725564827E+02 -0.46888036061E+02 -0.15506243194E+03  0.16266434146E+03  0.00000000000E+00 0. -1.
         -5    1    3    3    0  503 -0.83652185135E+01  0.26446660951E+02 -0.10014948724E+03  0.10402601862E+03  0.47000000000E+01 0.  1.
         11    1    4    4    0    0 -0.25155991511E+02 -0.21819164543E+02  0.26529478769E+02  0.42575968503E+02  0.00000000000E+00 0. -1.
        -12    1    4    4    0    0 -0.77427494144E+02  0.12121933596E+02 -0.41272859514E+02  0.88574302458E+02  0.00000000000E+00 0.  1.
</event>
<event>
12    1  0.8133506E-002  0.1744194E+03  0.7818608E-02  0.1174111E+00
         21   -1    0    0  501  502  0.00000000000E+00  0.00000000000E+00  0.95798370465E+02  0.95798370465E+02  0.00000000000E+00 0.  1.
         21   -1    0    0  502  503 -0.00000000000E+00 -0.00000000000E+00 -0.31465860946E+03  0.31465860946E+03  0.00000000000E+00 0.  1.
         -6    2    1    2    0  503 -0.39759176603E+01  0.16067391754E+02 -0.12765448637E+03  0.21363062812E+03  0.17049459927E+03 0.  0.
        -24    2    3    3    0    0 -0.65550181454E+02 -0.76279990529E+01 -0.93718720478E+02  0.13928960503E+03  0.79141536768E+02 0.  0.
          6    2    1    2  501    0  0.39759176603E+01 -0.16067391754E+02 -0.91205752621E+02  0.19682635181E+03  0.17363223910E+03 0.  0.
         24    2    5    5    0    0  0.13631471910E+02 -0.57549573561E+02 -0.11223318121E+03  0.14909539866E+03  0.78328669685E+02 0.  0.
          5    1    5    5  501    0 -0.96555542500E+01  0.41482181807E+02  0.21027428587E+02  0.47730953147E+02  0.47000000000E+01 0. -1.
        -11    1    6    6    0    0  0.38121856825E+02 -0.28982532618E+01 -0.41971938904E+02  0.56774285509E+02  0.00000000000E+00 0.  1.
         12    1    6    6    0    0 -0.24490384914E+02 -0.54651320300E+02 -0.70261242304E+02  0.92321113153E+02  0.00000000000E+00 0. -1.
         -5    1    3    3    0  503  0.61574263793E+02  0.23695390807E+02 -0.33935765896E+02  0.74341023091E+02  0.47000000000E+01 0.  1.
         11    1    4    4    0    0 -0.85793674856E+01  0.32149394074E+02 -0.25568556093E+02  0.41963557362E+02  0.00000000000E+00 0. -1.
        -12    1    4    4    0    0 -0.56970813968E+02 -0.39777393127E+02 -0.68150164385E+02  0.97326047664E+02  0.00000000000E+00 0.  1.
</event>
<event>
12    1  0.8133506E-002  0.1781174E+03  0.7818608E-02  0.1169668E+00
         21   -1    0    0  503  502  0.00000000000E+00  0.00000000000E+00  0.94451440203E+03  0.94451440203E+03  0.00000000000E+00 0. -1.
         21   -1    0    0  501  503 -0.00000000000E+00 -0.00000000000E+00 -0.34857511998E+02  0.34857511998E+02  0.00000000000E+00 0. -1.
          6    2    1    2  501    0  0.33131920603E+02  0.41401868115E+02  0.54923036749E+03  0.57739052763E+03  0.17004113027E+03 0.  0.
         24    2    3    3    0    0  0.11881364878E+02  0.74051408257E+02  0.22063493115E+03  0.24646058131E+03  0.80238814799E+02 0.  0.
         -6    2    1    2    0  502 -0.33131920603E+02 -0.41401868115E+02  0.36042652254E+03  0.40198138639E+03  0.16991150052E+03 0.  0.
        -24    2    5    5    0    0 -0.45157300150E+02  0.31974012069E+02  0.16224786653E+03  0.19026105377E+03  0.82543195875E+02 0.  0.
          5    1    3    3  501    0  0.21250555725E+02 -0.32649540142E+02  0.32859543634E+03  0.33092994632E+03  0.47000000000E+01 0. -1.
        -13    1    4    4    0    0 -0.21801241093E+02  0.36011180176E+02  0.16843368542E+03  0.17361453164E+03  0.00000000000E+00 0.  1.
         14    1    4    4    0    0  0.33682605972E+02  0.38040228082E+02  0.52201245729E+02  0.72846049675E+02  0.00000000000E+00 0. -1.
         -5    1    5    5    0  502  0.12025379546E+02 -0.73375880184E+02  0.19817865601E+03  0.21172033262E+03  0.47000000000E+01 0.  1.
         13    1    6    6    0    0  0.10590232350E+01  0.39996351873E+02  0.30198129254E+02  0.50127404718E+02  0.00000000000E+00 0. -1.
        -14    1    6    6    0    0 -0.46216323385E+02 -0.80223398041E+01  0.13204973728E+03  0.14013364906E+03  0.00000000000E+00 0.  1.
</event>
<event>
12    1  0.8133506E-002  0.2311988E+03  0.7818608E-02  0.1125884E+00
         21   -1    0    0  503  502  0.00000000000E+00  0.00000000000E+00  0.65050373103E+03  0.65050373103E+03  0.00000000000E+00 0. -1.
         21   -1    0    0  501  503 -0.00000000000E+00 -0.00000000000E+00 -0.10886508270E+03  0.10886508270E+03  0.00000000000E+00 0. -1.
          6    2    1    2  501    0  0.14843791410E+03 -0.42542694790E+02  0.45965142937E+03  0.51452144456E+03  0.17207319713E+03 0.  0.
         24    2    3    3    0    0  0.71059460555E+02  0.43384741413E+02  0.21675445759E+03  0.24546387030E+03  0.79613654717E+02 0.  0.
         -6    2    1    2    0  502 -0.14843791410E+03  0.42542694790E+02  0.81987218958E+02  0.24484736917E+03  0.17141947059E+03 0.  0.
        -24    2    5    5    0    0 -0.56098946507E+02  0.17870504773E+01 -0.20847728709E+02  0.10067863490E+03  0.80939943076E+02 0.  0.
          5    1    3    3  501    0  0.77378453541E+02 -0.85927436203E+02  0.24289697179E+03  0.26905757426E+03  0.47000000000E+01 0. -1.
        -13    1    4    4    0    0  0.66021909150E+02  0.86122755559E+01  0.79079132821E+02  0.10337588223E+03  0.00000000000E+00 0.  1.
         14    1    4    4    0    0  0.50375514047E+01  0.34772465858E+02  0.13767532477E+03  0.14208798808E+03  0.00000000000E+00 0. -1.
         -5    1    5    5    0  502 -0.92338967588E+02  0.40755644312E+02  0.10283494767E+03  0.14416873427E+03  0.47000000000E+01 0.  1.
         11    1    6    6    0    0 -0.15872412254E+02  0.27463921872E+02  0.20304739634E+02  0.37662752514E+02  0.00000000000E+00 0. -1.
        -12    1    6    6    0    0 -0.40226534253E+02 -0.25676871394E+02 -0.41152468343E+02  0.63015882390E+02  0.00000000000E+00 0.  1.
</event>
<event>
12    1  0.8133506E-002  0.1877190E+03  0.7818608E-02  0.1160812E+00
         21   -1    0    0  503  502  0.00000000000E+00  0.00000000000E+00  0.64016725440E+03  0.64016725440E+03  0.00000000000E+00 0.  1.
         21   -1    0    0  501  503 -0.00000000000E+00 -0.00000000000E+00 -0.87062741985E+02  0.87062741985E+02  0.00000000000E+00 0.  1.
          6    2    1    2  501    0 -0.10419235345E+02  0.71707000259E+02  0.54280172276E+02  0.19425332193E+03  0.17186495171E+03 0.  0.
         24    2    3    3    0    0 -0.41120827130E+02  0.93803105131E+02  0.15409670475E+01  0.12918152038E+03  0.78711788646E+02 0.  0.
         -6    2    1    2    0  502  0.10419235345E+02 -0.71707000259E+02  0.49882434014E+03  0.53297667446E+03  0.17317031746E+03 0.  0.
        -24    2    5    5    0    0  0.42124255646E+02 -0.48150933491E+01  0.14181562363E+03  0.16834391512E+03  0.80189554262E+02 0.  0.
          5    1    3    3  501    0  0.30701591785E+02 -0.22096104872E+02  0.52739205229E+02  0.65071801549E+02  0.47000000000E+01 0. -1.
        -13    1    4    4    0    0 -0.38096673978E+02  0.57740475011E+02 -0.35194749576E+02  0.77614363493E+02  0.00000000000E+00 0.  1.
         14    1    4    4    0    0 -0.30241531519E+01  0.36062630120E+02  0.36735716624E+02  0.51567156886E+02  0.00000000000E+00 0. -1.
         -5    1    5    5    0  502 -0.31705020302E+02 -0.66891906910E+02  0.35700871651E+03  0.36463275934E+03  0.47000000000E+01 0.  1.
         11    1    6    6    0    0  0.57704660538E+01 -0.34700497937E+02  0.27275401240E+02  0.44512586404E+02  0.00000000000E+00 0. -1.
        -12    1    6    6    0    0  0.36353789593E+02  0.29885404588E+02  0.11454022239E+03  0.12383132871E+03  0.00000000000E+00 0.  1.
</event>
<event>
12    1  0.8133506E-002  0.2059763E+03  0.7818608E-02  0.1144879E+00
         21   -1    0    0  503  502  0.00000000000E+00  0.00000000000E+00  0.10440728215E+04  0.10440728215E+04  0.00000000000E+00 0.  1.
         21   -1    0    0  501  503 -0.00000000000E+00 -0.00000000000E+00 -0.66490805629E+02  0.66490805629E+02  0.00000000000E+00 0.  1.
          6    2    1    2  501    0  0.77482486650E+02  0.82915435939E+02  0.14227290232E+03  0.25033536835E+03  0.17189448117E+03 0.  0.
         24    2    3    3    0    0 -0.19318699395E+02  0.12238508229E+02  0.35246095509E+02  0.89579263935E+02  0.79114878806E+02 0.  0.
         -6    2    1    2    0  502 -0.77482486650E+02 -0.82915435939E+02  0.83530911352E+03  0.86022825875E+03  0.17138505409E+03 0.  0.
        -24    2    5    5    0    0 -0.46950842381E+02  0.21697252658E+02  0.42206634567E+03  0.43283187236E+03  0.80797754987E+02 0.  0.
          5    1    3    3  501    0  0.96801186044E+02  0.70676927710E+02  0.10702680681E+03  0.16075610441E+03  0.47000000000E+01 0. -1.
        -11    1    4    4    0    0  0.30114955998E+02  0.53350350516E+00  0.52202422506E+01  0.30568711616E+02  0.00000000000E+00 0.  1.
         12    1    4    4    0    0 -0.49433655392E+02  0.11705004724E+02  0.30025853259E+02  0.59010552319E+02  0.00000000000E+00 0. -1.
         -5    1    5    5    0  502 -0.30531644269E+02 -0.10461268860E+03  0.41324276785E+03  0.42739638639E+03  0.47000000000E+01 0.  1.
         11    1    6    6    0    0 -0.44315859988E+02 -0.23590474484E+02  0.24051393081E+03  0.24569769402E+03  0.00000000000E+00 0. -1.
        -12    1    6    6    0    0 -0.26349823924E+01  0.45287727142E+02  0.18155241486E+03  0.18713417834E+03  0.00000000000E+00 0.  1.
</event>
<event>
12    1  0.8133506E-002  0.2881367E+03  0.7818608E-02  0.1091404E+00
         21   -1    0    0  501  502  0.00000000000E+00  0.00000000000E+00  0.52919813632E+03  0.52919813632E+03  0.00000000000E+00 0. -1.
         21   -1    0    0  502  503 -0.00000000000E+00 -0.00000000000E+00 -0.29937009288E+03  0.29937009288E+03  0.00000000000E+00 0.  1.
         -6    2    1    2    0  503  0.14982807711E+03 -0.17530125250E+03  0.40098714410E+03  0.49342917725E+03  0.17176344608E+03 0.  0.
        -24    2    3    3    0    0  0.13087037548E+03 -0.15453075910E+03  0.40951382688E+03  0.46367010861E+03  0.79256447803E+02 0.  0.
          6    2    1    2  501    0 -0.14982807711E+03  0.17530125250E+03 -0.17115910066E+03  0.33513905196E+03  0.17275347924E+03 0.  0.
         24    2    5    5    0    0 -0.14748463905E+03  0.11081320749E+03 -0.65543222286E+02  0.21128024760E+03  0.79448998304E+02 0.  0.
          5    1    5    5  501    0 -0.23434380614E+01  0.64488045013E+02 -0.10561587837E+03  0.12385880435E+03  0.47000000000E+01 0. -1.
        -13    1    6    6    0    0  0.13835172996E+01 -0.87703220769E+01  0.12899961345E+01  0.89719986335E+01  0.00000000000E+00 0.  1.
         14    1    6    6    0    0 -0.14886815635E+03  0.11958352956E+03 -0.66833218421E+02  0.20230824897E+03  0.00000000000E+00 0. -1.
         -5    1    3    3    0  503  0.18957701626E+02 -0.20770493399E+02 -0.85266827872E+01  0.29759068641E+02  0.47000000000E+01 0.  1.
         13    1    4    4    0    0  0.25877198490E+02 -0.84281013742E+02  0.20688994616E+03  0.22489190403E+03  0.00000000000E+00 0. -1.
        -14    1    4    4    0    0  0.10499317699E+03 -0.70249745359E+02  0.20262388073E+03  0.23877820457E+03  0.00000000000E+00 0.  1.
</event>
<event>
12    1  0.8133506E-002  0.2121571E+03  0.7818608E-02  0.1139954E+00
         21   -1    0    0  501  502  0.00000000000E+00  0.00000000000E+00  0.37897468850E+03  0.37897468850E+03  0.00000000000E+00 0. -1.
         21   -1    0    0  502  503 -0.00000000000E+00 -0.00000000000E+00 -0.12938754513E+03  0.12938754513E+03  0.00000000000E+00 0. -1.
         -6    2    1    2    0  503  0.90155946132E+02  0.83327348336E+02  0.51029211773E+02  0.21778369823E+03  0.17249410760E+03 0.  0.
        -24    2    3    3    0    0  0.81337466219E+01 -0.14163336205E+02  0.47977491258E+01  0.82168385953E+02  0.80385740818E+02 0.  0.
          6    2    1    2  501    0 -0.90155946132E+02 -0.83327348336E+02  0.19855793160E+03  0.29057853540E+03  0.17302916352E+03 0.  0.
         24    2    5    5    0    0 -0.63046115803E+02 -0.79225468571E+02  0.47888440183E+02  0.13736249850E+03  0.79521479508E+02 0.  0.
          5    1    5    5  501    0 -0.27109830329E+02 -0.41018797645E+01  0.15066949142E+03  0.15321603690E+03  0.47000000000E+01 0. -1.
        -11    1    6    6    0    0 -0.41374587675E+02 -0.10585367917E+02 -0.11295000623E+02  0.44175599128E+02  0.00000000000E+00 0.  1.
         12    1    6    6    0    0 -0.21671528128E+02 -0.68640100654E+02  0.59183440806E+02  0.93186899373E+02  0.00000000000E+00 0. -1.
         -5    1    3    3    0  503  0.82022199510E+02  0.97490684541E+02  0.46231462648E+02  0.13561531227E+03  0.47000000000E+01 0.  1.
         11    1    4    4    0    0  0.33833277524E+02  0.15135990666E+02  0.17754780049E+02  0.41097701834E+02  0.00000000000E+00 0. -1.
        -12    1    4    4    0    0 -0.25699530902E+02 -0.29299326871E+02 -0.12957030924E+02  0.41070684119E+02  0.00000000000E+00 0.  1.
</event>
<event>
12    1  0.8133506E-002  0.2403240E+03  0.7818608E-02  0.1119865E+00
         21   -1    0    0  503  502  0.00000000000E+00  0.00000000000E+00  0.25535142555E+04  0.25535142555E+04  0.00000000000E+00 0.  1.
         21   -1    0    0  501  503 -0.00000000000E+00 -0.00000000000E+00 -0.26150606303E+02  0.26150606303E+02  0.00000000000E+00 0. -1.
          6    2    1    2  501    0 -0.51560082898E+02  0.15974918002E+03  0.78277139525E+03  0.81883251902E+03  0.17198079635E+03 0.  0.
         24    2    3    3    0    0 -0.89108406920E+02  0.73401919224E+02  0.55026296505E+03  0.56793814643E+03  0.80226289526E+02 0.  0.
         -6    2    1    2    0  502  0.51560082898E+02 -0.15974918002E+03  0.17445922539E+04  0.17608323428E+04  0.16955873377E+03 0.  0.
        -24    2    5    5    0    0  0.78205775354E+02 -0.16088151398E+03  0.16732012454E+04  0.16844776362E+04  0.76573459042E+02 0.  0.
          5    1    3    3  501    0  0.37548324021E+02  0.86347260798E+02  0.23250843020E+03  0.25089437259E+03  0.47000000000E+01 0. -1.
        -13    1    4    4    0    0 -0.27602011785E+02  0.68294975980E+02  0.22135599242E+03  0.23329069887E+03  0.00000000000E+00 0.  1.
         14    1    4    4    0    0 -0.61506395135E+02  0.51069432438E+01  0.32890697263E+03  0.33464744756E+03  0.00000000000E+00 0. -1.
         -5    1    5    5    0  502 -0.26645692456E+02  0.11323339586E+01  0.71391008581E+02  0.76354706553E+02  0.47000000000E+01 0.  1.
         11    1    6    6    0    0  0.49000254801E+02 -0.11174669091E+03  0.78371276474E+03  0.79315449033E+03  0.00000000000E+00 0. -1.
        -12    1    6    6    0    0  0.29205520553E+02 -0.49134823068E+02  0.88948848061E+03  0.89132314589E+03  0.00000000000E+00 0.  1.
</event>
<event>
12    1  0.8133506E-002  0.2574096E+03  0.7818608E-02  0.1109002E+00
         21   -1    0    0  501  502  0.00000000000E+00  0.00000000000E+00  0.27368979059E+03  0.27368979059E+03  0.00000000000E+00 0.  1.
         21   -1    0    0  502  503 -0.00000000000E+00 -0.00000000000E+00 -0.28306650052E+03  0.28306650052E+03  0.00000000000E+00 0. -1.
         -6    2    1    2    0  503 -0.15976767247E+03  0.10023873952E+03 -0.11287149790E+03  0.27932006547E+03  0.17235489511E+03 0.  0.
        -24    2    3    3    0    0 -0.14907721907E+03  0.87460488692E+02 -0.14800012900E+03  0.24015783608E+03  0.76801000746E+02 0.  0.
          6    2    1    2  501    0  0.15976767247E+03 -0.10023873952E+03  0.10349478797E+03  0.27743622563E+03  0.17517469592E+03 0.  0.
         24    2    5    5    0    0  0.17231726098E+03 -0.12295456812E+03  0.10517201887E+03  0.25100888857E+03  0.84458536196E+02 0.  0.
          5    1    5    5  501    0 -0.12549588508E+02  0.22715828598E+02 -0.16772309047E+01  0.26427337061E+02  0.47000000000E+01 0. -1.
        -13    1    6    6    0    0  0.86420759342E+01 -0.23758327385E+02  0.42808654029E+02  0.49716440504E+02  0.00000000000E+00 0.  1.
         14    1    6    6    0    0  0.16367518504E+03 -0.99196240737E+02  0.62363364842E+02  0.20129244807E+03  0.00000000000E+00 0. -1.
         -5    1    3    3    0  503 -0.10690453394E+02  0.12778250832E+02  0.35128631102E+02  0.39162229395E+02  0.47000000000E+01 0.  1.
         13    1    4    4    0    0 -0.88236272384E+02  0.31051316458E+02 -0.34790053276E+02  0.99800660443E+02  0.00000000000E+00 0. -1.
        -14    1    4    4    0    0 -0.60840946691E+02  0.56409172234E+02 -0.11321007572E+03  0.14035717563E+03  0.00000000000E+00 0.  1.
</event>
<event>
12    1  0.8133506E-002  0.2907505E+03  0.7818608E-02  0.1089997E+00
         21   -1    0    0  501  502  0.00000000000E+00  0.00000000000E+00  0.21599811515E+03  0.21599811515E+03  0.00000000000E+00 0. -1.
         21   -1    0    0  502  503 -0.00000000000E+00 -0.00000000000E+00 -0.93476846007E+03  0.93476846007E+03  0.00000000000E+00 0.  1.
         -6    2    1    2    0  503  0.19038436020E+03 -0.13640919821E+03 -0.79832257259E+03  0.84962036841E+03  0.17228513151E+03 0.  0.
        -24    2    3    3    0    0  0.17655125336E+03 -0.16348970464E+03 -0.64196040012E+03  0.69025937051E+03  0.80284585452E+02 0.  0.
          6    2    1    2  501    0 -0.19038436020E+03  0.13640919821E+03  0.79552227673E+02  0.30114620681E+03  0.17177545513E+03 0.  0.
         24    2    5    5    0    0 -0.27171526483E+02  0.18630817608E+02  0.51641358176E+01  0.86516632345E+02  0.79831448423E+02 0.  0.
          5    1    5    5  501    0 -0.16321283371E+03  0.11777838060E+03  0.74388091856E+02  0.21462957447E+03  0.47000000000E+01 0. -1.
        -11    1    6    6    0    0 -0.27831457733E+01 -0.29759002687E+02 -0.76113027632E+01  0.30842763674E+02  0.00000000000E+00 0.  1.
         12    1    6    6    0    0 -0.24388380709E+02  0.48389820295E+02  0.12775438581E+02  0.55673868671E+02  0.00000000000E+00 0. -1.
         -5    1    3    3    0  503  0.13833106835E+02  0.27080506424E+02 -0.15636217247E+03  0.15936099790E+03  0.47000000000E+01 0.  1.
         11    1    4    4    0    0  0.77952977480E+02 -0.27491274859E+02 -0.16426223515E+03  0.18388724477E+03  0.00000000000E+00 0. -1.
        -12    1    4    4    0    0  0.98598275882E+02 -0.13599842978E+03 -0.47769816497E+03  0.50637212574E+03  0.00000000000E+00 0.  1.
</event>
<event>
12    1  0.8133506E-002  0.1869959E+03  0.7818608E-02  0.1162960E+00
         21   -1    0    0  503  502  0.00000000000E+00  0.00000000000E+00  0.43514230759E+03  0.43514230759E+03  0.00000000000E+00 0.  1.
         21   -1    0    0  501  503 -0.00000000000E+00 -0.00000000000E+00 -0.11005591614E+03  0.11005591614E+03  0.00000000000E+00 0.  1.
          6    2    1    2  501    0 -0.68681827257E+02  0.24792451079E+02  0.11234416968E+02  0.17986204425E+03  0.16398866977E+03 0.  0.
         24    2    3    3    0    0 -0.29619194710E+02  0.38303812748E+02 -0.51106604501E+02  0.10491580276E+03  0.77787928879E+02 0.  0.
         -6    2    1    2    0  502  0.68681827257E+02 -0.24792451079E+02  0.31385197448E+03  0.36533617948E+03  0.17214994374E+03 0.  0.
        -24    2    5    5    0    0  0.91973011304E+02  0.32688038130E+02  0.21940669380E+03  0.25224998697E+03  0.77221862179E+02 0.  0.
          5    1    3    3  501    0 -0.39062632547E+02 -0.13511361670E+02  0.62341021468E+02  0.74946241489E+02  0.47000000000E+01 0. -1.
        -13    1    4    4    0    0 -0.53898117281E+02  0.11142144962E+02 -0.33746951412E+02  0.64560136078E+02  0.00000000000E+00 0.  1.
         14    1    4    4    0    0  0.24278922571E+02  0.27161667786E+02 -0.17359653089E+02  0.40355666684E+02  0.00000000000E+00 0. -1.
         -5    1    5    5    0  502 -0.23291184048E+02 -0.57480489209E+02  0.94445280681E+02  0.11308619251E+03  0.47000000000E+01 0.  1.
         13    1    6    6    0    0 -0.35255075451E+01  0.20590808677E+02  0.81061454656E+02  0.83710035458E+02  0.00000000000E+00 0. -1.
        -14    1    6    6    0    0  0.95498518849E+02  0.12097229453E+02  0.13834523914E+03  0.16853995151E+03  0.00000000000E+00 0.  1.
</event>
<event>
12    1  0.8133506E-002  0.2250669E+03  0.7818608E-02  0.1130488E+00
         21   -1    0    0  501  502  0.00000000000E+00  0.00000000000E+00  0.44118254542E+02  0.44118254542E+02  0.00000000000E+00 0. -1.
         21   -1    0    0  502  503 -0.00000000000E+00 -0.00000000000E+00 -0.11652534713E+04  0.11652534713E+04  0.00000000000E+00 0. -1.
         -6    2    1    2    0  503 -0.13218614723E+03 -0.57972430681E+02 -0.47201772533E+03  0.52293005756E+03  0.17268796090E+03 0.  0.
        -24    2    3    3    0    0 -0.91461892577E+01 -0.71877276205E+02 -0.22321920069E+03  0.24498227137E+03  0.70281620051E+02 0.  0.
          6    2    1    2  501    0  0.13218614723E+03  0.57972430681E+02 -0.64911749139E+03  0.68644166824E+03  0.17033691917E+03 0.  0.
         24    2    5    5    0    0  0.84459032937E+02  0.34562121367E+02 -0.60501916009E+03  0.61721253533E+03  0.81087984374E+02 0.  0.
          5    1    5    5  501    0  0.47727114288E+02  0.23410309314E+02 -0.44098331295E+02  0.69229132910E+02  0.47000000000E+01 0. -1.
        -13    1    6    6    0    0  0.17964772933E+02 -0.16959979553E+02 -0.49101584361E+02  0.54966713197E+02  0.00000000000E+00 0.  1.
         14    1    6    6    0    0  0.66494260004E+02  0.51522100920E+02 -0.55591757573E+03  0.56224582213E+03  0.00000000000E+00 0. -1.
         -5    1    3    3    0  503 -0.12303995797E+03  0.13904845524E+02 -0.24879852464E+03  0.27794778619E+03  0.47000000000E+01 0.  1.
         11    1    4    4    0    0  0.10890871243E+02  0.98729775297E+01 -0.18457696231E+02  0.23596044412E+02  0.00000000000E+00 0. -1.
        -12    1    4    4    0    0 -0.20037060500E+02 -0.81750253734E+02 -0.20476150446E+03  0.22138622696E+03  0.00000000000E+00 0.  1.
</event>
<event>
12    1  0.8133506E-002  0.1851402E+03  0.7818608E-02  0.1164491E+00
         21   -1    0    0  503  502  0.00000000000E+00  0.00000000000E+00  0.15796460745E+04  0.15796460745E+04  0.00000000000E+00 0.  1.
         21   -1    0    0  501  503 -0.00000000000E+00 -0.00000000000E+00 -0.23554106602E+02  0.23554106602E+02  0.00000000000E+00 0.  1.
          6    2    1    2  501    0  0.25776622990E+02 -0.45943069039E+02  0.52315874184E+03  0.55495222145E+03  0.17748717994E+03 0.  0.
         24    2    3    3    0    0  0.53059533663E+02 -0.88679853044E+02  0.41432882628E+03  0.43479885927E+03  0.81867217426E+02 0.  0.
         -6    2    1    2    0  502 -0.25776622990E+02  0.45943069039E+02  0.10329332261E+04  0.10482479597E+04  0.17057999747E+03 0.  0.
        -24    2    5    5    0    0  0.27455047846E+01  0.75565314197E+02  0.41935185720E+03  0.43327220778E+03  0.78429403873E+02 0.  0.
          5    1    3    3  501    0 -0.27282910674E+02  0.42736784005E+02  0.10882991556E+03  0.12015336218E+03  0.47000000000E+01 0. -1.
        -13    1    4    4    0    0  0.44457099834E+02 -0.94258496836E+02  0.25970224580E+03  0.27983272579E+03  0.00000000000E+00 0.  1.
         14    1    4    4    0    0  0.86024338294E+01  0.55786437915E+01  0.15462658048E+03  0.15496613348E+03  0.00000000000E+00 0. -1.
         -5    1    5    5    0  502 -0.28522127774E+02 -0.29622245157E+02  0.61358136887E+03  0.61497575188E+03  0.47000000000E+01 0.  1.
         13    1    6    6    0    0  0.38975314915E+02  0.39293672119E+02  0.26191804322E+03  0.26770156744E+03  0.00000000000E+00 0. -1.
        -14    1    6    6    0    0 -0.36229810131E+02  0.36271642078E+02  0.15743381397E+03  0.16557064034E+03  0.00000000000E+00 0.  1.
</event>
<event>
12    1  0.8133506E-002  0.1835936E+03  0.7818608E-02  0.1164553E+00
         21   -1    0    0  503  502  0.00000000000E+00  0.00000000000E+00  0.13075191042E+03  0.13075191042E+03  0.00000000000E+00 0.  1.
         21   -1    0    0  501  503 -0.00000000000E+00 -0.00000000000E+00 -0.42676083186E+03  0.42676083186E+03  0.00000000000E+00 0.  1.
          6    2    1    2  501    0 -0.56967203211E+02 -0.26408120773E+02 -0.32378169938E+03  0.37183035847E+03  0.17169908427E+03 0.  0.
         24    2    3    3    0    0 -0.34947401194E+02 -0.74468528031E+02 -0.14252268898E+03  0.18296110930E+03  0.79969795091E+02 0.  0.
         -6    2    1    2    0  502  0.56967203211E+02  0.26408120773E+02  0.27772777945E+02  0.18568238381E+03  0.17252237356E+03 0.  0.
        -24    2    5    5    0    0  0.61103235543E+02 -0.43273289724E+02  0.36379630547E+02  0.11519285519E+03  0.79622442640E+02 0.  0.
          5    1    3    3  501    0 -0.22019802017E+02  0.48060407258E+02 -0.18125901041E+03  0.18886924916E+03  0.47000000000E+01 0. -1.
        -13    1    4    4    0    0  0.16907435265E+02 -0.27912163654E+02 -0.89890743611E+02  0.95631041164E+02  0.00000000000E+00 0.  1.
         14    1    4    4    0    0 -0.51854836459E+02 -0.46556364377E+02 -0.52631945364E+02  0.87330068138E+02  0.00000000000E+00 0. -1.
         -5    1    5    5    0  502 -0.41360323313E+01  0.69681410497E+02 -0.86068526017E+01  0.70489528612E+02  0.47000000000E+01 0.  1.
         13    1    6    6    0    0  0.56552699383E+02 -0.42452805203E+02 -0.74634474362E+01  0.71106620822E+02  0.00000000000E+00 0. -1.
        -14    1    6    6    0    0  0.45505361599E+01 -0.82048452134E+00  0.43843077983E+02  0.44086234373E+02  0.00000000000E+00 0.  1.
</event>
<event>
12    1  0.8133506E-002  0.2942200E+03  0.7818608E-02  0.1088312E+00
         21   -1    0    0  501  502  0.00000000000E+00  0.00000000000E+00  0.16781844795E+04  0.16781844795E+04  0.00000000000E+00 0.  1.
         21   -1    0    0  502  503 -0.00000000000E+00 -0.00000000000E+00 -0.62788998233E+02  0.62788998233E+02  0.00000000000E+00 0.  1.
         -6    2    1    2    0  503 -0.21746365456E+03 -0.97072636675E+02  0.43543715152E+03  0.52488669952E+03  0.17084202225E+03 0.  0.
        -24    2    3    3    0    0 -0.33003132809E+02 -0.51348644180E+02  0.18388090355E+03  0.20957890788E+03  0.79907708674E+02 0.  0.
          6    2    1    2  501    0  0.21746365456E+03  0.97072636675E+02  0.11799583298E+04  0.12160867783E+04  0.17277689182E+03 0.  0.
         24    2    5    5    0    0  0.17548009728E+03  0.36930847630E+02  0.58427652061E+03  0.61588800979E+03  0.76038385181E+02 0.  0.
          5    1    5    5  501    0  0.41983557284E+02  0.60141789046E+02  0.59568180918E+03  0.60019876846E+03  0.47000000000E+01 0. -1.
        -11    1    6    6    0    0  0.75638144322E+02  0.54615728895E+02  0.27074831424E+03  0.28637153556E+03  0.00000000000E+00 0.  1.
         12    1    6    6    0    0  0.99841952959E+02 -0.17684881265E+02  0.31352820637E+03  0.32951647423E+03  0.00000000000E+00 0. -1.
         -5    1    3    3    0  503 -0.18446052176E+03 -0.45723992495E+02  0.25155624797E+03  0.31530779164E+03  0.47000000000E+01 0.  1.
         11    1    4    4    0    0 -0.14414223519E+02 -0.12942141332E+02  0.15902082513E+03  0.16019641596E+03  0.00000000000E+00 0. -1.
        -12    1    4    4    0    0 -0.18588909290E+02 -0.38406502848E+02  0.24860078421E+02  0.49382491925E+02  0.00000000000E+00 0.  1.
</event>
<event>
12    1  0.8133506E-002  0.2287435E+03  0.7818608E-02  0.1127905E+00
         21   -1    0    0  503  502  0.00000000000E+00  0.00000000000E+00  0.14780494919E+04  0.14780494919E+04  0.00000000000E+00 0. -1.
         21   -1    0    0  501  503 -0.00000000000E+00 -0.00000000000E+00 -0.54881007323E+02  0.54881007323E+02  0.00000000000E+00 0. -1.
          6    2    1    2  501    0 -0.97074310036E+02  0.11140447767E+03  0.24899598906E+03  0.33668443997E+03  0.17182267090E+03 0.  0.
         24    2    3    3    0    0  0.62817617622E+01  0.70902287265E+01  0.93232764170E+02  0.12256248328E+03  0.78990392565E+02 0.  0.
         -6    2    1    2    0  502  0.97074310036E+02 -0.11140447767E+03  0.11741724956E+04  0.11962460593E+04  0.17461158536E+03 0.  0.
        -24    2    5    5    0    0  0.26992885914E+01 -0.10962081400E+02  0.61677329261E+03  0.62204114719E+03  0.79990255222E+02 0.  0.
          5    1    3    3  501    0 -0.10335607180E+03  0.10431424894E+03  0.15576322489E+03  0.21412195669E+03  0.47000000000E+01 0. -1.
        -11    1    4    4    0    0  0.33132587618E+02  0.48782890390E+01  0.89251872278E+02  0.95328184559E+02  0.00000000000E+00 0.  1.
         12    1    4    4    0    0 -0.26850825856E+02  0.22119396875E+01  0.39808918919E+01  0.27234298716E+02  0.00000000000E+00 0. -1.
         -5    1    5    5    0  502  0.94375021444E+02 -0.10044239627E+03  0.55739920295E+03  0.57420491211E+03  0.47000000000E+01 0.  1.
         13    1    6    6    0    0 -0.30099571826E+02 -0.24595544494E+02  0.19900924545E+03  0.20276983209E+03  0.00000000000E+00 0. -1.
        -14    1    6    6    0    0  0.32798860418E+02  0.13633463094E+02  0.41776404716E+03  0.41927131510E+03  0.00000000000E+00 0.  1.
</event>
<event>
12    1  0.8133506E-002  0.1939818E+03  0.7818608E-02  0.1155809E+00
         21   -1    0    0  501  502  0.00000000000E+00  0.00000000000E+00  0.10665528983E+03  0.10665528983E+03  0.00000000000E+00 0.  1.
         21   -1    0    0  502  503 -0.00000000000E+00 -0.00000000000E+00 -0.42170231519E+03  0.42170231519E+03  0.00000000000E+00 0.  1.
         -6    2    1    2    0  503  0.56928612435E+02  0.61077056769E+02 -0.27113513299E+03  0.33338143316E+03  0.17509324904E+03 0.  0.
        -24    2    3    3    0    0 -0.29570171119E+02 -0.59740934840E+01 -0.12149474726E+03  0.14793000732E+03  0.78817692434E+02 0.  0.
          6    2    1    2  501    0 -0.56928612435E+02 -0.61077056769E+02 -0.43911892375E+02  0.19497617187E+03  0.17063463753E+03 0.  0.
         24    2    5    5    0    0 -0.15699117300E+02 -0.10128528373E+03 -0.43420104197E+02  0.13719291616E+03  0.80196133400E+02 0.  0.
          5    1    5    5  501    0 -0.41229495135E+02  0.40208226959E+02 -0.49178817765E+00  0.57783255705E+02  0.47000000000E+01 0. -1.
        -11    1    6    6    0    0  0.21350754016E+02 -0.57223476098E+02  0.59339634433E+01  0.61364426470E+02  0.00000000000E+00 0.  1.
         12    1    6    6    0    0 -0.37049871316E+02 -0.44061807630E+02 -0.49354067641E+02  0.75828489691E+02  0.00000000000E+00 0. -1.
         -5    1    3    3    0  503  0.86498783554E+02  0.67051150253E+02 -0.14964038573E+03  0.18545142584E+03  0.47000000000E+01 0.  1.
         11    1    4    4    0    0  0.19373196017E+02 -0.11220614368E+02 -0.81461893956E+02  0.84482324054E+02  0.00000000000E+00 0. -1.
        -12    1    4    4    0    0 -0.48943367135E+02  0.52465208843E+01 -0.40032853302E+02  0.63447683263E+02  0.00000000000E+00 0.  1.
</event>
<event>
12    1  0.8133506E-002  0.3073299E+03  0.7818608E-02  0.1081656E+00
         21   -1    0    0  501  502  0.00000000000E+00  0.00000000000E+00  0.14921563092E+03  0.14921563092E+03  0.00000000000E+00 0.  1.
         21   -1    0    0  502  503 -0.00000000000E+00 -0.00000000000E+00 -0.72878445101E+03  0.72878445101E+03  0.00000000000E+00 0. -1.
         -6    2    1    2    0  503 -0.19892635198E+03 -0.16015452076E+03 -0.44919885307E+03  0.54416182162E+03  0.17062038119E+03 0.  0.
        -24    2    3    3    0    0 -0.79005479910E+02 -0.16449272340E+02 -0.11643048699E+03  0.16233844695E+03  0.79279686180E+02 0.  0.
          6    2    1    2  501    0  0.19892635198E+03  0.16015452076E+03 -0.13036996701E+03  0.33383826031E+03  0.17096927127E+03 0.  0.
         24    2    5    5    0    0  0.11048615380E+03  0.14712582025E+03 -0.35802307488E+02  0.20362094995E+03  0.79539228500E+02 0.  0.
          5    1    5    5  501    0  0.88440198179E+02  0.13028700513E+02 -0.94567659524E+02  0.13021731037E+03  0.47000000000E+01 0. -1.
        -11    1    6    6    0    0 -0.54485228291E+01  0.31772083378E+02 -0.22949460954E+02  0.39570562812E+02  0.00000000000E+00 0.  1.
         12    1    6    6    0    0  0.11593467663E+03  0.11535373687E+03 -0.12852846534E+02  0.16405038713E+03  0.00000000000E+00 0. -1.
         -5    1    3    3    0  503 -0.11992087207E+03 -0.14370524842E+03 -0.33276836608E+03  0.38182337467E+03  0.47000000000E+01 0.  1.
         13    1    4    4    0    0 -0.83564344256E+02 -0.36352711847E+01 -0.12176755372E+03  0.14772796609E+03  0.00000000000E+00 0. -1.
        -14    1    4    4    0    0  0.45588643459E+01 -0.12814001155E+02  0.53370667238E+01  0.14610480859E+02  0.00000000000E+00 0.  1.
</event>
<event>
12    1  0.8133506E-002  0.1780349E+03  0.7818608E-02  0.1169934E+00
         21   -1    0    0  503  502  0.00000000000E+00  0.00000000000E+00  0.13860381753E+03  0.13860381753E+03  0.00000000000E+00 0. -1.
         21   -1    0    0  501  503 -0.00000000000E+00 -0.00000000000E+00 -0.50948699595E+03  0.50948699595E+03  0.00000000000E+00 0.  1.
          6    2    1    2  501    0 -0.42246984284E+02  0.20691064662E+02 -0.42628775732E+03  0.46163409587E+03  0.17079771247E+03 0.  0.
         24    2    3    3    0    0 -0.65852118112E+02 -0.34729300659E+02 -0.33541028284E+03  0.35250378567E+03  0.78843105552E+02 0.  0.
         -6    2    1    2    0  502  0.42246984284E+02 -0.20691064662E+02  0.55404578903E+02  0.18645671761E+03  0.17170763623E+03 0.  0.
        -24    2    5    5    0    0  0.55260374053E+02 -0.58869060289E+02  0.39141618201E+02  0.14271335749E+03  0.11097639809E+03 0.  0.
          5    1    3    3  501    0  0.23605133828E+02  0.55420365320E+02 -0.90877474477E+02  0.10913031019E+03  0.47000000000E+01 0. -1.
        -11    1    4    4    0    0 -0.54653501051E+02  0.43486375979E+01 -0.26985059723E+03  0.27536386954E+03  0.00000000000E+00 0.  1.
         12    1    4    4    0    0 -0.11198617061E+02 -0.39077938257E+02 -0.65559685616E+02  0.77139916130E+02  0.00000000000E+00 0. -1.
         -5    1    5    5    0  502 -0.13013389769E+02  0.38177995627E+02  0.16262960702E+02  0.43743360115E+02  0.47000000000E+01 0.  1.
         13    1    6    6    0    0 -0.20973823342E+02  0.40239326673E+01  0.38333392355E+02  0.43881001232E+02  0.00000000000E+00 0. -1.
        -14    1    6    6    0    0  0.76234197394E+02 -0.62892992956E+02  0.80822584618E+00  0.98832356262E+02  0.00000000000E+00 0.  1.
</event>
<event>
12    1  0.8133506E-002  0.1916164E+03  0.7818608E-02  0.1157380E+00
         21   -1    0    0  503  502  0.00000000000E+00  0.00000000000E+00  0.32818017498E+03  0.32818017498E+03  0.00000000000E+00 0.  1.
         21   -1    0    0  501  503 -0.00000000000E+00 -0.00000000000E+00 -0.14924925494E+03  0.14924925494E+03  0.00000000000E+00 0.  1.
          6    2    1    2  501    0  0.81584072240E+02  0.94032010730E+01 -0.31790959893E+02  0.19261273238E+03  0.17130271016E+03 0.  0.
         24    2    3    3    0    0  0.87878051525E+02  0.46719879737E+02  0.16691270083E+02  0.13092995273E+03  0.83419152008E+02 0.  0.
         -6    2    1    2    0  502 -0.81584072240E+02 -0.94032010730E+01  0.21072187994E+03  0.28481669755E+03  0.17312555988E+03 0.  0.
        -24    2    5    5    0    0 -0.37434334277E+02 -0.49166389358E+02  0.19989618598E+03  0.22423950584E+03  0.80661066123E+02 0.  0.
          5    1    3    3  501    0 -0.62939792847E+01 -0.37316678664E+02 -0.48482229976E+02  0.61682779648E+02  0.47000000000E+01 0. -1.
        -13    1    4    4    0    0  0.96416533715E+02  0.28778258525E+02 -0.59632823463E+01  0.10079631379E+03  0.00000000000E+00 0.  1.
         14    1    4    4    0    0 -0.85384821903E+01  0.17941621212E+02  0.22654552429E+02  0.30133638937E+02  0.00000000000E+00 0. -1.
         -5    1    5    5    0  502 -0.44149737963E+02  0.39763188285E+02  0.10825693962E+02  0.60577191702E+02  0.47000000000E+01 0.  1.
         13    1    6    6    0    0 -0.41521281448E+01  0.98651775218E+01 -0.23357184506E+01  0.10955248804E+02  0.00000000000E+00 0. -1.
        -14    1    6    6    0    0 -0.33282206132E+02 -0.59031566879E+02  0.20223190443E+03  0.21328425704E+03  0.00000000000E+00 0.  1.
</event>
<event>
12    1  0.8133506E-002  0.1865554E+03  0.7818608E-02  0.1161689E+00
         21   -1    0    0  503  502  0.00000000000E+00  0.00000000000E+00  0.44475110191E+02  0.44475110191E+02  0.00000000000E+00 0.  1.
         21   -1    0    0  501  503 -0.00000000000E+00 -0.00000000000E+00 -0.90799686819E+03  0.90799686819E+03  0.00000000000E+00 0.  1.
          6    2    1    2  501    0  0.73044099776E+02  0.19160127491E+02 -0.60949551978E+03  0.63730179966E+03  0.17019472442E+03 0.  0.
         24    2    3    3    0    0  0.61767000368E+02  0.72019429822E+02 -0.49945876009E+03  0.51461741884E+03  0.79812744208E+02 0.  0.
         -6    2    1    2    0  502 -0.73044099776E+02 -0.19160127491E+02 -0.25402623822E+03  0.31517017872E+03  0.17058827877E+03 0.  0.
        -24    2    5    5    0    0 -0.11195667166E+03  0.10153668034E+02 -0.17687367613E+03  0.22380227026E+03  0.78522388928E+02 0.  0.
          5    1    3    3  501    0  0.11277099408E+02 -0.52859302332E+02 -0.11003675969E+03  0.12268438082E+03  0.47000000000E+01 0. -1.
        -13    1    4    4    0    0  0.22710065238E+02 -0.65642449061E+01 -0.23039934981E+03  0.23160893067E+03  0.00000000000E+00 0.  1.
         14    1    4    4    0    0  0.39056935130E+02  0.78583674729E+02 -0.26905941028E+03  0.28300848817E+03  0.00000000000E+00 0. -1.
         -5    1    5    5    0  502  0.38912571885E+02 -0.29313795524E+02 -0.77152562089E+02  0.91367908457E+02  0.47000000000E+01 0.  1.
         11    1    6    6    0    0 -0.65953780582E+02 -0.30112270721E+02 -0.12056582254E+03  0.14068677118E+03  0.00000000000E+00 0. -1.
        -12    1    6    6    0    0 -0.46002891079E+02  0.40265938755E+02 -0.56307853590E+02  0.83115499080E+02  0.00000000000E+00 0.  1.
</event>
<event>
12    1  0.8133506E-002  0.2327353E+03  0.7818608E-02  0.1124846E+00
         21   -1    0    0  503  502  0.00000000000E+00  0.00000000000E+00  0.75879232801E+02  0.75879232801E+02  0.00000000000E+00 0. -1.
         21   -1    0    0  501  503 -0.00000000000E+00 -0.00000000000E+00 -0.78097945045E+03  0.78097945045E+03  0.00000000000E+00 0. -1.
          6    2    1    2  501    0  0.15314074981E+03  0.20100956816E+02 -0.47961600829E+03  0.53280799555E+03  0.17319557442E+03 0.  0.
         24    2    3    3    0    0  0.49325603049E+02  0.27232977650E+01 -0.90499101103E+02  0.12967820852E+03  0.78650613467E+02 0.  0.
         -6    2    1    2    0  502 -0.15314074981E+03 -0.20100956816E+02 -0.22548420936E+03  0.32405068770E+03  0.17409647271E+03 0.  0.
        -24    2    5    5    0    0 -0.14661996689E+03  0.34954285610E+02 -0.13359105404E+03  0.21662609869E+03  0.79756379936E+02 0.  0.
          5    1    3    3  501    0  0.10381514676E+03  0.17377659051E+02 -0.38911690718E+03  0.40312978703E+03  0.47000000000E+01 0. -1.
        -13    1    4    4    0    0 -0.88772696468E+01  0.18019769975E+02 -0.57795126745E+02  0.61186556545E+02  0.00000000000E+00 0.  1.
         14    1    4    4    0    0  0.58202872696E+02 -0.15296472210E+02 -0.32703974358E+02  0.68491651980E+02  0.00000000000E+00 0. -1.
         -5    1    5    5    0  502 -0.65207829118E+01 -0.55055242427E+02 -0.91893155324E+02  0.10742458901E+03  0.47000000000E+01 0.  1.
         13    1    6    6    0    0 -0.63772512694E+02  0.10917686618E+02 -0.93481453488E+01  0.65372142981E+02  0.00000000000E+00 0. -1.
        -14    1    6    6    0    0 -0.82847454200E+02  0.24036598992E+02 -0.12424290869E+03  0.15125395571E+03  0.00000000000E+00 0.  1.
</event>
<event>
12    1  0.8133506E-002  0.2135240E+03  0.7818608E-02  0.1138990E+00
         21   -1    0    0  501  502  0.00000000000E+00  0.00000000000E+00  0.10679303144E+03  0.10679303144E+03  0.00000000000E+00 0.  1.
         21   -1    0    0  502  503 -0.00000000000E+00 -0.00000000000E+00 -0.68430224654E+03  0.68430224654E+03  0.00000000000E+00 0. -1.
         -6    2    1    2    0  503 -0.12333000898E+03  0.10122428105E+02 -0.53262766992E+03  0.57383336942E+03  0.17401076527E+03 0.  0.
        -24    2    3    3    0    0 -0.95011411214E+02  0.32820120926E+02 -0.51908346558E+03  0.53481204564E+03  0.80448438913E+02 0.  0.
          6    2    1    2  501    0  0.12333000898E+03 -0.10122428105E+02 -0.44881545173E+02  0.21726190856E+03  0.17284568015E+03 0.  0.
         24    2    5    5    0    0  0.36822347332E+02  0.43848852184E+02 -0.58162123333E+02  0.11433019150E+03  0.80062182070E+02 0.  0.
          5    1    5    5  501    0  0.86507661647E+02 -0.53971280289E+02  0.13280578160E+02  0.10293171705E+03  0.47000000000E+01 0. -1.
        -13    1    6    6    0    0  0.30082967897E+02 -0.14300587416E+02 -0.22580134866E+01  0.33385481617E+02  0.00000000000E+00 0.  1.
         14    1    6    6    0    0  0.67393794355E+01  0.58149439599E+02 -0.55904109847E+02  0.80944709887E+02  0.00000000000E+00 0. -1.
         -5    1    3    3    0  503 -0.28318597765E+02 -0.22697692821E+02 -0.13544204347E+02  0.39021323788E+02  0.47000000000E+01 0.  1.
         11    1    4    4    0    0 -0.32569175291E+02 -0.10480851093E+02 -0.56673929860E+02  0.66200708037E+02  0.00000000000E+00 0. -1.
        -12    1    4    4    0    0 -0.62442235923E+02  0.43300972019E+02 -0.46240953572E+03  0.46861133760E+03  0.00000000000E+00 0.  1.
</event>
<event>
12    1  0.8133506E-002  0.2851796E+03  0.7818608E-02  0.1092909E+00
         21   -1    0    0  501  502  0.00000000000E+00  0.00000000000E+00  0.75236438224E+03  0.75236438224E+03  0.00000000000E+00 0.  1.
         21   -1    0    0  502  503 -0.00000000000E+00 -0.00000000000E+00 -0.12485906645E+03  0.12485906645E+03  0.00000000000E+00 0.  1.
         -6    2    1    2    0  503  0.21888870089E+03  0.61780653904E+02  0.15276117284E+03  0.32340995126E+03  0.17183977442E+03 0.  0.
        -24    2    3    3    0    0  0.13075920944E+03 -0.14474361509E+01  0.25471778628E+02  0.15610998558E+03  0.81372293620E+02 0.  0.
          6    2    1    2  501    0 -0.21888870089E+03 -0.61780653904E+02  0.47474414295E+03  0.55381349744E+03  0.17204149530E+03 0.  0.
         24    2    5    5    0    0 -0.27815590825E+02 -0.28495652316E+02  0.11431774575E+03  0.14448953953E+03  0.78885808265E+02 0.  0.
          5    1    5    5  501    0 -0.19107311006E+03 -0.33285001588E+02  0.36042639720E+03  0.40932395791E+03  0.47000000000E+01 0. -1.
        -11    1    6    6    0    0 -0.13590800378E+02 -0.37038477596E+02  0.12049075440E+03  0.12678556927E+03  0.00000000000E+00 0.  1.
         12    1    6    6    0    0 -0.14224790446E+02  0.85428252804E+01 -0.61730086567E+01  0.17703970258E+02  0.00000000000E+00 0. -1.
         -5    1    3    3    0  503  0.88129491453E+02  0.63228090055E+02  0.12728939422E+03  0.16729996568E+03  0.47000000000E+01 0.  1.
         11    1    4    4    0    0 -0.14239406528E+01  0.11713486235E+02 -0.13252088263E+02  0.17744047173E+02  0.00000000000E+00 0. -1.
        -12    1    4    4    0    0  0.13218315009E+03 -0.13160922386E+02  0.38723866891E+02  0.13836593841E+03  0.00000000000E+00 0.  1.
</event>
<event>
12    1  0.8133506E-002  0.1791802E+03  0.7818608E-02  0.1169085E+00
         21   -1    0    0  501  502  0.00000000000E+00  0.00000000000E+00  0.71811144095E+03  0.71811144095E+03  0.00000000000E+00 0. -1.
         21   -1    0    0  502  503 -0.00000000000E+00 -0.00000000000E+00 -0.68633072541E+02  0.68633072541E+02  0.00000000000E+00 0. -1.
         -6    2    1    2    0  503 -0.49238273098E+02  0.30353652851E+01  0.88933965359E+02  0.19825866944E+03  0.17018704074E+03 0.  0.
        -24    2    3    3    0    0 -0.59289485915E+02  0.37868437287E+02  0.60634671940E+01  0.10768284899E+03  0.81299253688E+02 0.  0.
          6    2    1    2  501    0  0.49238273098E+02 -0.30353652851E+01  0.56054440305E+03  0.58848584405E+03  0.17225544947E+03 0.  0.
         24    2    5    5    0    0  0.10421328975E+02  0.30371702078E+02  0.50192792369E+03  0.51050655863E+03  0.87488636100E+02 0.  0.
          5    1    5    5  501    0  0.38816944123E+02 -0.33407067363E+02  0.58616479369E+02  0.77979285419E+02  0.47000000000E+01 0. -1.
        -11    1    6    6    0    0  0.47438386407E+02  0.71235994298E+01  0.21648871574E+03  0.22173973532E+03  0.00000000000E+00 0.  1.
         12    1    6    6    0    0 -0.37017057432E+02  0.23248102648E+02  0.28543920794E+03  0.28876682332E+03  0.00000000000E+00 0. -1.
         -5    1    3    3    0  503  0.10051212817E+02 -0.34833072002E+02  0.82870498165E+02  0.90575820451E+02  0.47000000000E+01 0.  1.
         11    1    4    4    0    0  0.17923656159E+02  0.10769797777E+02  0.14459523252E+02  0.25422899263E+02  0.00000000000E+00 0. -1.
        -12    1    4    4    0    0 -0.77213142075E+02  0.27098639509E+02 -0.83960560578E+01  0.82259949730E+02  0.00000000000E+00 0.  1.
</event>
<event>
12    1  0.8133506E-002  0.2003194E+03  0.7818608E-02  0.1149475E+00
         21   -1    0    0  501  502  0.00000000000E+00  0.00000000000E+00  0.50854936704E+03  0.50854936704E+03  0.00000000000E+00 0. -1.
         21   -1    0    0  502  503 -0.00000000000E+00 -0.00000000000E+00 -0.84570584206E+02  0.84570584206E+02  0.00000000000E+00 0. -1.
         -6    2    1    2    0  503  0.69098334773E+01  0.10010852979E+03  0.13518347441E+03  0.24166598812E+03  0.17337362696E+03 0.  0.
        -24    2    3    3    0    0  0.49729172725E+02  0.97989832843E+02  0.14083583813E+03  0.19816858698E+03  0.85796606010E+02 0.  0.
          6    2    1    2  501    0 -0.69098334773E+01 -0.10010852979E+03  0.28879530843E+03  0.35145396313E+03  0.17334270822E+03 0.  0.
         24    2    5    5    0    0 -0.35290804551E+02 -0.55368441482E+02  0.28458023116E+03  0.29809656536E+03  0.59703845057E+02 0.  0.
          5    1    5    5  501    0  0.28380971074E+02 -0.44740088303E+02  0.42150772702E+01  0.53357397771E+02  0.47000000000E+01 0. -1.
        -11    1    6    6    0    0 -0.18075948431E+01 -0.15712296708E+01  0.14257314812E+03  0.14259326326E+03  0.00000000000E+00 0.  1.
         12    1    6    6    0    0 -0.33483209708E+02 -0.53797211811E+02  0.14200708303E+03  0.15550330210E+03  0.00000000000E+00 0. -1.
         -5    1    3    3    0  503 -0.42819339248E+02  0.21186969417E+01 -0.56523637214E+01  0.43497401140E+02  0.47000000000E+01 0.  1.
         13    1    4    4    0    0 -0.16100127971E+02  0.51689398831E+02  0.82864074347E+02  0.98982134194E+02  0.00000000000E+00 0. -1.
        -14    1    4    4    0    0  0.65829300696E+02  0.46300434012E+02  0.57971763782E+02  0.99186452784E+02  0.00000000000E+00 0.  1.
</event>
<event>
12    1  0.8133506E-002  0.2050580E+03  0.7818608E-02  0.1145735E+00
         21   -1    0    0  501  502  0.00000000000E+00  0.00000000000E+00  0.32420256407E+03  0.32420256407E+03  0.00000000000E+00 0. -1.
         21   -1    0    0  502  503 -0.00000000000E+00 -0.00000000000E+00 -0.21205944783E+03  0.21205944783E+03  0.00000000000E+00 0. -1.
         -6    2    1    2    0  503 -0.42769168394E+02 -0.10244547919E+03  0.22370107871E+03  0.30282263391E+03  0.17127491649E+03 0.  0.
        -24    2    3    3    0    0  0.33883750509E+02 -0.87353460212E+02  0.15146189074E+03  0.19631428075E+03  0.82582425015E+02 0.  0.
          6    2    1    2  501    0  0.42769168394E+02  0.10244547919E+03 -0.11155796247E+03  0.23343937799E+03  0.17240790653E+03 0.  0.
         24    2    5    5    0    0  0.80162656628E+02  0.28139076048E+02 -0.40353131478E+02  0.12384041601E+03  0.80561866289E+02 0.  0.
          5    1    5    5  501    0 -0.37393488234E+02  0.74306403143E+02 -0.71204830990E+02  0.10959896198E+03  0.47000000000E+01 0. -1.
        -11    1    6    6    0    0  0.62961045198E+00 -0.22448402856E+02 -0.11706674065E+02  0.25325351287E+02  0.00000000000E+00 0.  1.
         12    1    6    6    0    0  0.79533046176E+02  0.50587478904E+02 -0.28646457413E+02  0.98515064727E+02  0.00000000000E+00 0. -1.
         -5    1    3    3    0  503 -0.76652918903E+02 -0.15092018978E+02  0.72239187969E+02  0.10650835315E+03  0.47000000000E+01 0.  1.
         13    1    4    4    0    0  0.60705896220E+02 -0.55748550032E+02  0.88532934500E+02  0.12095944427E+03  0.00000000000E+00 0. -1.
        -14    1    4    4    0    0 -0.26822145712E+02 -0.31604910180E+02  0.62928956240E+02  0.75354836484E+02  0.00000000000E+00 0.  1.
</event>
<event>
12    1  0.8133506E-002  0.2092400E+03  0.7818608E-02  0.1146606E+00
         21   -1    0    0  501  502  0.00000000000E+00  0.00000000000E+00  0.32705908341E+02  0.32705908341E+02  0.00000000000E+00 0.  1.
         21   -1    0    0  502  503 -0.00000000000E+00 -0.00000000000E+00 -0.12100943363E+04  0.12100943363E+04  0.00000000000E+00 0.  1.
         -6    2    1    2    0  503 -0.78851503645E+02  0.56487546035E+01 -0.65032800347E+03  0.68316020922E+03  0.19373149283E+03 0.  0.
        -24    2    3    3    0    0 -0.77013494692E+02 -0.75027967082E+01 -0.65828831368E+03  0.66698003254E+03  0.74373984393E+02 0.  0.
          6    2    1    2  501    0  0.78851503645E+02 -0.56487546035E+01 -0.52706042453E+03  0.55964003546E+03  0.17074779684E+03 0.  0.
         24    2    5    5    0    0 -0.21570012294E+02 -0.18035168149E+02 -0.27729971883E+03  0.29012119713E+03  0.80527276359E+02 0.  0.
          5    1    5    5  501    0  0.10042151594E+03  0.12386413545E+02 -0.24976070569E+03  0.26951883833E+03  0.47000000000E+01 0. -1.
        -13    1    6    6    0    0 -0.43378629239E+02 -0.26211316159E+02 -0.10887541320E+03  0.12009410547E+03  0.00000000000E+00 0.  1.
         14    1    6    6    0    0  0.21808616945E+02  0.81761480109E+01 -0.16842430564E+03  0.17002709166E+03  0.00000000000E+00 0. -1.
         -5    1    3    3    0  503 -0.18380089530E+01  0.13151551312E+02  0.79603102130E+01  0.16180176683E+02  0.47000000000E+01 0.  1.
         11    1    4    4    0    0 -0.41746487923E+02 -0.37107672690E+02 -0.25345324805E+03  0.25953477141E+03  0.00000000000E+00 0. -1.
        -12    1    4    4    0    0 -0.35267006769E+02  0.29604875982E+02 -0.40483506563E+03  0.40744526112E+03  0.00000000000E+00 0.  1.
</event>
<event>
12    1  0.8133506E-002  0.2449721E+03  0.7818608E-02  0.1116640E+00
         21   -1    0    0  503  502  0.00000000000E+00  0.00000000000E+00  0.24623797829E+03  0.24623797829E+03  0.00000000000E+00 0. -1.
         21   -1    0    0  501  503 -0.00000000000E+00 -0.00000000000E+00 -0.35394101845E+03  0.35394101845E+03  0.00000000000E+00 0.  1.
          6    2    1    2  501    0  0.35025526837E+02  0.16930325259E+03 -0.22180365003E+03  0.32993784743E+03  0.17254490758E+03 0.  0.
         24    2    3    3    0    0  0.67407894643E+02  0.15180484621E+03 -0.22781199849E+03  0.29234792562E+03  0.77333481508E+02 0.  0.
         -6    2    1    2    0  502 -0.35025526837E+02 -0.16930325259E+03  0.11410060986E+03  0.27024114931E+03  0.17355388427E+03 0.  0.
        -24    2    5    5    0    0 -0.41410830849E+02 -0.15211497042E+03  0.23887808087E+02  0.17806388120E+03  0.79260944216E+02 0.  0.
          5    1    3    3  501    0 -0.32382367806E+02  0.17498406376E+02  0.60083484645E+01  0.37589921810E+02  0.47000000000E+01 0. -1.
        -13    1    4    4    0    0  0.44287332654E+02  0.13877661926E+03 -0.22143443085E+03  0.26505381539E+03  0.00000000000E+00 0.  1.
         14    1    4    4    0    0  0.23120561988E+02  0.13028226953E+02 -0.63775676449E+01  0.27294110230E+02  0.00000000000E+00 0. -1.
         -5    1    5    5    0  502  0.63853040118E+01 -0.17188282170E+02  0.90212801778E+02  0.92177268108E+02  0.47000000000E+01 0.  1.
         13    1    6    6    0    0 -0.77732293617E+01 -0.11434593633E+03  0.45172859132E+02  0.12319092277E+03  0.00000000000E+00 0. -1.
        -14    1    6    6    0    0 -0.33637601487E+02 -0.37769034083E+02 -0.21285051045E+02  0.54872958435E+02  0.00000000000E+00 0.  1.
</event>
<event>
12    1  0.8133506E-002  0.2567339E+03  0.7818608E-02  0.1109151E+00
         21   -1    0    0  501  502  0.00000000000E+00  0.00000000000E+00  0.22667582177E+03  0.22667582177E+03  0.00000000000E+00 0. -1.
         21   -1    0    0  502  503 -0.00000000000E+00 -0.00000000000E+00 -0.30439931970E+03  0.30439931970E+03  0.00000000000E+00 0. -1.
         -6    2    1    2    0  503 -0.25476423693E+02  0.18905717282E+03 -0.95498190491E+02  0.27392003108E+03  0.17181564620E+03 0.  0.
        -24    2    3    3    0    0 -0.13897942100E+02  0.85982378320E+02 -0.11910075359E+03  0.16744165073E+03  0.79155509705E+02 0.  0.
          6    2    1    2  501    0  0.25476423693E+02 -0.18905717282E+03  0.17774692564E+02  0.25715511039E+03  0.17152594074E+03 0.  0.
         24    2    5    5    0    0  0.44973616048E+02 -0.16029003119E+03  0.66943490982E+02  0.19676181867E+03  0.80735754543E+02 0.  0.
          5    1    5    5  501    0 -0.19497192354E+02 -0.28767141630E+02 -0.49168798418E+02  0.60393291723E+02  0.47000000000E+01 0. -1.
        -13    1    6    6    0    0  0.26506405972E+02 -0.11853979308E+02  0.31890706265E+02  0.43129149412E+02  0.00000000000E+00 0.  1.
         14    1    6    6    0    0  0.18467210076E+02 -0.14843605188E+03  0.35052784717E+02  0.15363266926E+03  0.00000000000E+00 0. -1.
         -5    1    3    3    0  503 -0.11578481594E+02  0.10307479450E+03  0.23602563099E+02  0.10647838035E+03  0.47000000000E+01 0.  1.
         11    1    4    4    0    0  0.21173347871E+02  0.43423318099E+02 -0.96354336765E+02  0.10778707450E+03  0.00000000000E+00 0. -1.
        -12    1    4    4    0    0 -0.35071289971E+02  0.42559060220E+02 -0.22746416825E+02  0.59654576232E+02  0.00000000000E+00 0.  1.
</event>
<event>
12    1  0.8133506E-002  0.1852285E+03  0.7818608E-02  0.1163656E+00
         21   -1    0    0  501  502  0.00000000000E+00  0.00000000000E+00  0.65750072315E+02  0.65750072315E+02  0.00000000000E+00 0. -1.
         21   -1    0    0  502  503 -0.00000000000E+00 -0.00000000000E+00 -0.61535651844E+03  0.61535651844E+03  0.00000000000E+00 0. -1.
         -6    2    1    2    0  503 -0.26345846399E+02  0.53098830385E+02 -0.41649313382E+03  0.45582466600E+03  0.17548790901E+03 0.  0.
        -24    2    3    3    0    0  0.49346034538E+02  0.80633318158E+01 -0.17127055989E+03  0.19522217612E+03  0.79234114609E+02 0.  0.
          6    2    1    2  501    0  0.26345846399E+02 -0.53098830385E+02 -0.13311331230E+03  0.22528192475E+03  0.17181153132E+03 0.  0.
         24    2    5    5    0    0 -0.38523324477E+02 -0.69952656299E+02 -0.25150572295E+02  0.98120200916E+02  0.51162504718E+02 0.  0.
          5    1    5    5  501    0  0.64869170875E+02  0.16853825915E+02 -0.10796274001E+03  0.12716172383E+03  0.47000000000E+01 0. -1.
        -11    1    6    6    0    0 -0.31800172475E+02 -0.62827512627E+02  0.75840723142E+00  0.70421037296E+02  0.00000000000E+00 0.  1.
         12    1    6    6    0    0 -0.67231520020E+01 -0.71251436729E+01 -0.25908979526E+02  0.27699163621E+02  0.00000000000E+00 0. -1.
         -5    1    3    3    0  503 -0.75691880937E+02  0.45035498569E+02 -0.24522257393E+03  0.26060248988E+03  0.47000000000E+01 0.  1.
         13    1    4    4    0    0  0.25354088972E+02 -0.26934647815E+02 -0.13311166226E+03  0.13815578059E+03  0.00000000000E+00 0. -1.
        -14    1    4    4    0    0  0.23991945567E+02  0.34997979630E+02 -0.38158897633E+02  0.57066395531E+02  0.00000000000E+00 0.  1.
</event>
<event>
12    1  0.8133506E-002  0.2226826E+03  0.7818608E-02  0.1131964E+00
         21   -1    0    0  503  502  0.00000000000E+00  0.00000000000E+00  0.28198678550E+03  0.28198678550E+03  0.00000000000E+00 0.  1.
         21   -1    0    0  501  503 -0.00000000000E+00 -0.00000000000E+00 -0.37555209361E+03  0.37555209361E+03  0.00000000000E+00 0.  1.
          6    2    1    2  501    0  0.64101817885E+02  0.12508429580E+03 -0.28667606548E+03  0.36278592927E+03  0.17226531819E+03 0.  0.
         24    2    3    3    0    0  0.57574907657E+02  0.81841004803E+02 -0.78481116864E+02  0.14999539988E+03  0.79539387860E+02 0.  0.
         -6    2    1    2    0  502 -0.64101817885E+02 -0.12508429580E+03  0.19311075737E+03  0.29475294983E+03  0.17272062040E+03 0.  0.
        -24    2    5    5    0    0 -0.32207884592E+02  0.69915596652E+01  0.83385710117E+02  0.12004482016E+03  0.79820752062E+02 0.  0.
          5    1    3    3  501    0  0.65269102281E+01  0.43243291000E+02 -0.20819494861E+03  0.21279052940E+03  0.47000000000E+01 0. -1.
        -11    1    4    4    0    0 -0.26823716159E+00  0.18539240813E+01 -0.46058337746E+02  0.46096414845E+02  0.00000000000E+00 0.  1.
         12    1    4    4    0    0  0.57843144819E+02  0.79987080721E+02 -0.32422779118E+02  0.10389898503E+03  0.00000000000E+00 0. -1.
         -5    1    5    5    0  502 -0.31893933293E+02 -0.13207585547E+03  0.10972504725E+03  0.17470812967E+03  0.47000000000E+01 0.  1.
         11    1    6    6    0    0 -0.31934106387E+02  0.23918593429E+02  0.92557457565E+02  0.10079071988E+03  0.00000000000E+00 0. -1.
        -12    1    6    6    0    0 -0.27377820515E+00 -0.16927033764E+02 -0.91717474484E+01  0.19254100286E+02  0.00000000000E+00 0.  1.
</event>
<event>
12    1  0.8133506E-002  0.1968657E+03  0.7818608E-02  0.1152545E+00
         21   -1    0    0  501  502  0.00000000000E+00  0.00000000000E+00  0.96841699229E+02  0.96841699229E+02  0.00000000000E+00 0. -1.
         21   -1    0    0  502  503 -0.00000000000E+00 -0.00000000000E+00 -0.41608028068E+03  0.41608028068E+03  0.00000000000E+00 0.  1.
         -6    2    1    2    0  503 -0.83445011131E+02 -0.44009382843E+02 -0.21191986748E+03  0.28925098577E+03  0.17278948717E+03 0.  0.
        -24    2    3    3    0    0 -0.11859654048E+00 -0.35047452256E+01 -0.16829995249E+03  0.18673901564E+03  0.80834946954E+02 0.  0.
          6    2    1    2  501    0  0.83445011131E+02  0.44009382843E+02 -0.10731871397E+03  0.22367099414E+03  0.17207995697E+03 0.  0.
         24    2    5    5    0    0  0.96209692399E+01  0.10976203026E+01 -0.11357963034E+03  0.13792312186E+03  0.77644621820E+02 0.  0.
          5    1    5    5  501    0  0.73824041891E+02  0.42911762540E+02  0.62609163720E+01  0.85747872272E+02  0.47000000000E+01 0. -1.
        -11    1    6    6    0    0  0.42117510117E+02  0.63240083721E+00 -0.42863405438E+02  0.60096223800E+02  0.00000000000E+00 0.  1.
         12    1    6    6    0    0 -0.32496540877E+02  0.46521946537E+00 -0.70716224900E+02  0.77826898064E+02  0.00000000000E+00 0. -1.
         -5    1    3    3    0  503 -0.83326414590E+02 -0.40504637617E+02 -0.43619914997E+02  0.10251197014E+03  0.47000000000E+01 0.  1.
         11    1    4    4    0    0 -0.18398782110E+02 -0.16381328027E+02 -0.95481682894E+01  0.26420268899E+02  0.00000000000E+00 0. -1.
        -12    1    4    4    0    0  0.18280185569E+02  0.12876582801E+02 -0.15875178420E+03  0.16031874674E+03  0.00000000000E+00 0.  1.
</event>
<event>
12    1  0.8133506E-002  0.2102493E+03  0.7818608E-02  0.1141460E+00
         21   -1    0    0  501  502  0.00000000000E+00  0.00000000000E+00  0.39439502243E+02  0.39439502243E+02  0.00000000000E+00 0.  1.
         21   -1    0    0  502  503 -0.00000000000E+00 -0.00000000000E+00 -0.12689707967E+04  0.12689707967E+04  0.00000000000E+00 0.  1.
         -6    2    1    2    0  503 -0.86934419388E+02  0.81538290481E+02 -0.83955203605E+03  0.86536560012E+03  0.17263810285E+03 0.  0.
        -24    2    3    3    0    0 -0.54187803902E+01 -0.16380879396E+02 -0.32299472952E+03  0.33330685885E+03  0.80437369876E+02 0.  0.
          6    2    1    2  501    0  0.86934419388E+02 -0.81538290481E+02 -0.38997925839E+03  0.44304469880E+03  0.17320131949E+03 0.  0.
         24    2    5    5    0    0  0.10298036119E+03 -0.45666396626E+02 -0.37679620340E+03  0.40132961812E+03  0.79998180706E+02 0.  0.
          5    1    5    5  501    0 -0.16045941799E+02 -0.35871893854E+02 -0.13183054990E+02  0.41715080676E+02  0.47000000000E+01 0. -1.
        -13    1    6    6    0    0  0.44598355602E+02  0.63799399142E+01 -0.60059245904E+02  0.75078825072E+02  0.00000000000E+00 0.  1.
         14    1    6    6    0    0  0.58382005585E+02 -0.52046336540E+02 -0.31673695749E+03  0.32625079305E+03  0.00000000000E+00 0. -1.
         -5    1    3    3    0  503 -0.81515638998E+02  0.97919169876E+02 -0.51655730653E+03  0.53205874127E+03  0.47000000000E+01 0.  1.
         11    1    4    4    0    0  0.59370627082E+01 -0.46872903133E+02 -0.22947214407E+03  0.23428568600E+03  0.00000000000E+00 0. -1.
        -12    1    4    4    0    0 -0.11355843098E+02  0.30492023738E+02 -0.93522585448E+02  0.99021172852E+02  0.00000000000E+00 0.  1.
</event>
<event>
12    1  0.8133506E-002  0.2242759E+03  0.7818608E-02  0.1130779E+00
         21   -1    0    0  501  502  0.00000000000E+00  0.00000000000E+00  0.96271085786E+02  0.96271085786E+02  0.00000000000E+00 0. -1.
         21   -1    0    0  502  503 -0.00000000000E+00 -0.00000000000E+00 -0.62149027055E+03  0.62149027055E+03  0.00000000000E+00 0. -1.
         -6    2    1    2    0  503  0.19701073754E+02  0.14360316306E+03 -0.40638653959E+03  0.46416560528E+03  0.17114230574E+03 0.  0.
        -24    2    3    3    0    0  0.40979016035E+02  0.13291883893E+03 -0.40950202904E+03  0.43969721987E+03  0.79341262160E+02 0.  0.
          6    2    1    2  501    0 -0.19701073754E+02 -0.14360316306E+03 -0.11883264517E+03  0.25359575106E+03  0.17082039295E+03 0.  0.
         24    2    5    5    0    0 -0.39433221295E+02 -0.47746850661E+02 -0.87565519282E+00  0.10025387238E+03  0.78837373526E+02 0.  0.
          5    1    5    5  501    0  0.19732147542E+02 -0.95856312395E+02 -0.11795698998E+03  0.15334187868E+03  0.47000000000E+01 0. -1.
        -13    1    6    6    0    0 -0.30584806888E+02  0.98651080771E+01  0.20559119042E+02  0.38150073992E+02  0.00000000000E+00 0.  1.
         14    1    6    6    0    0 -0.88484144070E+01 -0.57611958738E+02 -0.21434774235E+02  0.62103798384E+02  0.00000000000E+00 0. -1.
         -5    1    3    3    0  503 -0.21277942281E+02  0.10684324131E+02  0.31154894469E+01  0.24468385405E+02  0.47000000000E+01 0.  1.
         11    1    4    4    0    0  0.15447295431E+02  0.13319293305E+03 -0.33020108936E+03  0.35638705892E+03  0.00000000000E+00 0. -1.
        -12    1    4    4    0    0  0.25531720604E+02 -0.27409412032E+00 -0.79300939675E+02  0.83310160952E+02  0.00000000000E+00 0.  1.
</event>
<event>
12    1  0.8133506E-002  0.1813186E+03  0.7818608E-02  0.1167459E+00
         21   -1    0    0  503  502  0.00000000000E+00  0.00000000000E+00  0.15576440061E+04  0.15576440061E+04  0.00000000000E+00 0.  1.
         21   -1    0    0  501  503 -0.00000000000E+00 -0.00000000000E+00 -0.21402057750E+02  0.21402057750E+02  0.00000000000E+00 0.  1.
          6    2    1    2  501    0 -0.39372135296E+02 -0.34308601642E+02  0.62942773287E+03  0.65502342596E+03  0.17363517057E+03 0.  0.
         24    2    3    3    0    0 -0.74033394337E+02 -0.43828745125E+01  0.56603849954E+03  0.57668290691E+03  0.81629890922E+02 0.  0.
         -6    2    1    2    0  502  0.39372135296E+02  0.34308601642E+02  0.90681421547E+03  0.92402263788E+03  0.16964247333E+03 0.  0.
        -24    2    5    5    0    0  0.28364811987E+02  0.85089874973E+02  0.72606925935E+03  0.73589840220E+03  0.79530117632E+02 0.  0.
          5    1    3    3  501    0  0.34661259041E+02 -0.29925727130E+02  0.63389233333E+02  0.78340519050E+02  0.47000000000E+01 0. -1.
        -13    1    4    4    0    0 -0.75966505437E+02 -0.31664005140E+02  0.39637300889E+03  0.40482722406E+03  0.00000000000E+00 0.  1.
         14    1    4    4    0    0  0.19331111007E+01  0.27281130628E+02  0.16966549065E+03  0.17185568284E+03  0.00000000000E+00 0. -1.
         -5    1    5    5    0  502  0.11007323309E+02 -0.50781273331E+02  0.18074495612E+03  0.18812423568E+03  0.47000000000E+01 0.  1.
         11    1    6    6    0    0 -0.24877341233E+02  0.91965492256E+01  0.19546076804E+03  0.19725204807E+03  0.00000000000E+00 0. -1.
        -12    1    6    6    0    0  0.53242153220E+02  0.75893325748E+02  0.53060849131E+03  0.53864635413E+03  0.00000000000E+00 0.  1.
</event>
<event>
12    1  0.8133506E-002  0.1778584E+03  0.7818608E-02  0.1170059E+00
         21   -1    0    0  503  502  0.00000000000E+00  0.00000000000E+00  0.72694490375E+02  0.72694490375E+02  0.00000000000E+00 0. -1.
         21   -1    0    0  501  503 -0.00000000000E+00 -0.00000000000E+00 -0.56811645801E+03  0.56811645801E+03  0.00000000000E+00 0. -1.
          6    2    1    2  501    0 -0.42457403460E+01  0.42788421502E+02 -0.40331418515E+03  0.44051755367E+03  0.17188515883E+03 0.  0.
         24    2    3    3    0    0  0.12255354240E+02  0.74826267341E+02 -0.15633359872E+03  0.19087739312E+03  0.79024180627E+02 0.  0.
         -6    2    1    2    0  502  0.42457403460E+01 -0.42788421502E+02 -0.92107782483E+02  0.20029339471E+03  0.17258251662E+03 0.  0.
        -24    2    5    5    0    0 -0.65792266510E+02 -0.33322854187E+02 -0.69616325758E+02  0.12597734668E+03  0.74731680838E+02 0.  0.
          5    1    3    3  501    0 -0.16501094586E+02 -0.32037845839E+02 -0.24698058643E+03  0.24964016056E+03  0.47000000000E+01 0. -1.
        -13    1    4    4    0    0 -0.17809277247E+02  0.36944033378E+02 -0.18852883357E+02  0.45138267238E+02  0.00000000000E+00 0.  1.
         14    1    4    4    0    0  0.30064631487E+02  0.37882233963E+02 -0.13748071536E+03  0.14573912588E+03  0.00000000000E+00 0. -1.
         -5    1    5    5    0  502  0.70038006856E+02 -0.94655673154E+01 -0.22491456726E+02  0.74316048029E+02  0.47000000000E+01 0.  1.
         13    1    6    6    0    0 -0.24765852061E+02 -0.52393908775E+02 -0.27421854449E+02  0.64112613474E+02  0.00000000000E+00 0. -1.
        -14    1    6    6    0    0 -0.41026414449E+02  0.19071054588E+02 -0.42194471309E+02  0.61864733206E+02  0.00000000000E+00 0.  1.
</event>
<event>
12    1  0.8133506E-002  0.2448804E+03  0.7818608E-02  0.1117380E+00
         21   -1    0    0  503  502  0.00000000000E+00  0.00000000000E+00  0.11651009343E+03  0.11651009343E+03  0.00000000000E+00 0.  1.
         21   -1    0    0  501  503 -0.00000000000E+00 -0.00000000000E+00 -0.50725739734E+03  0.50725739734E+03  0.00000000000E+00 0. -1.
          6    2    1    2  501    0  0.13032828988E+03 -0.11621922603E+03 -0.22018714155E+03  0.32931564337E+03  0.17168006297E+03 0.  0.
         24    2    3    3    0    0 -0.39524884296E+01 -0.31688686324E+02 -0.75117764934E+02  0.11427156975E+03  0.79971982839E+02 0.  0.
         -6    2    1    2    0  502 -0.13032828988E+03  0.11621922603E+03 -0.17056016236E+03  0.29445184739E+03  0.16467771496E+03 0.  0.
        -24    2    5    5    0    0 -0.15239693457E+03  0.10433479775E+03 -0.17697061487E+03  0.26815643685E+03  0.80490374627E+02 0.  0.
          5    1    3    3  501    0  0.13428077831E+03 -0.84530539702E+02 -0.14506937662E+03  0.21504407362E+03  0.47000000000E+01 0. -1.
        -11    1    4    4    0    0  0.33299259003E+02 -0.12397287938E+02 -0.10179370164E+02  0.36961506670E+02  0.00000000000E+00 0.  1.
         12    1    4    4    0    0 -0.37251747433E+02 -0.19291398386E+02 -0.64938394771E+02  0.77310063083E+02  0.00000000000E+00 0. -1.
         -5    1    5    5    0  502  0.22068644690E+02  0.11884428274E+02  0.64104525150E+01  0.26295410536E+02  0.47000000000E+01 0.  1.
         13    1    6    6    0    0 -0.10534698883E+03  0.11185813958E+03 -0.13960551079E+03  0.20760522654E+03  0.00000000000E+00 0. -1.
        -14    1    6    6    0    0 -0.47049945749E+02 -0.75233418249E+01 -0.37365104088E+02  0.60551210315E+02  0.00000000000E+00 0.  1.
</event>
<event>
12    1  0.8133506E-002  0.2203518E+03  0.7818608E-02  0.1134015E+00
         21   -1    0    0  503  502  0.00000000000E+00  0.00000000000E+00  0.13854751193E+04  0.13854751193E+04  0.00000000000E+00 0. -1.
         21   -1    0    0  501  503 -0.00000000000E+00 -0.00000000000E+00 -0.45263839166E+02  0.45263839166E+02  0.00000000000E+00 0.  1.
          6    2    1    2  501    0 -0.10265056838E+03 -0.91951966797E+02  0.32716841620E+03  0.39445418321E+03  0.17193785712E+03 0.  0.
         24    2    3    3    0    0 -0.83064431417E+02 -0.12966537551E+03  0.22668437832E+03  0.28525230673E+03  0.79184984364E+02 0.  0.
         -6    2    1    2    0  502  0.10265056838E+03  0.91951966797E+02  0.10130428640E+04  0.10362847753E+04  0.16922762148E+03 0.  0.
        -24    2    5    5    0    0  0.46831369778E+02  0.87622303588E+02  0.91122670797E+03  0.91999570212E+03  0.78658332818E+02 0.  0.
          5    1    3    3  501    0 -0.19586136960E+02  0.37713408716E+02  0.10048403788E+03  0.10920187648E+03  0.47000000000E+01 0. -1.
        -11    1    4    4    0    0 -0.74753735194E+02 -0.52822948961E+02  0.15402845181E+03  0.17917351598E+03  0.00000000000E+00 0.  1.
         12    1    4    4    0    0 -0.83106962232E+01 -0.76842426552E+02  0.72655926505E+02  0.10607879075E+03  0.00000000000E+00 0. -1.
         -5    1    5    5    0  502  0.55819198598E+02  0.43296632098E+01  0.10181615600E+03  0.11628907316E+03  0.47000000000E+01 0.  1.
         11    1    6    6    0    0  0.69190046859E+01  0.56424712647E+02  0.23125900579E+03  0.23814354617E+03  0.00000000000E+00 0. -1.
        -12    1    6    6    0    0  0.39912365092E+02  0.31197590941E+02  0.67996770218E+03  0.68185215595E+03  0.00000000000E+00 0.  1.
</event>
<event>
12    1  0.8133506E-002  0.2001815E+03  0.7818608E-02  0.1149609E+00
         21   -1    0    0  501  502  0.00000000000E+00  0.00000000000E+00  0.18402251061E+03  0.18402251061E+03  0.00000000000E+00 0. -1.
         21   -1    0    0  502  503 -0.00000000000E+00 -0.00000000000E+00 -0.22538884782E+03  0.22538884782E+03  0.00000000000E+00 0.  1.
         -6    2    1    2    0  503 -0.45603449099E+02 -0.91555256767E+02  0.17264387077E+02  0.20092458039E+03  0.17207727430E+03 0.  0.
        -24    2    3    3    0    0 -0.52569765911E+02 -0.12552038285E+03 -0.81044413152E+01  0.15770621840E+03  0.79288224560E+02 0.  0.
          6    2    1    2  501    0  0.45603449099E+02  0.91555256767E+02 -0.58630724289E+02  0.20848677804E+03  0.17195096735E+03 0.  0.
         24    2    5    5    0    0  0.42580939922E+02  0.90309463936E+02 -0.10362473119E+03  0.16312999003E+03  0.76839918076E+02 0.  0.
          5    1    5    5  501    0  0.30225091766E+01  0.12457928310E+01  0.44994006903E+02  0.45356788011E+02  0.47000000000E+01 0. -1.
        -13    1    6    6    0    0 -0.10978935392E+02  0.46622398794E+02 -0.73508176065E+02  0.87736178627E+02  0.00000000000E+00 0.  1.
         14    1    6    6    0    0  0.53559875314E+02  0.43687065142E+02 -0.30116555126E+02  0.75393811398E+02  0.00000000000E+00 0. -1.
         -5    1    3    3    0  503  0.69663168119E+01  0.33965126078E+02  0.25368828392E+02  0.43218361994E+02  0.47000000000E+01 0.  1.
         13    1    4    4    0    0  0.11244205540E+02  0.47254281192E+01  0.18043631840E+01  0.12329539960E+02  0.00000000000E+00 0. -1.
        -14    1    4    4    0    0 -0.63813971450E+02 -0.13024581096E+03 -0.99088044992E+01  0.14537667843E+03  0.00000000000E+00 0.  1.
</event>
<event>
12    1  0.8133506E-002  0.2095225E+03  0.7818608E-02  0.1142086E+00
         21   -1    0    0  503  502  0.00000000000E+00  0.00000000000E+00  0.15954760774E+03  0.15954760774E+03  0.00000000000E+00 0.  1.
         21   -1    0    0  501  503 -0.00000000000E+00 -0.00000000000E+00 -0.58082073671E+03  0.58082073671E+03  0.00000000000E+00 0.  1.
          6    2    1    2  501    0  0.99183540921E+02  0.68612072788E+02 -0.47976397565E+03  0.52351997961E+03  0.17133214934E+03 0.  0.
         24    2    3    3    0    0  0.62615129992E+02  0.11160161864E+03 -0.38540153578E+03  0.41346676617E+03  0.77748615154E+02 0.  0.
         -6    2    1    2    0  502 -0.99183540921E+02 -0.68612072788E+02  0.58490846679E+02  0.21684836484E+03  0.17046126501E+03 0.  0.
        -24    2    5    5    0    0 -0.14126494834E+02  0.10238021339E+02  0.60856822874E+02  0.10074614145E+03  0.78370001849E+02 0.  0.
          5    1    3    3  501    0  0.36568410929E+02 -0.42989545849E+02 -0.94362439874E+02  0.11005321344E+03  0.47000000000E+01 0. -1.
        -13    1    4    4    0    0  0.43187773218E+02  0.28998888043E+02 -0.23584455576E+03  0.24151350634E+03  0.00000000000E+00 0.  1.
         14    1    4    4    0    0  0.19427356773E+02  0.82602730594E+02 -0.14955698002E+03  0.17195325983E+03  0.00000000000E+00 0. -1.
         -5    1    5    5    0  502 -0.85057046087E+02 -0.78850094126E+02 -0.23659761952E+01  0.11610222339E+03  0.47000000000E+01 0.  1.
         13    1    6    6    0    0  0.99894908614E+01  0.40272169589E+02  0.27367395840E+02  0.49705250489E+02  0.00000000000E+00 0. -1.
        -14    1    6    6    0    0 -0.24115985695E+02 -0.30034148251E+02  0.33489427034E+02  0.51040890963E+02  0.00000000000E+00 0.  1.
</event>
<event>
12    1  0.8133506E-002  0.1772855E+03  0.7818608E-02  0.1173083E+00
         21   -1    0    0  501  502  0.00000000000E+00  0.00000000000E+00  0.14605965434E+03  0.14605965434E+03  0.00000000000E+00 0.  1.
         21   -1    0    0  502  503 -0.00000000000E+00 -0.00000000000E+00 -0.31806612349E+03  0.31806612349E+03  0.00000000000E+00 0.  1.
         -6    2    1    2    0  503 -0.25783508366E+02 -0.35190894584E+02 -0.22727099868E+03  0.28823990569E+03  0.17183407120E+03 0.  0.
        -24    2    3    3    0    0  0.27502485240E+01 -0.61258227964E+02 -0.69406712506E+02  0.12564561305E+03  0.84908150237E+02 0.  0.
          6    2    1    2  501    0  0.25783508366E+02  0.35190894584E+02  0.55264529533E+02  0.17588587214E+03  0.16117842110E+03 0.  0.
         24    2    5    5    0    0  0.49023183257E+02 -0.27752755153E+02  0.18690151466E+02  0.99323736180E+02  0.79639154263E+02 0.  0.
          5    1    5    5  501    0 -0.23239674892E+02  0.62943649737E+02  0.36574378068E+02  0.76562135957E+02  0.47000000000E+01 0. -1.
        -11    1    6    6    0    0  0.15502876821E+02 -0.11620617731E+02  0.48130240343E+02  0.51883503945E+02  0.00000000000E+00 0.  1.
         12    1    6    6    0    0  0.33520306437E+02 -0.16132137421E+02 -0.29440088877E+02  0.47440232235E+02  0.00000000000E+00 0. -1.
         -5    1    3    3    0  503 -0.28533756890E+02  0.26067333379E+02 -0.15786428617E+03  0.16259429264E+03  0.47000000000E+01 0.  1.
         13    1    4    4    0    0  0.30207082454E+02 -0.20373076995E+02  0.46263804454E+01  0.36727829948E+02  0.00000000000E+00 0. -1.
        -14    1    4    4    0    0 -0.27456833930E+02 -0.40885150969E+02 -0.74033092951E+02  0.88917783098E+02  0.00000000000E+00 0.  1.
</event>
<event>
12    1  0.8133506E-002  0.1748722E+03  0.7818608E-02  0.1172935E+00
         21   -1    0    0  501  502  0.00000000000E+00  0.00000000000E+00  0.17228446050E+03  0.17228446050E+03  0.00000000000E+00 0. -1.
         21   -1    0    0  502  503 -0.00000000000E+00 -0.00000000000E+00 -0.20292989844E+03  0.20292989844E+03  0.00000000000E+00 0.  1.
         -6    2    1    2    0  503 -0.66143718795E+01  0.23401926628E+02 -0.82120300547E+02  0.19292350338E+03  0.17287086021E+03 0.  0.
        -24    2    3    3    0    0 -0.29676265653E+02 -0.49569826593E+02 -0.60938968290E+02  0.11337812923E+03  0.76178697025E+02 0.  0.
          6    2    1    2  501    0  0.66143718795E+01 -0.23401926628E+02  0.51474862601E+02  0.18229085556E+03  0.17317301884E+03 0.  0.
         24    2    5    5    0    0  0.98692593272E+00 -0.56543765403E+02 -0.21981964808E+02  0.10137086348E+03  0.81207596666E+02 0.  0.
          5    1    5    5  501    0  0.56274459467E+01  0.33141838775E+02  0.73456827409E+02  0.80919992080E+02  0.47000000000E+01 0. -1.
        -13    1    6    6    0    0  0.57199274979E+01 -0.27395003718E+01 -0.42961747260E+02  0.43427343466E+02  0.00000000000E+00 0.  1.
         14    1    6    6    0    0 -0.47330015652E+01 -0.53804265032E+02  0.20979782452E+02  0.57943520010E+02  0.00000000000E+00 0. -1.
         -5    1    3    3    0  503  0.23061893774E+02  0.72971753222E+02 -0.21181332257E+02  0.79545374151E+02  0.47000000000E+01 0.  1.
         11    1    4    4    0    0 -0.70595376231E+01  0.15013785847E+02  0.60098650902E+01  0.17645659957E+02  0.00000000000E+00 0. -1.
        -12    1    4    4    0    0 -0.22616728030E+02 -0.64583612440E+02 -0.66948833380E+02  0.95732469275E+02  0.00000000000E+00 0.  1.
</event>
<event>
12    1  0.8133506E-002  0.3095960E+03  0.7818608E-02  0.1080639E+00
         21   -1    0    0  501  502  0.00000000000E+00  0.00000000000E+00  0.10153950462E+04  0.10153950462E+04  0.00000000000E+00 0. -1.
         21   -1    0    0  502  503 -0.00000000000E+00 -0.00000000000E+00 -0.15149899193E+03  0.15149899193E+03  0.00000000000E+00 0. -1.
         -6    2    1    2    0  503  0.22783193562E+03  0.11923118536E+03  0.73320783136E+02  0.31815976613E+03  0.17241297252E+03 0.  0.
        -24    2    3    3    0    0  0.12293616566E+03  0.11379987958E+03  0.97379900635E+02  0.21030081762E+03  0.81730504873E+02 0.  0.
          6    2    1    2  501    0 -0.22783193562E+03 -0.11923118536E+03  0.79057527116E+03  0.84873427203E+03  0.17093021589E+03 0.  0.
         24    2    5    5    0    0 -0.68305232231E+02 -0.49243758893E+02  0.18388683932E+03  0.21751327089E+03  0.80044367683E+02 0.  0.
          5    1    5    5  501    0 -0.15952670339E+03 -0.69987426465E+02  0.60668843184E+03  0.63122100114E+03  0.47000000000E+01 0. -1.
        -13    1    6    6    0    0 -0.36453745850E+02 -0.43569498008E+02  0.17495967833E+03  0.18395125926E+03  0.00000000000E+00 0.  1.
         14    1    6    6    0    0 -0.31851486380E+02 -0.56742608850E+01  0.89271609946E+01  0.33562011630E+02  0.00000000000E+00 0. -1.
         -5    1    3    3    0  503  0.10489576996E+03  0.54313057824E+01 -0.24059117498E+02  0.10785894851E+03  0.47000000000E+01 0.  1.
         13    1    4    4    0    0  0.69093092906E+02  0.44222366449E+02  0.41862307801E+01  0.82140110237E+02  0.00000000000E+00 0. -1.
        -14    1    4    4    0    0  0.53843072750E+02  0.69577513127E+02  0.93193669855E+02  0.12816070738E+03  0.00000000000E+00 0.  1.
</event>
<event>
12    1  0.8133506E-002  0.1732058E+03  0.7818608E-02  0.1174647E+00
         21   -1    0    0  503  502  0.00000000000E+00  0.00000000000E+00  0.22283594628E+03  0.22283594628E+03  0.00000000000E+00 0. -1.
         21   -1    0    0  501  503 -0.00000000000E+00 -0.00000000000E+00 -0.37996447712E+03  0.37996447712E+03  0.00000000000E+00 0. -1.
          6    2    1    2  501    0  0.97195224982E+01 -0.17926779965E+02 -0.32087258939E+03  0.36444697424E+03  0.17159994130E+03 0.  0.
         24    2    3    3    0    0 -0.43529569140E+02 -0.60295394203E+01 -0.28393819239E+03  0.29839207454E+03  0.80534181027E+02 0.  0.
         -6    2    1    2    0  502 -0.97195224982E+01  0.17926779965E+02  0.16374405856E+03  0.23835344916E+03  0.17200119609E+03 0.  0.
        -24    2    5    5    0    0  0.55432750716E+01  0.44684405932E+02  0.18026361493E+03  0.20308435107E+03  0.81980843805E+02 0.  0.
          5    1    3    3  501    0  0.53249091638E+02 -0.11897240544E+02 -0.36934396997E+02  0.66054899700E+02  0.47000000000E+01 0. -1.
        -13    1    4    4    0    0 -0.28554366090E+02  0.12049264694E+02 -0.29222397698E+02  0.42596773700E+02  0.00000000000E+00 0.  1.
         14    1    4    4    0    0 -0.14975203050E+02 -0.18078804115E+02 -0.25471579469E+03  0.25579530084E+03  0.00000000000E+00 0. -1.
         -5    1    5    5    0  502 -0.15262797570E+02 -0.26757625967E+02 -0.16519556375E+02  0.35269098087E+02  0.47000000000E+01 0.  1.
         13    1    6    6    0    0 -0.15584338409E+02 -0.20004780884E+02  0.53650188723E+02  0.59341432506E+02  0.00000000000E+00 0. -1.
        -14    1    6    6    0    0  0.21127613481E+02  0.64689186815E+02  0.12661342621E+03  0.14374291857E+03  0.00000000000E+00 0.  1.
</event>
<event>
12    1  0.8133506E-002  0.1854113E+03  0.7818608E-02  0.1164504E+00
         21   -1    0    0  503  502  0.00000000000E+00  0.00000000000E+00  0.24191553013E+03  0.24191553013E+03  0.00000000000E+00 0. -1.
         21   -1    0    0  501  503 -0.00000000000E+00 -0.00000000000E+00 -0.13693873281E+03  0.13693873281E+03  0.00000000000E+00 0. -1.
          6    2    1    2  501    0  0.10293601623E+02  0.52094322083E+02  0.40197671851E+02  0.18971869954E+03  0.17764446377E+03 0.  0.
         24    2    3    3    0    0  0.14788711796E+02 -0.58252566873E+01  0.83781053084E+02  0.11694174756E+03  0.80021671155E+02 0.  0.
         -6    2    1    2    0  502 -0.10293601623E+02 -0.52094322083E+02  0.64779125472E+02  0.18913556339E+03  0.16957638284E+03 0.  0.
        -24    2    5    5    0    0  0.12665348474E+02  0.37631621981E+01 -0.22790778297E+02  0.82656692317E+02  0.78346261990E+02 0.  0.
          5    1    3    3  501    0 -0.44951101738E+01  0.57919578771E+02 -0.43583381233E+02  0.72776951984E+02  0.47000000000E+01 0. -1.
        -11    1    4    4    0    0 -0.26233255418E+02 -0.17919886190E+02  0.60287193989E+02  0.68145812564E+02  0.00000000000E+00 0.  1.
         12    1    4    4    0    0  0.41021967215E+02  0.12094629503E+02  0.23493859095E+02  0.48795934996E+02  0.00000000000E+00 0. -1.
         -5    1    5    5    0  502 -0.22958950096E+02 -0.55857484281E+02  0.87569903769E+02  0.10647887108E+03  0.47000000000E+01 0.  1.
         13    1    6    6    0    0  0.43592046640E+02  0.85244180152E+01 -0.82479003851E+00  0.44425358877E+02  0.00000000000E+00 0. -1.
        -14    1    6    6    0    0 -0.30926698167E+02 -0.47612558172E+01 -0.21965988258E+02  0.38231333440E+02  0.00000000000E+00 0.  1.
</event>
<event>
12    1  0.8133506E-002  0.2187320E+03  0.7818608E-02  0.1135279E+00
         21   -1    0    0  501  502  0.00000000000E+00  0.00000000000E+00  0.15976318493E+03  0.15976318493E+03  0.00000000000E+00 0.  1.
         21   -1    0    0  502  503 -0.00000000000E+00 -0.00000000000E+00 -0.46810435390E+03  0.46810435390E+03  0.00000000000E+00 0.  1.
         -6    2    1    2    0  503  0.85465646726E+02 -0.10368961812E+03 -0.34386314064E+03  0.40626992121E+03  0.16958029284E+03 0.  0.
        -24    2    3    3    0    0 -0.39378623591E+01 -0.30079388436E+02 -0.22316486924E+03  0.23893308705E+03  0.79788375429E+02 0.  0.
          6    2    1    2  501    0 -0.85465646726E+02  0.10368961812E+03  0.35521971668E+02  0.22159761762E+03  0.17259136706E+03 0.  0.
         24    2    5    5    0    0  0.17086743300E+02  0.83988504138E+02  0.21644088592E+02  0.11614709732E+03  0.75336949903E+02 0.  0.
          5    1    5    5  501    0 -0.10255239003E+03  0.19701113986E+02  0.13877883076E+02  0.10545052030E+03  0.47000000000E+01 0. -1.
        -11    1    6    6    0    0 -0.66854744879E+01  0.65921318286E+02  0.43395837146E+02  0.79205520359E+02  0.00000000000E+00 0.  1.
         12    1    6    6    0    0  0.23772217788E+02  0.18067185852E+02 -0.21751748554E+02  0.36941576960E+02  0.00000000000E+00 0. -1.
         -5    1    3    3    0  503  0.89403509085E+02 -0.73610229689E+02 -0.12069827139E+03  0.16733683417E+03  0.47000000000E+01 0.  1.
         11    1    4    4    0    0 -0.57696946800E+01 -0.16869923906E+02 -0.26615412040E+01  0.18026855269E+02  0.00000000000E+00 0. -1.
        -12    1    4    4    0    0  0.18318323210E+01 -0.13209464529E+02 -0.22050332804E+03  0.22090623178E+03  0.00000000000E+00 0.  1.
</event>
<event>
12    1  0.8133506E-002  0.1801243E+03  0.7818608E-02  0.1167800E+00
         21   -1    0    0  501  502  0.00000000000E+00  0.00000000000E+00  0.49193784591E+02  0.49193784591E+02  0.00000000000E+00 0. -1.
         21   -1    0    0  502  503 -0.00000000000E+00 -0.00000000000E+00 -0.98444023421E+03  0.98444023421E+03  0.00000000000E+00 0. -1.
         -6    2    1    2    0  503  0.70688338389E+00  0.52260328232E+02 -0.76492047270E+03  0.78573140322E+03  0.17186874892E+03 0.  0.
        -24    2    3    3    0    0  0.19188146672E+02  0.33214429442E+02 -0.74949323396E+03  0.75467672485E+03  0.79532810727E+02 0.  0.
          6    2    1    2  501    0 -0.70688338389E+00 -0.52260328232E+02 -0.17032597692E+03  0.24790261558E+03  0.17237495992E+03 0.  0.
         24    2    5    5    0    0 -0.65826213065E+02 -0.49332227995E+02 -0.11708146954E+03  0.16360452287E+03  0.79319671887E+02 0.  0.
          5    1    5    5  501    0  0.65119329681E+02 -0.29281002371E+01 -0.53244507374E+02  0.84298092710E+02  0.47000000000E+01 0. -1.
        -13    1    6    6    0    0  0.11047063330E+02 -0.25173534695E+02 -0.56360467285E+02  0.62707628961E+02  0.00000000000E+00 0.  1.
         14    1    6    6    0    0 -0.76873276395E+02 -0.24158693300E+02 -0.60721002259E+02  0.10089689391E+03  0.00000000000E+00 0. -1.
         -5    1    3    3    0  503 -0.18481263288E+02  0.19045898789E+02 -0.15427238741E+02  0.31054678369E+02  0.47000000000E+01 0.  1.
         11    1    4    4    0    0 -0.81680384598E+01 -0.83644298796E+01 -0.50668750085E+03  0.50682235947E+03  0.00000000000E+00 0. -1.
        -12    1    4    4    0    0  0.27356185132E+02  0.41578859322E+02 -0.24280573311E+03  0.24785436538E+03  0.00000000000E+00 0.  1.
</event>
<event>
12    1  0.8133506E-002  0.2068794E+03  0.7818608E-02  0.1144735E+00
         21   -1    0    0  503  502  0.00000000000E+00  0.00000000000E+00  0.10799213557E+03  0.10799213557E+03  0.00000000000E+00 0. -1.
         21   -1    0    0  501  503 -0.00000000000E+00 -0.00000000000E+00 -0.46030482473E+03  0.46030482473E+03  0.00000000000E+00 0.  1.
          6    2    1    2  501    0  0.30722982244E+02  0.10562973048E+03 -0.28599479193E+03  0.35104786740E+03  0.17128935342E+03 0.  0.
         24    2    3    3    0    0  0.13196015662E+02  0.11445436857E+03 -0.10748535434E+03  0.17140160915E+03  0.67464604841E+02 0.  0.
         -6    2    1    2    0  502 -0.30722982244E+02 -0.10562973048E+03 -0.66317897226E+02  0.21724909290E+03  0.17520720098E+03 0.  0.
        -24    2    5    5    0    0  0.51963990740E+01  0.27314935917E+02 -0.29706047526E+02  0.74676291092E+02  0.62617816188E+02 0.  0.
          5    1    3    3  501    0  0.17526966582E+02 -0.88246380954E+01 -0.17850943759E+03  0.17964625825E+03  0.47000000000E+01 0. -1.
        -13    1    4    4    0    0 -0.11596308446E+02  0.96777452389E+01 -0.43745010494E+02  0.46279142878E+02  0.00000000000E+00 0.  1.
         14    1    4    4    0    0  0.24792324108E+02  0.10477662333E+03 -0.63740343849E+02  0.12512246627E+03  0.00000000000E+00 0. -1.
         -5    1    5    5    0  502 -0.35919381318E+02 -0.13294466639E+03 -0.36611849699E+02  0.14257280181E+03  0.47000000000E+01 0.  1.
         13    1    6    6    0    0  0.10065230670E+02  0.22924198513E+02  0.15203173628E+02  0.29291026515E+02  0.00000000000E+00 0. -1.
        -14    1    6    6    0    0 -0.48688315961E+01  0.43907374032E+01 -0.44909221155E+02  0.45385264577E+02  0.00000000000E+00 0.  1.
</event>
